G3NPncore-PETIM in water
50816
    1aaa     N1    1   2.460   3.570   5.834  0.7381  0.0655 -0.2012
    1aaa     C1    2   2.608   3.546   5.863  0.1328  0.2536  0.5339
    1aaa     H1    3   2.664   3.601   5.785  0.8697  0.0273  0.8908
    1aaa     H2    4   2.643   3.581   5.961 -0.0812 -1.8068  1.3886
    1aaa     C2    5   2.415   3.580   5.692 -0.4581 -0.1583  0.1950
    1aaa     H3    6   2.429   3.479   5.651 -0.3993 -0.2451  0.4257
    1aaa     H4    7   2.309   3.609   5.695  0.1222  2.4695 -1.3092
    1aaa     C3    8   2.383   3.490   5.925  0.4316 -1.0958 -0.2677
    1aaa     H5    9   2.399   3.384   5.903  1.2059 -1.2061  0.7357
    1aaa     H6   10   2.437   3.495   6.021  0.3034  0.1621 -0.2419
    1aaa     C4   11   2.234   3.527   5.942 -0.0008  0.0508  0.5845
    1aaa     H7   12   2.223   3.636   5.932  1.8418  0.1530 -0.7740
    1aaa     H8   13   2.167   3.495   5.861 -1.4014  1.7607  1.0067
    1aaa     C5   14   2.661   3.397   5.849 -0.1011 -0.7780  0.0135
    1aaa     H9   15   2.609   3.335   5.923  2.8039 -3.6921 -0.1428
    1aaa    H10   16   2.638   3.362   5.748 -0.6916 -1.9226  0.5266
    1aaa     C6   17   2.491   3.694   5.619  0.2884  0.1281 -0.0438
    1aaa    H11   18   2.506   3.779   5.688  1.7652 -1.1550  1.3108
    1aaa    H12   19   2.586   3.657   5.579 -0.7895 -2.8923 -0.1110
    1aaa     C7   20   2.413   3.735   5.494  0.2162  0.3153 -0.0196
    1aaa    H13   21   2.308   3.759   5.514 -0.4492 -1.5005 -1.1210
    1aaa    H14   22   2.473   3.821   5.464 -0.0646  0.9226  1.0940
    1aaa     C8   23   2.180   3.470   6.078 -0.1969 -0.0797  0.3483
    1aaa    H15   24   2.242   3.497   6.165  1.8994  0.1573 -1.1357
    1aaa    H16   25   2.086   3.524   6.095 -0.7477 -0.4944 -1.2534
    1aaa     C9   26   2.812   3.372   5.875  0.2328 -0.4977 -0.3764
    1aaa    H17   27   2.865   3.425   5.794 -0.5187  2.6820  1.0480
    1aaa    H18   28   2.844   3.418   5.969  0.8054  0.2433 -0.9181
    2bbb     N1   29   2.325   3.502   4.929  0.7242 -0.5704  0.6042
    2bbb     C1   30   2.308   3.359   4.953 -0.3829  0.3956 -0.2858
    2bbb     H1   31   2.282   3.313   4.857  2.3266  1.9821 -1.9109
    2bbb     H2   32   2.217   3.338   5.009 -0.7221 -2.4229 -1.7140
    2bbb     C2   33   2.449   3.542   4.861  0.2921 -0.0535  0.3079
    2bbb     H3   34   2.539   3.530   4.922 -0.5422 -0.2372  1.5406
    2bbb     H4   35   2.432   3.648   4.838 -0.5912  0.2140  2.0082
    2bbb     C3   36   2.303   3.589   5.049  0.6023  0.0367 -0.4142
    2bbb     H5   37   2.200   3.561   5.074 -0.0598  0.6122 -2.3056
    2bbb     H6   38   2.310   3.693   5.015 -1.7677  0.1911 -0.5731
    2bbb     C4   39   2.399   3.564   5.171  0.8661 -0.3562 -0.0780
    2bbb     H7   40   2.505   3.576   5.146  1.3500 -1.8399  1.0676
    2bbb     H8   41   2.370   3.467   5.213 -0.2417  0.2543  0.6215
    2bbb     C5   42   2.419   3.271   5.018 -0.3030  0.1705 -0.1163
    2bbb     H9   43   2.407   3.278   5.127  0.2374  2.0698 -0.1447
    2bbb    H10   44   2.515   3.323   5.010  0.6016 -1.5842 -1.3056
    2bbb     C6   45   2.471   3.458   4.731  0.6125 -0.4142 -0.4751
    2bbb    H11   46   2.470   3.350   4.751 -0.1673 -0.1005  1.4625
    2bbb    H12   47   2.574   3.475   4.699  0.6472 -0.0013 -0.1441
    2bbb     C7   48   2.365   3.670   5.276 -0.2563  0.4883 -0.3314
    2bbb    H13   49   2.256   3.674   5.283 -0.3245 -1.0222 -0.1417
    2bbb    H14   50   2.403   3.768   5.247 -1.1226  0.3629 -2.0032
    2bbb     C8   51   2.378   3.478   4.609  0.3196 -0.5021 -0.0807
    2bbb    H15   52   2.381   3.584   4.582 -1.8891 -0.6149 -1.0313
    2bbb    H16   53   2.270   3.467   4.628 -0.6730  1.6698 -3.5954
    2bbb     C9   54   2.422   3.120   4.976 -0.1086  0.0692  0.3848
    2bbb    H17   55   2.320   3.101   4.941  0.0697  0.1989 -0.2054
    2bbb    H18   56   2.450   3.062   5.065  0.2682 -0.3685 -0.0159
    2bbb     O1   57   2.417   3.626   5.403  0.1618  0.0770  0.3088
    3bbb     N1   58   2.169   2.910   6.133  0.6194  0.1492  0.4113
    3bbb     C1   59   2.294   2.840   6.109 -0.5896  0.2554 -0.7586
    3bbb     H1   60   2.283   2.730   6.111  1.0311  0.0688 -0.7894
    3bbb     H2   61   2.364   2.877   6.185  1.0101  1.2925 -2.6694
    3bbb     C2   62   2.045   2.865   6.063 -0.0614 -0.1219  0.1950
    3bbb     H3   63   2.052   2.885   5.956 -1.2002  0.2170  0.1709
    3bbb     H4   64   1.954   2.917   6.095 -1.0414 -1.3685 -0.4924
    3bbb     C3   65   2.182   3.054   6.128  0.3501 -0.3401  0.4323
    3bbb     H5   66   2.186   3.088   6.024  0.5426  0.6723  0.7554
    3bbb     H6   67   2.280   3.082   6.169  0.5223  0.1154 -0.2756
    3bbb     C4   68   2.068   3.134   6.190 -0.0089  0.3233  0.0187
    3bbb     H7   69   2.035   3.094   6.286 -1.6281  0.6063 -0.4011
    3bbb     H8   70   1.988   3.119   6.117  1.7500 -1.4597 -1.6691
    3bbb     C5   71   2.364   2.872   5.973  1.3596  0.5018 -0.0350
    3bbb     H9   72   2.389   2.976   5.951  0.3201  0.2415 -2.8491
    3bbb    H10   73   2.297   2.847   5.890 -0.0649  0.0489  1.2076
    3bbb     C6   74   2.012   2.713   6.086 -0.0209 -0.7784  0.5744
    3bbb    H11   75   1.998   2.700   6.194 -0.4960 -0.6653  0.5271
    3bbb    H12   76   2.089   2.647   6.044  1.5056  2.8089 -2.9177
    3bbb     C7   77   2.115   3.281   6.199  0.6954 -0.7740 -0.0025
    3bbb    H13   78   2.196   3.301   6.271 -0.1061  0.9551  0.4847
    3bbb    H14   79   2.032   3.345   6.231  0.5628 -1.6054  1.3807
    3bbb     C8   80   1.881   2.676   6.019  0.3944  0.4117 -0.4835
    3bbb    H15   81   1.797   2.734   6.058 -0.4089 -1.5343  0.8178
    3bbb    H16   82   1.856   2.572   6.042  1.8860 -0.0096 -0.6543
    3bbb     C9   83   2.508   2.808   5.970 -0.3364 -0.5500 -0.9029
    3bbb    H17   84   2.514   2.710   6.019 -1.4749 -0.0633  0.2805
    3bbb    H18   85   2.570   2.871   6.035 -0.5057 -1.0974 -0.1982
    3bbb     O1   86   2.167   3.332   6.073  0.3890  0.0815 -0.1165
    4bbb     N1   87   3.169   2.853   5.891  0.3351  0.0227  0.0807
    4bbb     C1   88   3.101   2.760   5.982  0.0779  1.0830  0.3160
    4bbb     H1   89   3.132   2.657   5.962  1.5711  1.6236 -0.2837
    4bbb     H2   90   2.992   2.774   5.974 -0.0787 -0.8102 -2.4235
    4bbb     C2   91   3.163   2.802   5.751  0.0584  0.6448  0.4710
    4bbb     H3   92   3.215   2.876   5.689  0.5274  0.5629  0.7588
    4bbb     H4   93   3.058   2.799   5.720  0.2917  3.7217 -0.9680
    4bbb     C3   94   3.143   2.997   5.920 -0.1767 -0.1793 -0.0518
    4bbb     H5   95   3.200   3.061   5.852 -1.8941  0.4957 -0.9055
    4bbb     H6   96   3.182   3.028   6.018  3.6004  2.2666 -2.0904
    4bbb     C4   97   2.991   3.040   5.912 -0.7977 -0.1779  0.2896
    4bbb     H7   98   2.942   2.986   5.994  0.5314 -0.6771  0.7807
    4bbb     H8   99   2.943   3.008   5.819 -2.9338  0.8411  0.9706
    4bbb     C5  100   3.137   2.780   6.130 -0.1823 -0.7617  0.3919
    4bbb     H9  101   3.118   2.879   6.173  0.3039 -1.0812  1.3597
    4bbb    H10  102   3.246   2.765   6.134 -0.1019 -0.2420  0.2356
    4bbb     C6  103   3.230   2.660   5.722  0.4227 -0.4871  0.1131
    4bbb    H11  104   3.204   2.637   5.618 -1.1268  1.0428  0.1101
    4bbb    H12  105   3.184   2.575   5.775  1.1885  0.3605  2.2644
    4bbb     C7  106   2.969   3.198   5.935  0.0467  0.5338  0.4709
    4bbb    H13  107   3.052   3.245   5.881  0.4827  2.0097  2.3054
    4bbb    H14  108   2.983   3.234   6.038  1.5220  0.3273  0.3620
    4bbb     C8  109   3.378   2.665   5.741 -0.6231  0.3073  0.4897
    4bbb    H15  110   3.405   2.639   5.844  2.6585  1.6289  0.0673
    4bbb    H16  111   3.421   2.764   5.725  1.0337 -0.3842  0.5229
    4bbb     C9  112   3.079   2.674   6.223  0.3906  0.0151 -0.1649
    4bbb    H17  113   3.115   2.696   6.324  0.0693  1.3557 -0.3301
    4bbb    H18  114   3.112   2.573   6.194  0.4477 -0.6308  1.9804
    4bbb     O1  115   2.833   3.234   5.879  0.0318  0.2071  0.0440
    5bbb     N1  116   2.209   3.019   4.489  0.2646  0.7657  0.1419
    5bbb     C1  117   2.260   2.883   4.520 -0.1796  0.9001  0.3587
    5bbb     H1  118   2.183   2.807   4.540  0.1053  0.1293 -1.2976
    5bbb     H2  119   2.323   2.878   4.610  0.1199  0.2932  0.1230
    5bbb     C2  120   2.096   3.052   4.581 -0.0012 -0.4517  0.2331
    5bbb     H3  121   2.017   2.976   4.572 -0.4600  0.0079  0.2894
    5bbb     H4  122   2.044   3.143   4.546  0.1821 -0.5003 -0.1674
    5bbb     C3  123   2.305   3.129   4.459 -0.7970  0.8916  0.6847
    5bbb     H5  124   2.371   3.093   4.380  1.7310  0.5947  2.7814
    5bbb     H6  125   2.374   3.141   4.544  0.9908  0.9448 -0.7272
    5bbb     C4  126   2.254   3.271   4.426  0.6150 -1.1544 -0.4696
    5bbb     H7  127   2.206   3.298   4.521  2.6441 -1.6481  0.7527
    5bbb     H8  128   2.181   3.262   4.344  0.0045 -3.0733  0.2056
    5bbb     C5  129   2.339   2.830   4.400 -0.1802 -0.0328 -0.2218
    5bbb     H9  130   2.432   2.887   4.406 -0.3457  0.1184  1.4151
    5bbb    H10  131   2.292   2.863   4.306 -0.3788 -0.3604 -0.2397
    5bbb     C6  132   2.137   3.064   4.731  0.5504 -0.2678 -0.2738
    5bbb    H11  133   2.218   3.137   4.738  0.1279  0.2020 -0.2108
    5bbb    H12  134   2.165   2.966   4.772 -0.0821 -0.2066  0.3147
    5bbb     C7  135   2.368   3.364   4.386  0.2969 -0.2760 -0.3522
    5bbb    H13  136   2.320   3.452   4.343  0.3517 -0.8292 -1.5865
    5bbb    H14  137   2.434   3.323   4.309  2.0088 -0.6903  1.2569
    5bbb     C8  138   2.009   3.109   4.811  0.4156 -0.3728 -0.2247
    5bbb    H15  139   1.936   3.027   4.803  1.6358 -1.3578 -1.7277
    5bbb    H16  140   1.959   3.195   4.766  0.0344 -0.5343 -0.1177
    5bbb     C9  141   2.371   2.671   4.404 -0.3575 -0.6680  0.0504
    5bbb    H17  142   2.395   2.630   4.306  0.0045  0.8790 -0.5385
    5bbb    H18  143   2.279   2.626   4.444 -1.5634  1.3198 -0.3163
    5bbb     O1  144   2.439   3.392   4.509  0.5856 -0.3681 -0.1845
    6bbb     N1  145   2.794   2.923   4.518 -0.0928 -0.1625  0.1444
    6bbb     C1  146   2.910   3.016   4.542  0.2788 -0.2326 -0.6821
    6bbb     H1  147   2.982   2.978   4.616 -2.4611 -0.4185  2.1308
    6bbb     H2  148   2.881   3.117   4.574  0.2601 -0.1041 -1.0991
    6bbb     C2  149   2.834   2.788   4.461 -0.3189 -0.7085  0.1889
    6bbb     H3  150   2.857   2.812   4.356 -2.9356  0.7043 -0.1601
    6bbb     H4  151   2.749   2.719   4.453 -1.6065  0.8136  0.1452
    6bbb     C3  152   2.716   2.904   4.646  0.7044 -0.1715  0.4334
    6bbb     H5  153   2.780   2.875   4.731 -3.0287  2.1899  4.4944
    6bbb     H6  154   2.631   2.838   4.624 -0.0585  0.3664  1.6715
    6bbb     C4  155   2.642   3.032   4.696  0.5611  0.0834 -0.4466
    6bbb     H7  156   2.571   3.066   4.620 -0.0318  0.8455  0.4306
    6bbb     H8  157   2.706   3.120   4.712 -0.3419  1.3501 -3.1598
    6bbb     C5  158   2.984   3.048   4.408  0.3088 -0.7751  0.1512
    6bbb     H9  159   2.913   3.079   4.331  0.4148  0.1071  0.3935
    6bbb    H10  160   3.030   2.957   4.368 -2.3896 -0.6827 -3.7156
    6bbb     C6  161   2.954   2.715   4.533  0.2313  0.1087 -0.3378
    6bbb    H11  162   2.910   2.694   4.631 -1.8582 -1.7440 -1.5896
    6bbb    H12  163   3.040   2.783   4.538  1.1325 -0.8276 -2.1798
    6bbb     C7  164   2.552   2.993   4.814  0.3301  0.0436  0.8950
    6bbb    H13  165   2.611   2.929   4.881  1.1155  1.3099  1.4458
    6bbb    H14  166   2.464   2.943   4.773  0.0893  0.7308  0.5563
    6bbb     C8  167   2.987   2.574   4.469  1.2766  0.6236  0.0111
    6bbb    H15  168   3.035   2.592   4.372  1.7192 -0.6132 -0.0238
    6bbb    H16  169   2.897   2.512   4.460  0.2766  1.6754  2.0894
    6bbb     C9  170   3.090   3.158   4.429 -0.2479 -0.4764  0.3587
    6bbb    H17  171   3.048   3.247   4.478  1.1844  0.9070 -0.8197
    6bbb    H18  172   3.130   3.191   4.332 -2.4740 -2.6366 -1.4602
    6bbb     O1  173   2.520   3.118   4.868 -0.3669  0.2069  0.0140
    7bbb     N1  174   1.730   2.570   5.428 -0.0906 -0.0558  0.2075
    7bbb     C1  175   1.832   2.658   5.367 -0.1626  0.2765 -0.8899
    7bbb     H1  176   1.878   2.623   5.273  0.8829 -3.4066  0.7903
    7bbb     H2  177   1.925   2.659   5.425 -0.7622  0.1474  0.0809
    7bbb     C2  178   1.600   2.547   5.356  1.2192 -0.0324  1.0436
    7bbb     H3  179   1.547   2.642   5.370 -2.5272 -1.1501 -3.3368
    7bbb     H4  180   1.538   2.468   5.399 -2.1121  1.1696 -1.1458
    7bbb     C3  181   1.702   2.591   5.573 -0.4773 -0.7236  0.1126
    7bbb     H5  182   1.657   2.500   5.614 -2.7372  0.0011 -0.6208
    7bbb     H6  183   1.630   2.674   5.570  0.2198 -0.0700  0.9637
    7bbb     C4  184   1.824   2.625   5.654 -0.8772 -0.2342 -0.0062
    7bbb     H7  185   1.864   2.723   5.625 -0.5175 -0.9904 -2.1886
    7bbb     H8  186   1.899   2.551   5.626  0.4775  0.8961  0.5114
    7bbb     C5  187   1.794   2.804   5.361  0.3676 -0.2355  0.1970
    7bbb     H9  188   1.763   2.838   5.460 -1.4075  2.3057 -1.1020
    7bbb    H10  189   1.700   2.808   5.304  0.9674 -0.6737 -0.8545
    7bbb     C6  190   1.625   2.518   5.210  0.1194  0.5276 -0.1709
    7bbb    H11  191   1.659   2.414   5.200  0.1635  0.3608  1.4498
    7bbb    H12  192   1.696   2.583   5.158  0.0091  1.2966  0.6298
    7bbb     C7  193   1.803   2.622   5.809 -0.0037 -0.0359  0.7591
    7bbb    H13  194   1.772   2.518   5.827 -1.4964 -0.5577 -3.5160
    7bbb    H14  195   1.717   2.685   5.831 -0.8290 -0.8016 -0.1547
    7bbb     C8  196   1.491   2.528   5.138  0.3013 -0.3940 -0.4834
    7bbb    H15  197   1.452   2.627   5.163  1.2151  0.0750 -0.8845
    7bbb    H16  198   1.420   2.459   5.186  1.9248 -2.2111 -0.5898
    7bbb     C9  199   1.891   2.904   5.287  0.0289  0.7381  0.2228
    7bbb    H17  200   1.865   3.004   5.322 -2.6684  0.3160 -0.4080
    7bbb    H18  201   1.872   2.902   5.179  0.3078 -1.1396  0.1735
    7bbb     O1  202   1.909   2.681   5.878  0.1197  0.9181  0.4577
    8bbb     N1  203   2.854   2.687   5.497 -0.2075  0.1117  1.2079
    8bbb     C1  204   2.914   2.552   5.471 -0.2804  0.4063  0.3575
    8bbb     H1  205   2.836   2.483   5.438 -0.9507  0.6929  1.3089
    8bbb     H2  206   2.967   2.519   5.561  1.4694 -0.1450 -0.8146
    8bbb     C2  207   2.778   2.745   5.384 -1.1987  0.1784  0.4827
    8bbb     H3  208   2.846   2.756   5.299 -0.0103 -1.6824  1.1484
    8bbb     H4  209   2.746   2.848   5.406 -0.2208  0.6825 -0.3492
    8bbb     C3  210   2.770   2.692   5.623 -0.1996  0.5043 -0.2180
    8bbb     H5  211   2.841   2.677   5.705  0.9003  0.6137 -1.1147
    8bbb     H6  212   2.695   2.614   5.634 -0.0729  0.5212  0.8770
    8bbb     C4  213   2.717   2.827   5.659 -0.0328 -0.3691 -0.0517
    8bbb     H7  214   2.628   2.852   5.599 -0.3304  0.2831  0.6351
    8bbb     H8  215   2.783   2.912   5.640 -1.3565  0.6603 -0.2441
    8bbb     C5  216   3.005   2.540   5.355  0.0558  0.0160 -0.3005
    8bbb     H9  217   3.084   2.615   5.367  0.1668 -0.2624  0.9002
    8bbb    H10  218   2.952   2.556   5.261 -0.0415  0.8376 -0.1086
    8bbb     C6  219   2.648   2.667   5.342  0.1513 -0.4521  0.2310
    8bbb    H11  220   2.571   2.706   5.410  1.3217  3.4501 -0.4315
    8bbb    H12  221   2.660   2.558   5.333  2.6471 -0.2014 -0.4243
    8bbb     C7  222   2.684   2.838   5.807 -0.5043  0.4678 -0.2329
    8bbb    H13  223   2.691   2.944   5.836  0.1524  0.5419 -0.6490
    8bbb    H14  224   2.755   2.778   5.866  1.0098  0.6082 -1.8386
    8bbb     C8  225   2.611   2.728   5.206  0.2188 -0.6463 -0.0820
    8bbb    H15  226   2.676   2.671   5.138  0.0785 -1.6023  0.5571
    8bbb    H16  227   2.610   2.837   5.199 -0.3553 -0.4957  1.8244
    8bbb     C9  228   3.078   2.403   5.353 -0.1847  0.5000  0.3318
    8bbb    H17  229   3.126   2.376   5.448  1.0723 -1.4533 -0.7976
    8bbb    H18  230   3.169   2.401   5.292 -0.1897 -0.3695  0.3388
    8bbb     O1  231   2.556   2.795   5.832 -0.0850 -0.0060 -0.1113
    9bbb     N1  232   3.579   2.203   5.509 -0.0897 -0.4797 -0.3622
    9bbb     C1  233   3.638   2.075   5.565 -0.3278 -0.5528  0.8350
    9bbb     H1  234   3.637   1.989   5.497 -1.5400 -0.4641  0.7239
    9bbb     H2  235   3.573   2.041   5.647  1.0975 -1.8700  1.4773
    9bbb     C2  236   3.453   2.182   5.439  0.0565  1.0665 -0.2836
    9bbb     H3  237   3.418   2.278   5.398 -2.4105  1.0575  1.5438
    9bbb     H4  238   3.376   2.149   5.510  1.5563 -0.4096  0.7287
    9bbb     C3  239   3.567   2.309   5.604  0.1666  0.2380 -0.7222
    9bbb     H5  240   3.619   2.290   5.699 -0.6750 -0.9037 -0.4660
    9bbb     H6  241   3.461   2.324   5.626 -0.2573 -0.9268 -1.8837
    9bbb     C4  242   3.610   2.447   5.551 -0.0474 -0.8008  0.3019
    9bbb     H7  243   3.553   2.467   5.459 -0.9703 -0.0156  1.0229
    9bbb     H8  244   3.718   2.447   5.534  0.2297  0.7022  1.7842
    9bbb     C5  245   3.779   2.092   5.624  0.4271  0.5176 -0.4262
    9bbb     H9  246   3.784   2.160   5.710 -2.5331 -1.5104  1.5630
    9bbb    H10  247   3.843   2.135   5.546 -0.9786  0.8879 -1.4194
    9bbb     C6  248   3.468   2.088   5.312 -0.2105 -0.4354  0.1072
    9bbb    H11  249   3.370   2.096   5.262 -0.1376  0.1785  0.0479
    9bbb    H12  250   3.488   1.984   5.339 -1.1250 -0.7352 -0.3047
    9bbb     C7  251   3.577   2.562   5.650 -0.6035  0.8357 -0.0651
    9bbb    H13  252   3.631   2.652   5.616  2.9259 -0.6776  1.0668
    9bbb    H14  253   3.614   2.529   5.747 -0.3704  2.2967  0.3629
    9bbb     C8  254   3.583   2.141   5.223  0.3431  0.6244 -0.2874
    9bbb    H15  255   3.681   2.133   5.270 -0.0643 -1.3842  0.2965
    9bbb    H16  256   3.570   2.248   5.202 -1.1154  0.4023 -0.6039
    9bbb     C9  257   3.834   1.951   5.671  0.3534 -0.1900  0.2398
    9bbb    H17  258   3.763   1.917   5.748 -1.8746  0.9978 -1.1919
    9bbb    H18  259   3.931   1.974   5.717  0.4221  3.1166 -1.2300
    9bbb     O1  260   3.438   2.566   5.655  0.0854 -0.3733  0.2281
   10bbb     N1  261   2.717   2.392   5.926  0.0509 -0.4076 -0.1593
   10bbb     C1  262   2.832   2.369   5.835 -0.0993  0.3993  0.5872
   10bbb     H1  263   2.920   2.344   5.896  1.8852  1.3130 -1.7397
   10bbb     H2  264   2.854   2.458   5.775  2.5460  0.5628  1.6585
   10bbb     C2  265   2.588   2.424   5.855  0.0703 -0.1983  0.3244
   10bbb     H3  266   2.578   2.358   5.768  2.0375 -0.8504  0.5470
   10bbb     H4  267   2.589   2.527   5.820  2.3703 -0.2314  0.1878
   10bbb     C3  268   2.760   2.496   6.024  0.0206 -0.3127  0.0360
   10bbb     H5  269   2.666   2.517   6.077 -0.7352 -0.2339 -1.2963
   10bbb     H6  270   2.796   2.586   5.973  0.2104  0.4329  1.4357
   10bbb     C4  271   2.858   2.456   6.135  0.0002 -0.1697 -0.0935
   10bbb     H7  272   2.954   2.453   6.081 -0.8007  0.8936 -1.6319
   10bbb     H8  273   2.832   2.360   6.181 -0.2904  0.4230  0.9968
   10bbb     C5  274   2.821   2.241   5.749 -0.0997  0.3050 -0.7232
   10bbb     H9  275   2.729   2.231   5.691  0.1899 -2.3360 -0.8553
   10bbb    H10  276   2.821   2.159   5.822 -0.0857  0.5579 -0.4317
   10bbb     C6  277   2.458   2.393   5.935 -0.2734 -0.5815 -0.7376
   10bbb    H11  278   2.465   2.413   6.043 -0.0926 -0.3204 -0.7965
   10bbb    H12  279   2.443   2.285   5.923  0.6567 -1.0419  1.6756
   10bbb     C7  280   2.863   2.559   6.255 -0.8359  0.0643  0.3010
   10bbb    H13  281   2.922   2.512   6.335 -0.5042  0.4498  0.2867
   10bbb    H14  282   2.762   2.572   6.296 -0.7143 -1.7188  1.2745
   10bbb     C8  283   2.333   2.463   5.877  0.8355  0.8339  0.1212
   10bbb    H15  284   2.368   2.566   5.861 -0.1336  1.1589  0.0135
   10bbb    H16  285   2.257   2.464   5.956  0.1456 -1.9046 -0.4204
   10bbb     C9  286   2.949   2.219   5.659  0.4188  0.2046 -0.0112
   10bbb    H17  287   2.949   2.284   5.570  0.0472 -1.8725 -1.6298
   10bbb    H18  288   2.944   2.115   5.623 -0.0361 -0.7879  2.6911
   10bbb     O1  289   2.931   2.683   6.220 -0.2614  0.0884  0.1217
   11bbb     N1  290   1.644   3.176   5.226  0.4029  0.8417 -0.1863
   11bbb     C1  291   1.595   3.253   5.343  0.4433  0.2308 -0.6276
   11bbb     H1  292   1.487   3.239   5.346  0.6341 -1.2722  0.9214
   11bbb     H2  293   1.619   3.360   5.333  2.7537 -0.2350 -0.5771
   11bbb     C2  294   1.539   3.139   5.127 -0.2125 -0.3925  0.2931
   11bbb     H3  295   1.599   3.102   5.043  0.2403  1.3211 -0.1912
   11bbb     H4  296   1.478   3.222   5.087 -1.5188 -0.4765  2.0039
   11bbb     C3  297   1.771   3.236   5.177 -0.3873  1.1269 -0.1497
   11bbb     H5  298   1.846   3.229   5.256 -2.0292  3.5643  1.8079
   11bbb     H6  299   1.762   3.340   5.145 -0.0870  1.3049  0.3361
   11bbb     C4  300   1.841   3.166   5.055 -0.4683 -0.5767  0.6131
   11bbb     H7  301   1.780   3.177   4.964 -0.8977  1.0677  1.0581
   11bbb     H8  302   1.832   3.058   5.064 -1.8065 -0.5149  0.2585
   11bbb     C5  303   1.668   3.220   5.473  0.5631  0.5334 -0.2735
   11bbb     H9  304   1.632   3.281   5.557 -2.4771  0.5061 -1.4206
   11bbb    H10  305   1.775   3.233   5.457  0.4160  4.1774  0.7785
   11bbb     C6  306   1.433   3.032   5.175 -0.2772 -0.1023  0.1769
   11bbb    H11  307   1.355   3.085   5.232 -0.3037  1.6990 -1.4102
   11bbb    H12  308   1.485   2.960   5.240 -0.6580 -0.4411  0.1086
   11bbb     C7  309   1.987   3.214   5.029 -0.1963 -0.4137  0.3607
   11bbb    H13  310   2.046   3.233   5.119  0.1695 -0.3525  0.1131
   11bbb    H14  311   1.981   3.305   4.968  0.5720 -1.1755 -0.9232
   11bbb     C8  312   1.369   2.951   5.055 -0.3680  0.2672 -0.0840
   11bbb    H15  313   1.287   2.892   5.099  1.9602 -1.1437  2.6788
   11bbb    H16  314   1.440   2.881   5.009  0.4667  1.0527 -0.0096
   11bbb     C9  315   1.639   3.069   5.517 -1.1207  0.1663  0.1781
   11bbb    H17  316   1.715   3.040   5.591 -0.0586  0.5750 -0.7256
   11bbb    H18  317   1.671   3.010   5.430 -0.2630 -1.3158  1.4352
   11bbb     O1  318   2.049   3.115   4.951 -0.6031 -0.3329 -0.0253
   12bbb     N1  319   2.654   2.489   4.892  0.1734 -0.5065  0.7409
   12bbb     C1  320   2.788   2.536   4.859  0.0591  0.0417  0.3207
   12bbb     H1  321   2.789   2.645   4.849  1.1289 -0.0512 -0.7685
   12bbb     H2  322   2.817   2.497   4.761 -1.4839 -0.3744  0.0044
   12bbb     C2  323   2.641   2.350   4.919  0.0293  1.0019 -0.1720
   12bbb     H3  324   2.723   2.321   4.986  2.6386  1.3155 -3.0439
   12bbb     H4  325   2.637   2.290   4.827 -1.3200 -0.7409  0.9517
   12bbb     C3  326   2.571   2.555   4.786 -0.2568 -0.0169  0.8060
   12bbb     H5  327   2.595   2.662   4.789 -1.9308  0.3869  1.0984
   12bbb     H6  328   2.466   2.549   4.818 -0.5647  2.4447  0.4436
   12bbb     C4  329   2.594   2.494   4.643  0.5392 -0.1080 -0.2271
   12bbb     H7  330   2.626   2.389   4.644 -0.1171 -0.3163 -0.4438
   12bbb     H8  331   2.679   2.549   4.603  1.4232 -0.7787  0.6733
   12bbb     C5  332   2.896   2.501   4.972 -0.0464 -0.4756  0.1487
   12bbb     H9  333   2.927   2.396   4.969  0.4841 -0.3249  0.2370
   12bbb    H10  334   2.846   2.529   5.065  1.1093 -0.8944  0.9153
   12bbb     C6  335   2.503   2.318   4.982  0.4208 -0.4258  0.0108
   12bbb    H11  336   2.424   2.354   4.914 -1.0112 -0.8993  1.3665
   12bbb    H12  337   2.485   2.374   5.074 -1.9191 -1.2207  0.1084
   12bbb     C7  338   2.483   2.512   4.543 -0.0368  0.3543 -0.1074
   12bbb    H13  339   2.389   2.486   4.593  0.1069  2.7480  1.5792
   12bbb    H14  340   2.494   2.440   4.461  3.3829  0.0031  0.5026
   12bbb     C8  341   2.487   2.165   5.001  0.0106 -0.2086 -0.1250
   12bbb    H15  342   2.538   2.141   5.095 -0.2233 -2.7981 -0.5900
   12bbb    H16  343   2.550   2.112   4.930 -0.0568  0.5290 -0.7512
   12bbb     C9  344   3.023   2.592   4.949 -0.4260  0.4300 -0.3995
   12bbb    H17  345   3.043   2.576   4.843 -2.3886 -0.1156 -0.7206
   12bbb    H18  346   3.113   2.561   5.005 -0.3054  0.7281 -0.4297
   12bbb     O1  347   2.482   2.648   4.498 -0.0283 -0.5987  0.1159
   13bbb     N1  348   3.241   2.191   4.784 -0.6738  0.1962  0.9841
   13bbb     C1  349   3.353   2.260   4.859  0.3622  0.8055 -0.0618
   13bbb     H1  350   3.421   2.304   4.785 -1.0777  0.9478 -1.3372
   13bbb     H2  351   3.397   2.179   4.918 -0.3572 -0.6425 -1.4244
   13bbb     C2  352   3.284   2.066   4.721  0.3637 -0.0997 -0.6429
   13bbb     H3  353   3.378   2.082   4.667  0.6548  0.5739  0.0521
   13bbb     H4  354   3.210   2.043   4.643  0.3565  0.3559 -0.7735
   13bbb     C3  355   3.166   2.288   4.687 -0.1019  0.3590 -0.2013
   13bbb     H5  356   3.125   2.369   4.748  0.5413  0.8195 -0.3750
   13bbb     H6  357   3.075   2.236   4.654  0.4033 -0.0705 -0.9432
   13bbb     C4  358   3.252   2.347   4.576 -0.5685  0.1001  0.1811
   13bbb     H7  359   3.296   2.258   4.528  2.6044  0.4234  2.2174
   13bbb     H8  360   3.327   2.421   4.606 -0.7218  0.7441 -0.9708
   13bbb     C5  361   3.305   2.364   4.957  0.5689 -0.6644 -0.6613
   13bbb     H9  362   3.212   2.326   5.000  0.1258  1.4565  0.4075
   13bbb    H10  363   3.283   2.455   4.901 -0.2984  0.4070  1.2957
   13bbb     C6  364   3.290   1.942   4.824 -0.0077 -0.2318  0.2217
   13bbb    H11  365   3.200   1.952   4.887 -0.5078 -0.9566 -0.3464
   13bbb    H12  366   3.378   1.946   4.889  0.3848 -3.3465  0.0488
   13bbb     C7  367   3.168   2.421   4.475 -1.1872  0.6872 -0.5583
   13bbb    H13  368   3.101   2.349   4.427 -2.3163 -0.3848  2.3594
   13bbb    H14  369   3.235   2.471   4.404  0.7257 -0.5693  0.2860
   13bbb     C8  370   3.281   1.809   4.748 -0.0061  0.2867  1.2076
   13bbb    H15  371   3.363   1.808   4.675 -0.3130  0.0526  0.8623
   13bbb    H16  372   3.189   1.822   4.690  1.0800  3.0747 -0.0875
   13bbb     C9  373   3.395   2.381   5.086 -0.0818  0.0655 -0.0028
   13bbb    H17  374   3.501   2.387   5.057  0.0494 -0.0152  0.4621
   13bbb    H18  375   3.381   2.292   5.148  0.3310 -1.3575 -1.8714
   13bbb     O1  376   3.090   2.517   4.549 -0.0784  0.8800  0.2058
   14bbb     N1  377   3.460   2.874   4.768 -0.7090 -0.1369  0.6151
   14bbb     C1  378   3.558   2.980   4.810  0.4981  0.0806 -0.9118
   14bbb     H1  379   3.609   3.027   4.725  2.2439  2.4062  1.2440
   14bbb     H2  380   3.639   2.930   4.866 -1.8208 -1.1982  1.4956
   14bbb     C2  381   3.515   2.742   4.723  0.2928 -0.5754 -0.3989
   14bbb     H3  382   3.558   2.746   4.623  1.4586 -0.9475  0.0672
   14bbb     H4  383   3.425   2.678   4.729 -3.3669  4.0765  0.1794
   14bbb     C3  384   3.349   2.919   4.681 -0.0273 -0.0089  0.8472
   14bbb     H5  385   3.280   2.984   4.736 -0.5734  1.1138 -1.0458
   14bbb     H6  386   3.294   2.832   4.643  0.4882  0.2929 -0.6442
   14bbb     C4  387   3.403   2.998   4.556  0.3331 -0.4532  0.4337
   14bbb     H7  388   3.482   2.951   4.496  1.1991  1.7348 -0.2167
   14bbb     H8  389   3.450   3.095   4.576 -0.4748 -0.2261  1.3241
   14bbb     C5  390   3.505   3.096   4.896  0.0616 -0.6476 -0.0920
   14bbb     H9  391   3.452   3.161   4.826  2.2587  0.7619 -0.5427
   14bbb    H10  392   3.594   3.156   4.922 -0.0075 -0.4542 -0.3063
   14bbb     C6  393   3.619   2.683   4.819  0.2556 -0.8769  0.0264
   14bbb    H11  394   3.590   2.721   4.918  0.4042 -1.3063  0.2359
   14bbb    H12  395   3.718   2.724   4.793 -0.6524 -0.6692 -3.7033
   14bbb     C7  396   3.289   3.012   4.460  0.0166  0.2915 -0.0662
   14bbb    H13  397   3.233   2.919   4.445 -1.8847  1.1380  1.3348
   14bbb    H14  398   3.320   3.048   4.361  0.9272  1.7341  0.7137
   14bbb     C8  399   3.635   2.530   4.807  0.6848 -0.2893  0.2313
   14bbb    H15  400   3.694   2.513   4.716 -0.9888 -2.8779 -0.4806
   14bbb    H16  401   3.535   2.490   4.788  0.6050 -0.8350  1.6601
   14bbb     C9  402   3.431   3.047   5.020 -0.7290 -0.0950  0.0530
   14bbb    H17  403   3.503   2.986   5.075 -1.0082 -0.8528 -0.4084
   14bbb    H18  404   3.355   2.976   4.984  2.0801 -2.8708 -0.7801
   14bbb     O1  405   3.197   3.110   4.509  0.3379 -0.0257  0.0383
   15bbb     N1  406   1.476   2.494   4.556  0.1621 -0.4662 -0.0307
   15bbb     C1  407   1.355   2.530   4.476 -0.0050 -0.2721  0.2519
   15bbb     H1  408   1.271   2.472   4.518 -1.2693  0.0278 -1.7589
   15bbb     H2  409   1.368   2.491   4.374  1.5973  2.1770 -0.5573
   15bbb     C2  410   1.606   2.525   4.489 -0.2332  0.5696 -0.3748
   15bbb     H3  411   1.687   2.494   4.555 -0.9851  0.3936  0.4793
   15bbb     H4  412   1.617   2.633   4.472  0.7270  0.2041 -2.4221
   15bbb     C3  413   1.479   2.539   4.698 -0.4807  0.0707  0.3704
   15bbb     H5  414   1.496   2.647   4.695  0.4737 -0.0839 -1.0476
   15bbb     H6  415   1.571   2.494   4.739 -0.2700 -0.8755 -1.0556
   15bbb     C4  416   1.359   2.499   4.783  0.6251 -0.2974  0.4205
   15bbb     H7  417   1.336   2.392   4.774  0.7856 -0.3209  0.2858
   15bbb     H8  418   1.274   2.564   4.756  2.7295  1.3863 -2.7304
   15bbb     C5  419   1.310   2.679   4.482  0.6930 -0.5119 -0.3874
   15bbb     H9  420   1.292   2.717   4.583  2.9429 -0.8008  0.1635
   15bbb    H10  421   1.208   2.666   4.444  1.3062 -3.0743 -1.3938
   15bbb     C6  422   1.631   2.463   4.347  0.2901  0.3147  0.0594
   15bbb    H11  423   1.565   2.500   4.268  0.5390 -0.3424 -0.4717
   15bbb    H12  424   1.622   2.354   4.359  2.7345  0.0399  0.0569
   15bbb     C7  425   1.379   2.547   4.928  0.2868 -0.2150 -0.1267
   15bbb    H13  426   1.289   2.525   4.986 -0.3799  1.8262 -0.3133
   15bbb    H14  427   1.386   2.656   4.935  0.8106 -0.3651  2.5016
   15bbb     C8  428   1.781   2.476   4.306 -0.3777 -0.5211  0.2995
   15bbb    H15  429   1.794   2.439   4.203 -0.6889 -3.1296  1.1287
   15bbb    H16  430   1.842   2.423   4.380 -0.0169 -0.9071 -0.2654
   15bbb     C9  431   1.399   2.780   4.406 -0.5612 -0.0582  0.2575
   15bbb    H17  432   1.487   2.789   4.470  0.0223 -0.0155 -0.5264
   15bbb    H18  433   1.347   2.877   4.402 -1.1997 -0.4165 -0.5050
   15bbb     O1  434   1.498   2.498   4.999  0.9801 -0.1020 -0.0985
   16bbb     N1  435   2.201   3.123   5.502  0.4282 -0.2250  0.0365
   16bbb     C1  436   2.154   3.141   5.642  0.3827  0.0457 -0.2039
   16bbb     H1  437   2.126   3.246   5.660 -0.0846  0.5586 -3.4134
   16bbb     H2  438   2.232   3.117   5.715 -0.3914 -0.0549  0.6188
   16bbb     C2  439   2.275   3.235   5.447  0.1960  0.3726 -0.4614
   16bbb     H3  440   2.292   3.223   5.340  1.1651 -1.7700 -0.1053
   16bbb     H4  441   2.372   3.234   5.499  1.7331  2.4175 -3.0484
   16bbb     C3  442   2.264   2.991   5.482 -0.2135 -0.0933  0.1656
   16bbb     H5  443   2.213   2.915   5.543 -0.0904 -0.5417 -0.2837
   16bbb     H6  444   2.370   2.993   5.509  0.8862 -1.9001 -3.4907
   16bbb     C4  445   2.259   2.956   5.331 -0.2327 -0.3497 -0.1870
   16bbb     H7  446   2.299   2.855   5.321  4.3637  1.2946 -0.9947
   16bbb     H8  447   2.328   3.020   5.274 -1.6637  1.5242  0.0542
   16bbb     C5  448   2.029   3.058   5.667  0.0977 -0.3623 -0.0538
   16bbb     H9  449   2.059   2.952   5.677  0.5775 -0.0300  2.7169
   16bbb    H10  450   1.965   3.064   5.578  1.5992 -1.5361 -1.2889
   16bbb     C6  451   2.206   3.371   5.449  0.1776 -0.9972 -0.4364
   16bbb    H11  452   2.279   3.438   5.402  1.0761 -1.3799  0.3719
   16bbb    H12  453   2.203   3.407   5.552 -0.6073  0.1795 -0.8481
   16bbb     C7  454   2.123   2.975   5.261  0.0897  0.4490 -0.4300
   16bbb    H13  455   2.138   2.961   5.153  0.4579  2.4187 -0.6708
   16bbb    H14  456   2.095   3.076   5.293  0.3800  0.3354  0.1932
   16bbb     C8  457   2.060   3.370   5.395  0.8327  0.0126  0.1209
   16bbb    H15  458   2.004   3.280   5.421 -0.8241  0.7204 -0.8766
   16bbb    H16  459   2.068   3.365   5.286 -1.1736 -0.6904 -0.0378
   16bbb     C9  460   1.961   3.100   5.795  0.6266 -0.0634 -0.4502
   16bbb    H17  461   2.039   3.111   5.872  1.6396  2.1689 -1.7032
   16bbb    H18  462   1.893   3.020   5.827  0.5164  0.7915  1.6536
   16bbb     O1  463   2.031   2.878   5.314  0.1214 -0.0585 -0.4010
   17bbb     N1  464   2.089   2.632   4.901 -0.2786 -0.2323  0.5764
   17bbb     C1  465   1.974   2.721   4.875  0.2169 -0.2590  0.2225
   17bbb     H1  466   1.983   2.769   4.777 -1.0114 -0.1087  0.1679
   17bbb     H2  467   1.972   2.800   4.952 -2.1241 -0.1282  0.0925
   17bbb     C2  468   2.095   2.499   4.837 -0.0627  0.1005  0.0056
   17bbb     H3  469   2.003   2.452   4.873 -0.4943  0.6660 -0.3390
   17bbb     H4  470   2.179   2.440   4.875  0.2058  0.1403 -0.5125
   17bbb     C3  471   2.220   2.705   4.906  0.6502 -0.3192 -1.0302
   17bbb     H5  472   2.190   2.808   4.929  1.6808 -0.2762  0.2605
   17bbb     H6  473   2.275   2.696   4.812  1.0343 -1.7107 -0.7008
   17bbb     C4  474   2.291   2.659   5.033 -0.1795  0.0605 -0.5905
   17bbb     H7  475   2.308   2.551   5.033 -0.4100  0.0238 -0.5116
   17bbb     H8  476   2.238   2.680   5.126  1.2495  0.9700  0.0662
   17bbb     C5  477   1.844   2.651   4.894  0.1183  0.3661 -0.2642
   17bbb     H9  478   1.837   2.598   4.990 -0.2167  1.7873  0.5210
   17bbb    H10  479   1.817   2.592   4.805 -0.8734  2.2256 -1.2544
   17bbb     C6  480   2.099   2.499   4.682  0.1452  0.1189 -0.5940
   17bbb    H11  481   2.181   2.562   4.647  1.2284 -0.5972  0.5945
   17bbb    H12  482   2.009   2.553   4.648 -0.1670 -0.8319 -1.3279
   17bbb     C7  483   2.432   2.727   5.049 -0.3745  0.3750  0.0053
   17bbb    H13  484   2.449   2.835   5.036 -0.5048  0.4303  0.2874
   17bbb    H14  485   2.504   2.679   4.982  0.3260  1.9999 -0.4661
   17bbb     C8  486   2.109   2.351   4.627  0.1764 -0.6264 -0.6331
   17bbb    H15  487   2.012   2.299   4.627  1.6176 -3.4902 -1.3562
   17bbb    H16  488   2.172   2.286   4.689  1.5241  0.6250 -0.6563
   17bbb     C9  489   1.724   2.751   4.902 -0.6133  0.3817 -1.2668
   17bbb    H17  490   1.735   2.799   4.999  2.0234  0.3425 -1.4804
   17bbb    H18  491   1.629   2.695   4.899 -1.2139  1.3073 -0.1840
   17bbb     O1  492   2.478   2.695   5.179 -0.4213  0.3730 -0.4787
   18bbb     N1  493   2.915   1.888   5.050 -0.3468  0.8486 -0.0055
   18bbb     C1  494   2.826   1.960   4.950  0.6025  0.4689  0.1677
   18bbb     H1  495   2.766   2.029   5.011  2.5541  1.2340  1.3397
   18bbb     H2  496   2.745   1.892   4.923  0.2321  0.3987  1.3902
   18bbb     C2  497   2.973   1.758   5.002  0.0516 -0.1028  0.2842
   18bbb     H3  498   3.033   1.710   5.080  0.6948  0.9704  0.4684
   18bbb     H4  499   3.046   1.761   4.919 -1.3685 -1.8409 -1.1246
   18bbb     C3  500   3.015   1.965   5.132 -0.3243 -0.1656 -0.0885
   18bbb     H5  501   3.093   2.009   5.070 -0.9647  1.2428  0.0695
   18bbb     H6  502   3.055   1.899   5.210 -0.3960  1.9730  1.8701
   18bbb     C4  503   2.952   2.079   5.211  0.7095 -0.4545  0.0394
   18bbb     H7  504   2.885   2.040   5.288  1.6555 -1.2241  0.4954
   18bbb     H8  505   2.898   2.143   5.140  1.8281  0.3984 -0.0676
   18bbb     C5  506   2.891   2.018   4.827 -0.6673 -0.0782 -1.2700
   18bbb     H9  507   2.974   1.952   4.800  0.3179  0.1708  0.9045
   18bbb    H10  508   2.942   2.113   4.851 -0.5885 -0.2733 -0.6397
   18bbb     C6  509   2.869   1.649   4.962 -0.7463 -0.3358 -0.2981
   18bbb    H11  510   2.910   1.553   4.930  0.2495  0.2998 -0.9825
   18bbb    H12  511   2.824   1.683   4.868 -0.1450 -0.5795 -0.6790
   18bbb     C7  512   3.047   2.168   5.288 -0.3781 -0.4884  0.1523
   18bbb    H13  513   3.145   2.188   5.242  0.5544 -0.9838  1.8370
   18bbb    H14  514   3.070   2.123   5.386  2.5676 -1.7759 -0.9957
   18bbb     C8  515   2.760   1.632   5.075  0.0131  0.4942  0.0306
   18bbb    H15  516   2.702   1.724   5.085  0.8832  1.0083  0.5051
   18bbb    H16  517   2.808   1.607   5.171  0.9974 -0.8090 -0.7719
   18bbb     C9  518   2.797   2.027   4.715 -0.2054  0.0252  0.2389
   18bbb    H17  519   2.718   2.100   4.739  0.5647  0.7294  0.6537
   18bbb    H18  520   2.747   1.933   4.687 -1.2992  1.0605 -1.5041
   18bbb     O1  521   2.989   2.300   5.295  0.1146 -0.4517 -0.2204
   19bbb     N1  522   3.752   2.041   4.636 -0.5328 -0.4550  0.3130
   19bbb     C1  523   3.652   1.936   4.604  0.1556 -0.4814  0.2345
   19bbb     H1  524   3.606   1.945   4.505 -1.8782 -0.8611  1.0919
   19bbb     H2  525   3.572   1.939   4.679  0.0084 -1.7492  0.1440
   19bbb     C2  526   3.693   2.172   4.590 -0.1789 -1.2500 -0.1136
   19bbb     H3  527   3.620   2.204   4.665 -2.6698 -1.3238 -2.3750
   19bbb     H4  528   3.632   2.168   4.500 -3.7407  0.2985  2.0061
   19bbb     C3  529   3.799   2.051   4.778  0.1821  0.0782  0.3005
   19bbb     H5  530   3.862   2.138   4.803  0.0747  0.1132  0.4558
   19bbb     H6  531   3.861   1.963   4.799  0.7854  1.0742  3.1739
   19bbb     C4  532   3.678   2.049   4.882  0.1510  0.3914 -0.1193
   19bbb     H7  533   3.638   1.947   4.893  0.4774  0.4093  1.4295
   19bbb     H8  534   3.596   2.108   4.840  0.1214  1.5604  1.4893
   19bbb     C5  535   3.708   1.793   4.617 -0.1559 -0.3444  0.2453
   19bbb     H9  536   3.757   1.785   4.715  2.2579  1.1349 -0.7460
   19bbb    H10  537   3.776   1.771   4.534  1.2198  1.6470  0.7845
   19bbb     C6  538   3.800   2.288   4.582  0.1482  0.1143  0.0283
   19bbb    H11  539   3.898   2.241   4.564  1.7535  3.7532 -1.7199
   19bbb    H12  540   3.812   2.336   4.680  0.1635 -0.6815  0.4260
   19bbb     C7  541   3.707   2.089   5.030  0.5148 -0.0221  0.2584
   19bbb    H13  542   3.735   2.194   5.042  1.0207 -0.1345  0.1035
   19bbb    H14  543   3.804   2.053   5.066  1.4576  2.1803  0.1015
   19bbb     C8  544   3.783   2.389   4.465  0.0622  0.1047 -0.3907
   19bbb    H15  545   3.809   2.339   4.371 -1.1766 -3.3471  0.9353
   19bbb    H16  546   3.854   2.471   4.481 -1.6248  1.5018  0.3159
   19bbb     C9  547   3.596   1.685   4.618  0.4262 -0.3510 -0.0699
   19bbb    H17  548   3.536   1.686   4.526  0.3483 -1.7492 -0.0483
   19bbb    H18  549   3.531   1.705   4.704  1.2814 -0.2854  0.5712
   19bbb     O1  550   3.585   2.058   5.098  1.2120 -0.1060 -0.3534
   20bbb     N1  551   3.774   1.668   5.209 -0.2052  0.0242  0.5722
   20bbb     C1  552   3.873   1.641   5.106 -0.2598 -0.3393  0.4748
   20bbb     H1  553   3.852   1.548   5.052  0.9995 -0.4464  0.1467
   20bbb     H2  554   3.969   1.619   5.154 -1.2240  0.5097  2.9825
   20bbb     C2  555   3.642   1.699   5.152  0.4753  0.1937 -0.0599
   20bbb     H3  556   3.650   1.799   5.108 -0.4180  0.2358 -0.1592
   20bbb     H4  557   3.564   1.706   5.229  1.0531  0.7825  0.4845
   20bbb     C3  558   3.814   1.783   5.294  0.6355 -0.2578  0.5192
   20bbb     H5  559   3.732   1.798   5.365 -0.7976  0.9430 -1.2837
   20bbb     H6  560   3.827   1.876   5.236  0.9131 -0.6080  0.0100
   20bbb     C4  561   3.951   1.788   5.364 -0.3849  0.1439 -0.4792
   20bbb     H7  562   4.029   1.810   5.290  0.5515 -1.4989 -0.0307
   20bbb     H8  563   3.979   1.690   5.404  0.9157 -0.4664 -2.7566
   20bbb     C5  564   3.899   1.748   4.991  0.0705 -0.0222 -0.6414
   20bbb     H9  565   3.946   1.836   5.035 -1.1027  1.3778 -2.0727
   20bbb    H10  566   3.803   1.777   4.947  0.1208  1.2104  0.0130
   20bbb     C6  567   3.600   1.597   5.041  0.8414  0.6734 -0.3469
   20bbb    H11  568   3.660   1.586   4.950 -0.3635 -0.1486 -1.0620
   20bbb    H12  569   3.498   1.611   5.003  1.1461  0.4309 -1.2521
   20bbb     C7  570   3.958   1.890   5.476  0.3424 -0.0958  0.7648
   20bbb    H13  571   3.935   1.985   5.426 -0.9365 -0.3832  0.7544
   20bbb    H14  572   4.053   1.892   5.530  0.1036  2.4475  1.2420
   20bbb     C8  573   3.585   1.461   5.110  0.0291  0.6211  0.4197
   20bbb    H15  574   3.493   1.462   5.169 -0.8025 -2.0730 -0.6659
   20bbb    H16  575   3.664   1.451   5.185 -1.9715 -0.5036  2.5024
   20bbb     C9  576   3.985   1.697   4.878  0.2746  0.1661  0.2091
   20bbb    H17  577   4.005   1.775   4.803  1.5120 -0.6808 -0.3660
   20bbb    H18  578   3.946   1.607   4.828  4.0122 -0.3466 -2.1815
   20bbb     O1  579   3.857   1.860   5.567  0.3638 -0.2976  0.1223
   21bbb     N1  580   2.328   2.406   5.431  0.9558  0.1456 -0.1682
   21bbb     C1  581   2.213   2.429   5.339 -0.8456 -0.5144  0.3374
   21bbb     H1  582   2.251   2.499   5.264 -0.2299 -0.3841  0.7698
   21bbb     H2  583   2.133   2.493   5.377 -0.5388  1.8938 -2.7013
   21bbb     C2  584   2.438   2.345   5.355  0.2061 -0.3754  0.0076
   21bbb     H3  585   2.482   2.420   5.287  0.1297  2.1431  2.5685
   21bbb     H4  586   2.411   2.253   5.301 -0.2645 -1.1646  1.5370
   21bbb     C3  587   2.362   2.527   5.501 -0.5307  0.2811  0.1143
   21bbb     H5  588   2.389   2.601   5.426 -0.1755  0.3661  0.3259
   21bbb     H6  589   2.450   2.515   5.566  0.1167  0.1183 -0.7832
   21bbb     C4  590   2.245   2.589   5.591  0.2323  0.3188  0.2181
   21bbb     H7  591   2.166   2.638   5.532  0.0762 -0.3442 -0.1364
   21bbb     H8  592   2.284   2.677   5.643 -3.6024  2.0701  0.4908
   21bbb     C5  593   2.145   2.307   5.268 -0.5392 -0.0936  0.5391
   21bbb     H9  594   2.110   2.242   5.349  0.7637  0.1559  1.3540
   21bbb    H10  595   2.212   2.255   5.199 -0.1774  0.8681  0.1400
   21bbb     C6  596   2.546   2.295   5.447 -0.2627  0.0524 -0.1640
   21bbb    H11  597   2.501   2.248   5.535 -0.5140  1.0424  0.2494
   21bbb    H12  598   2.600   2.376   5.498  0.8732  0.0578 -1.3205
   21bbb     C7  599   2.178   2.495   5.691 -0.6050  0.1445  0.3228
   21bbb    H13  600   2.123   2.418   5.635  1.2801 -1.1401  0.1366
   21bbb    H14  601   2.115   2.538   5.769 -0.3927 -0.6797  0.9638
   21bbb     C8  602   2.655   2.213   5.378 -0.6598  0.1284  0.1601
   21bbb    H15  603   2.735   2.194   5.452 -1.0357 -1.6151  0.1692
   21bbb    H16  604   2.702   2.273   5.300 -1.0169 -0.4998 -0.5519
   21bbb     C9  605   2.028   2.373   5.181  0.3640  0.8400 -0.2497
   21bbb    H17  606   2.056   2.429   5.091 -0.4629 -0.8954 -1.6338
   21bbb    H18  607   1.980   2.455   5.237  1.0846 -0.3295  2.2011
   21bbb     O1  608   2.288   2.419   5.751  0.4387  0.0853  0.3440
   22bbb     N1  609   3.390   2.234   6.018 -0.5880 -0.0029  0.0923
   22bbb     C1  610   3.469   2.334   6.088  0.3009 -0.0280  0.1798
   22bbb     H1  611   3.533   2.276   6.155  1.3453  1.6135  0.6791
   22bbb     H2  612   3.410   2.406   6.145  1.2806 -0.7507  2.1946
   22bbb     C2  613   3.315   2.157   6.124 -0.0328  0.0065  0.0880
   22bbb     H3  614   3.378   2.126   6.207 -0.4211  0.4630  0.5635
   22bbb     H4  615   3.285   2.065   6.072  0.4397  1.4159 -2.9032
   22bbb     C3  616   3.312   2.284   5.902  0.0230  1.0341  0.6357
   22bbb     H5  617   3.352   2.375   5.856 -0.5273  1.8589  1.7439
   22bbb     H6  618   3.216   2.316   5.944 -0.7084 -1.6715  1.2158
   22bbb     C4  619   3.289   2.175   5.788 -0.2206  0.0994 -0.4389
   22bbb     H7  620   3.255   2.081   5.835  1.6239  0.8062  2.6452
   22bbb     H8  621   3.381   2.142   5.738  0.3281 -1.1936  1.3092
   22bbb     C5  622   3.575   2.405   6.004 -0.6027  0.2884 -0.4521
   22bbb     H9  623   3.522   2.472   5.935 -0.3249  0.7560 -0.2118
   22bbb    H10  624   3.631   2.322   5.960 -0.6580 -0.3656  0.6748
   22bbb     C6  625   3.189   2.232   6.187  0.2711  0.1773 -0.4696
   22bbb    H11  626   3.119   2.264   6.109 -0.2577 -1.1127 -0.5443
   22bbb    H12  627   3.211   2.325   6.242 -2.4079  2.1392 -2.3981
   22bbb     C7  628   3.187   2.213   5.683 -0.0267 -0.0175 -0.6060
   22bbb    H13  629   3.174   2.131   5.611  0.3078 -1.8734  1.3466
   22bbb    H14  630   3.217   2.304   5.629  0.6495  0.9122  1.2482
   22bbb     C8  631   3.102   2.146   6.291 -0.8623 -0.5047  1.1421
   22bbb    H15  632   3.032   2.077   6.243  0.2375 -0.7338 -0.2214
   22bbb    H16  633   3.046   2.211   6.358 -0.4415  0.4383  0.5922
   22bbb     C9  634   3.677   2.491   6.090 -0.3871 -0.1624 -0.0151
   22bbb    H17  635   3.726   2.431   6.168  2.1543  1.9414  0.1383
   22bbb    H18  636   3.624   2.565   6.152 -0.6747  0.2470 -0.7334
   22bbb     O1  637   3.058   2.232   5.754 -0.0352  0.1388  0.3626
   23ccc     C1  638   1.107   2.986   4.650 -0.5928  0.1860  0.2883
   23ccc     H1  639   1.158   2.897   4.611  1.1203  1.4168 -0.3561
   23ccc     H2  640   1.021   2.955   4.712  1.2426 -0.0513  2.8828
   23ccc     C2  641   1.208   3.063   4.735 -0.3835 -0.5956  0.1381
   23ccc     H3  642   1.299   3.092   4.681  0.4066 -0.8647  1.2816
   23ccc     H4  643   1.157   3.151   4.776 -0.7513 -0.6484 -0.2078
   23ccc     C3  644   1.247   2.969   4.852  0.3802  0.5457  0.1669
   23ccc     H5  645   1.303   2.886   4.808  0.5521  1.5874 -1.7072
   23ccc     H6  646   1.151   2.931   4.890 -0.0010  1.0052 -0.3024
   23ccc     N1  647   1.055   3.067   4.538 -0.7840  0.6926 -0.2149
   23ccc     H7  648   1.038   3.152   4.591  0.3449 -0.9943  3.1863
   23ccc     H8  649   1.140   3.099   4.493  0.1061 -1.0307  0.1501
   23ccc     O1  650   1.321   3.041   4.956  0.0553 -0.0161 -0.4125
   24ccc     C1  651   1.276   2.759   5.699  0.2567  0.1895 -0.1995
   24ccc     H1  652   1.331   2.678   5.650 -1.5317 -1.3091  0.1665
   24ccc     H2  653   1.301   2.767   5.805 -2.4204 -1.1791  0.6275
   24ccc     C2  654   1.317   2.891   5.623  0.1463  0.0225 -0.1273
   24ccc     H3  655   1.258   2.905   5.532  1.9371  2.0258 -1.0457
   24ccc     H4  656   1.291   2.974   5.689 -0.7705  0.4583 -1.0110
   24ccc     C3  657   1.467   2.898   5.582  0.2971 -0.4404 -0.4856
   24ccc     H5  658   1.482   2.842   5.489  0.6180  1.5924 -1.7306
   24ccc     H6  659   1.532   2.874   5.667 -0.2695 -1.0765 -0.2323
   24ccc     N1  660   1.134   2.724   5.701  0.5365  0.0839 -0.5973
   24ccc     H7  661   1.124   2.691   5.605  0.9148  1.0192 -0.9603
   24ccc     H8  662   1.143   2.645   5.765  0.4279  2.0033  1.9447
   24ccc     O1  663   1.497   3.032   5.549  0.2591 -0.4362 -0.2748
   25ccc     C1  664   2.235   1.868   4.925  0.0395 -0.3500  0.6083
   25ccc     H1  665   2.264   1.874   5.031  4.2523 -3.6431 -0.0874
   25ccc     H2  666   2.131   1.904   4.927 -0.2273 -0.8855 -1.4179
   25ccc     C2  667   2.318   1.957   4.836 -0.5897  0.3318 -0.2598
   25ccc     H3  668   2.423   1.924   4.842 -0.2399  1.0561 -1.8163
   25ccc     H4  669   2.292   1.946   4.730 -2.5624 -0.8502  0.3036
   25ccc     C3  670   2.300   2.107   4.869 -0.2216  0.4563  0.3530
   25ccc     H5  671   2.195   2.133   4.849 -0.4916 -1.3834 -0.9068
   25ccc     H6  672   2.364   2.156   4.795 -0.4787  0.7310  0.3132
   25ccc     N1  673   2.237   1.733   4.880 -0.7599  0.0357  0.5291
   25ccc     H7  674   2.194   1.745   4.789  1.0034  0.5880 -0.2794
   25ccc     H8  675   2.336   1.720   4.861 -0.8783  0.6755 -0.5656
   25ccc     O1  676   2.348   2.131   5.001  0.0530 -0.5171 -0.0077
   26ccc     C1  677   2.919   2.998   4.973  0.6356 -0.2438  0.2058
   26ccc     H1  678   2.882   3.004   4.870 -1.0312  0.3479  0.8045
   26ccc     H2  679   2.869   2.923   5.036  2.0818  0.4463  2.3118
   26ccc     C2  680   3.064   2.963   4.982 -0.8509  0.0674  0.1142
   26ccc     H3  681   3.123   3.037   4.926 -0.8856 -0.4695 -0.6409
   26ccc     H4  682   3.088   2.978   5.088  0.0312 -0.3835 -0.0066
   26ccc     C3  683   3.088   2.821   4.921 -0.5601 -0.5024 -0.0308
   26ccc     H5  684   3.189   2.781   4.939 -1.0912 -0.5429  3.7396
   26ccc     H6  685   3.076   2.818   4.812 -2.2779 -0.8356  0.1462
   26ccc     N1  686   2.888   3.126   5.044  0.3463  0.4341  0.4698
   26ccc     H7  687   2.787   3.141   5.044 -0.3396 -3.1478  1.0218
   26ccc     H8  688   2.904   3.093   5.139 -1.4095 -0.1655  0.5968
   26ccc     O1  689   2.988   2.732   4.968 -0.1560  0.0455  0.6583
   27ccc     C1  690   3.175   1.333   4.821  0.3385 -0.1290  0.1166
   27ccc     H1  691   3.069   1.333   4.795  0.5524  1.0970 -0.8119
   27ccc     H2  692   3.236   1.308   4.733  1.4648 -1.2184  1.1711
   27ccc     C2  693   3.225   1.468   4.882  0.5249  0.0460  0.4497
   27ccc     H3  694   3.149   1.503   4.953  0.6078 -1.6353  1.4265
   27ccc     H4  695   3.318   1.459   4.938  0.6484 -0.2401  0.2044
   27ccc     C3  696   3.229   1.579   4.776  0.1787 -0.4040 -0.1465
   27ccc     H5  697   3.132   1.592   4.727  1.1275  2.0536 -1.5664
   27ccc     H6  698   3.298   1.547   4.697  1.4649 -1.1233  1.2132
   27ccc     N1  699   3.192   1.227   4.918 -0.2015 -0.1772  0.1460
   27ccc     H7  700   3.178   1.141   4.865  1.8902  1.1150 -2.8282
   27ccc     H8  701   3.293   1.229   4.934 -0.1104 -0.9214 -0.2855
   27ccc     O1  702   3.279   1.699   4.835  0.1648 -0.3872 -0.9628
   28ccc     C1  703   3.397   2.697   5.355  1.0219 -0.4066  0.1857
   28ccc     H1  704   3.345   2.606   5.386  0.9172 -0.7992 -1.0905
   28ccc     H2  705   3.505   2.686   5.366  1.0808 -0.7204 -0.6541
   28ccc     C2  706   3.349   2.739   5.212 -0.3065 -0.7777 -0.4829
   28ccc     H3  707   3.241   2.755   5.211 -0.0462  1.1719 -0.6211
   28ccc     H4  708   3.390   2.839   5.194 -0.1775 -0.6762  0.3275
   28ccc     C3  709   3.405   2.626   5.122 -0.3659 -0.5902  0.3059
   28ccc     H5  710   3.515   2.622   5.121 -0.3689 -1.6628  1.5474
   28ccc     H6  711   3.368   2.640   5.020 -1.4653  1.7169  0.9597
   28ccc     N1  712   3.369   2.801   5.456  0.8902 -0.2175 -0.0986
   28ccc     H7  713   3.396   2.755   5.542  3.2229 -2.0166 -1.6514
   28ccc     H8  714   3.446   2.866   5.439 -0.0582  0.6282 -1.3645
   28ccc     O1  715   3.356   2.495   5.167 -0.5000 -0.2254 -0.0671
   29ccc     C1  716   3.822   2.446   5.183  0.1359  0.1864  0.4361
   29ccc     H1  717   3.796   2.547   5.216 -0.2289  1.1810 -2.5515
   29ccc     H2  718   3.737   2.382   5.158 -1.5187  2.5979 -0.5396
   29ccc     C2  719   3.911   2.458   5.061 -0.4661  0.2316  0.8089
   29ccc     H3  720   4.004   2.516   5.069 -0.8899  1.3081 -1.4240
   29ccc     H4  721   3.941   2.359   5.023 -0.1977  1.5909 -2.8421
   29ccc     C3  722   3.828   2.529   4.951 -0.1183  0.0896  0.3606
   29ccc     H5  723   3.881   2.523   4.855 -0.5760 -0.4672  0.1380
   29ccc     H6  724   3.815   2.635   4.975  1.0275  1.3120 -3.6506
   29ccc     N1  725   3.888   2.374   5.291  0.2626 -0.3327  0.6992
   29ccc     H7  726   3.945   2.443   5.340  0.6462 -0.3614  0.2991
   29ccc     H8  727   3.809   2.361   5.353 -1.4429 -0.7515 -1.4403
   29ccc     O1  728   3.703   2.481   4.926 -0.5406  0.5992  0.1882
   30ccc     C1  729   3.315   3.399   5.271  0.2044  0.2814 -0.5771
   30ccc     H1  730   3.397   3.410   5.343 -1.1311  0.8169  0.9218
   30ccc     H2  731   3.343   3.427   5.168  0.3086  2.4170 -0.0190
   30ccc     C2  732   3.259   3.256   5.288 -0.0465 -0.7911 -0.3930
   30ccc     H3  733   3.238   3.236   5.394  0.8330  0.3149  0.0191
   30ccc     H4  734   3.161   3.254   5.240 -0.5027  1.0184  0.3779
   30ccc     C3  735   3.355   3.143   5.236  0.2434 -0.5668 -0.8271
   30ccc     H5  736   3.316   3.044   5.261 -1.8079  0.1540 -0.9408
   30ccc     H6  737   3.455   3.154   5.279  0.0895  1.0736 -0.8250
   30ccc     N1  738   3.200   3.480   5.305  0.1558 -0.1368  0.1418
   30ccc     H7  739   3.165   3.454   5.397  2.7900  0.1387  1.3224
   30ccc     H8  740   3.240   3.574   5.313 -1.5873  0.7164 -0.7149
   30ccc     O1  741   3.372   3.157   5.095  0.1319 -0.3460 -0.3519
   31ccc     C1  742   1.925   2.888   4.239 -0.1724 -0.1449  0.6441
   31ccc     H1  743   1.982   2.863   4.149 -1.9647 -3.3205  0.2364
   31ccc     H2  744   1.817   2.885   4.221 -0.2316  0.0903  0.9506
   31ccc     C2  745   1.973   2.784   4.341  0.3371  0.1189  0.7473
   31ccc     H3  746   2.082   2.786   4.350  0.3766  0.6359  0.2748
   31ccc     H4  747   1.938   2.811   4.441  2.1961  2.3749  0.8899
   31ccc     C3  748   1.941   2.644   4.298 -0.1338  0.2899 -0.0491
   31ccc     H5  749   2.002   2.572   4.354 -0.8931 -1.0586 -0.8982
   31ccc     H6  750   1.970   2.634   4.192  3.0221  0.7992  0.6771
   31ccc     N1  751   1.957   3.028   4.278  0.1556 -0.5978  0.2533
   31ccc     H7  752   2.052   3.022   4.314  0.7838 -1.5537 -1.4465
   31ccc     H8  753   1.957   3.082   4.192 -0.7054  0.8327  1.1167
   31ccc     O1  754   1.805   2.614   4.317  0.9204  0.7427 -0.3130
   32ccc     C1  755   1.557   2.995   4.042  1.1950  0.4268  0.3087
   32ccc     H1  756   1.663   2.988   4.072  1.7513  0.3704 -1.5685
   32ccc     H2  757   1.535   2.937   3.952  1.4194 -0.5014  0.8325
   32ccc     C2  758   1.461   2.945   4.150 -0.2125 -0.6124  0.0626
   32ccc     H3  759   1.446   3.015   4.232 -0.2013  1.1031 -1.3458
   32ccc     H4  760   1.364   2.934   4.101 -0.0200  0.1095 -0.4920
   32ccc     C3  761   1.517   2.809   4.199 -0.8284  0.2503  0.2512
   32ccc     H5  762   1.608   2.838   4.253 -1.7143  2.0741  0.8162
   32ccc     H6  763   1.556   2.748   4.117  1.0510 -0.8503  1.8835
   32ccc     N1  764   1.528   3.135   4.009  0.0347 -0.2022  0.3311
   32ccc     H7  765   1.594   3.169   3.939  0.6711 -0.2275  0.9077
   32ccc     H8  766   1.436   3.146   3.966 -0.6255  2.0809  2.1160
   32ccc     O1  767   1.419   2.734   4.277  0.0110 -0.2516 -0.1894
   33ccc     C1  768   1.987   3.754   5.546 -0.3370 -0.0942 -0.1751
   33ccc     H1  769   2.074   3.756   5.612 -0.5443  0.4131  0.0855
   33ccc     H2  770   2.014   3.725   5.444  0.7049  0.7027 -0.1404
   33ccc     C2  771   1.886   3.644   5.587 -0.7994  0.1247 -0.6800
   33ccc     H3  772   1.863   3.651   5.694 -1.9628 -1.3826 -0.7968
   33ccc     H4  773   1.787   3.648   5.540 -1.2424 -1.6878  0.0141
   33ccc     C3  774   1.936   3.496   5.564 -0.5871  0.0723  0.0449
   33ccc     H5  775   1.849   3.431   5.579 -0.9548  0.8646  1.5594
   33ccc     H6  776   2.017   3.466   5.632 -1.2346  1.1638  1.3395
   33ccc     N1  777   1.920   3.882   5.529  0.1550  0.2788  0.1163
   33ccc     H7  778   1.902   3.919   5.622 -2.4230  1.1510 -0.6465
   33ccc     H8  779   1.997   3.940   5.496  1.1370 -0.3842  1.1742
   33ccc     O1  780   1.981   3.485   5.428 -0.1375  0.0391  0.3714
   34ccc     C1  781   1.701   3.465   6.000  0.2447  0.2826 -0.0839
   34ccc     H1  782   1.723   3.432   6.102 -2.7399  0.2190  0.6344
   34ccc     H2  783   1.712   3.574   5.993 -0.6767  0.3239 -1.1733
   34ccc     C2  784   1.779   3.402   5.888 -0.0400  0.2015  0.4313
   34ccc     H3  785   1.725   3.436   5.799  0.3776  3.3669  1.2640
   34ccc     H4  786   1.879   3.446   5.882  0.6659 -1.2033  1.2748
   34ccc     C3  787   1.798   3.244   5.885 -0.1615 -0.0421 -0.5231
   34ccc     H5  788   1.709   3.181   5.879 -1.7502  1.9823  0.4974
   34ccc     H6  789   1.845   3.229   5.982  1.2808  0.5654 -1.0952
   34ccc     N1  790   1.558   3.441   5.988 -0.3061  0.3990  0.2233
   34ccc     H7  791   1.544   3.399   5.896  3.3441  0.4151 -0.4856
   34ccc     H8  792   1.536   3.360   6.044 -1.1259 -0.1883 -0.9020
   34ccc     O1  793   1.889   3.224   5.782 -0.2117 -0.3341  0.1024
   35ccc     C1  794   2.299   2.120   4.224  0.1173  0.3364 -0.4581
   35ccc     H1  795   2.372   2.154   4.150 -0.7232  2.9747 -0.1641
   35ccc     H2  796   2.351   2.043   4.283  1.5610  0.7294 -1.1757
   35ccc     C2  797   2.250   2.245   4.304 -0.2389 -0.1323 -0.3777
   35ccc     H3  798   2.326   2.323   4.295 -0.2676  0.2668  2.0816
   35ccc     H4  799   2.159   2.278   4.253  0.2217 -1.2088 -1.9921
   35ccc     C3  800   2.207   2.217   4.447 -0.1450 -0.2578 -0.2680
   35ccc     H5  801   2.283   2.164   4.506 -0.8153 -2.5497 -1.3310
   35ccc     H6  802   2.114   2.159   4.437  0.3691 -1.1564  0.1153
   35ccc     N1  803   2.191   2.059   4.154 -0.0528  0.3853 -0.1068
   35ccc     H7  804   2.172   2.137   4.091  1.9705  1.7081  0.7795
   35ccc     H8  805   2.238   1.991   4.094 -0.4159  2.9725 -3.6537
   35ccc     O1  806   2.174   2.347   4.496 -0.2811  0.3175 -0.5317
   36ccc     C1  807   1.720   3.091   4.576 -0.3056  0.5393 -0.5618
   36ccc     H1  808   1.683   3.181   4.627  0.7890  0.5301  0.3082
   36ccc     H2  809   1.824   3.068   4.603 -0.3556 -0.6879 -1.3682
   36ccc     C2  810   1.632   2.974   4.622 -0.2012  0.5267  0.5263
   36ccc     H3  811   1.530   2.998   4.591 -0.0928  0.3040 -0.0265
   36ccc     H4  812   1.655   2.886   4.561  1.5056  0.6319  0.9581
   36ccc     C3  813   1.638   2.939   4.771  0.1710  0.0621 -0.2344
   36ccc     H5  814   1.538   2.907   4.801 -1.7149  4.2573 -1.3062
   36ccc     H6  815   1.651   3.028   4.833  0.6625 -0.3143  0.2172
   36ccc     N1  816   1.709   3.088   4.430  1.0694  0.6803  0.1492
   36ccc     H7  817   1.802   3.074   4.390  1.3472  0.2133  0.9381
   36ccc     H8  818   1.660   3.002   4.407  1.9025 -0.0240  0.9331
   36ccc     O1  819   1.745   2.848   4.797  0.6069  0.4151 -0.2861
   37ccc     C1  820   2.438   1.391   4.984  0.0081  0.0802 -0.0781
   37ccc     H1  821   2.424   1.496   4.955  1.0371 -0.2133 -1.7614
   37ccc     H2  822   2.515   1.352   4.915 -1.3045 -0.8901 -1.0588
   37ccc     C2  823   2.501   1.381   5.120 -0.3644 -0.1257  0.0801
   37ccc     H3  824   2.421   1.376   5.195 -1.9900  0.4373 -1.5417
   37ccc     H4  825   2.562   1.291   5.136  1.6893  1.3376  0.9522
   37ccc     C3  826   2.590   1.494   5.155  0.0912 -0.0318 -1.2052
   37ccc     H5  827   2.652   1.471   5.243 -1.0958 -1.0164 -0.6001
   37ccc     H6  828   2.535   1.584   5.184 -1.4389 -1.4902  0.6672
   37ccc     N1  829   2.313   1.307   4.954  0.2315 -0.3788  0.2978
   37ccc     H7  830   2.239   1.367   4.990  1.4245  2.0090 -0.9663
   37ccc     H8  831   2.300   1.314   4.853 -0.3023 -0.4235  0.3633
   37ccc     O1  832   2.679   1.517   5.043  0.2854 -0.5473 -0.0134
   38ccc     C1  833   3.032   2.093   4.380  0.0912 -0.1820  0.6786
   38ccc     H1  834   3.093   2.170   4.331  0.6594 -0.7571  0.4582
   38ccc     H2  835   3.062   2.095   4.486 -0.8416  1.5818  0.9529
   38ccc     C2  836   2.886   2.140   4.374  0.4956 -0.3981  0.1493
   38ccc     H3  837   2.892   2.247   4.398  0.8492 -0.5837  0.9094
   38ccc     H4  838   2.846   2.124   4.273  0.5889  0.7711 -0.0930
   38ccc     C3  839   2.798   2.064   4.476  0.3309 -0.4202 -0.0449
   38ccc     H5  840   2.796   1.956   4.457  2.4136 -0.6268  0.5892
   38ccc     H6  841   2.700   2.112   4.478  0.3354 -0.3847 -0.5599
   38ccc     N1  842   3.057   1.957   4.332 -0.0053  0.1425 -0.2875
   38ccc     H7  843   3.159   1.955   4.331  0.0234  1.0777 -1.0053
   38ccc     H8  844   3.027   1.904   4.413  2.7970 -0.0113  0.7840
   38ccc     O1  845   2.859   2.082   4.600  0.0522  0.0656  0.1689
   39ccc     C1  846   3.414   2.669   4.223 -0.2129  1.1431 -0.3356
   39ccc     H1  847   3.441   2.772   4.249  1.4438  1.0039 -1.3656
   39ccc     H2  848   3.454   2.646   4.124  1.9868  0.8364  0.5505
   39ccc     C2  849   3.458   2.547   4.325  0.0359  0.1194 -0.4177
   39ccc     H3  850   3.409   2.574   4.418 -0.1160  0.2337 -0.5309
   39ccc     H4  851   3.427   2.449   4.285 -0.3460  0.1490 -0.1882
   39ccc     C3  852   3.612   2.536   4.355 -0.4658  0.0719 -0.0379
   39ccc     H5  853   3.645   2.634   4.394 -0.5585  0.2160 -0.3172
   39ccc     H6  854   3.671   2.528   4.263 -0.0605  0.5614  0.1743
   39ccc     N1  855   3.269   2.677   4.221  0.4112 -0.4440  0.5322
   39ccc     H7  856   3.235   2.695   4.315 -0.1280 -0.4034  0.3348
   39ccc     H8  857   3.243   2.758   4.165  3.2345  0.0676 -0.2052
   39ccc     O1  858   3.647   2.438   4.455  0.5073 -0.7337 -0.2536
   40ccc     C1  859   3.688   1.298   4.514  0.2539 -1.0514  0.4073
   40ccc     H1  860   3.598   1.286   4.452  0.8118 -2.6163 -0.1281
   40ccc     H2  861   3.753   1.377   4.474 -1.7022 -1.6163 -4.6447
   40ccc     C2  862   3.661   1.326   4.663 -0.1620  0.5328 -0.1019
   40ccc     H3  863   3.600   1.251   4.714 -0.4884  0.1683 -0.9974
   40ccc     H4  864   3.755   1.316   4.719  0.1104 -0.6828 -0.7317
   40ccc     C3  865   3.583   1.458   4.683 -0.9892 -0.1616 -0.0831
   40ccc     H5  866   3.558   1.475   4.788 -1.8072  0.4188 -0.3607
   40ccc     H6  867   3.484   1.456   4.635 -1.0090  2.3196 -0.2376
   40ccc     N1  868   3.752   1.177   4.499 -0.5616  0.3056  0.6498
   40ccc     H7  869   3.845   1.197   4.536  0.3600 -1.1697 -0.7494
   40ccc     H8  870   3.705   1.106   4.556  0.3292 -1.4253 -0.6462
   40ccc     O1  871   3.662   1.563   4.633  0.0398  0.2352  0.7494
   41ccc     C1  872   3.874   1.111   5.057  0.2273  0.4759  0.4112
   41ccc     H1  873   3.846   1.033   5.128  1.2547 -0.9999 -0.7244
   41ccc     H2  874   3.861   1.069   4.956 -1.7434  0.8308  0.4828
   41ccc     C2  875   3.792   1.242   5.068  0.7165 -0.0109  0.1452
   41ccc     H3  876   3.807   1.283   5.169 -0.4010 -0.5223  0.5525
   41ccc     H4  877   3.831   1.311   4.993  1.3276  1.6372  1.9063
   41ccc     C3  878   3.639   1.227   5.041 -0.1340  0.3002 -0.4983
   41ccc     H5  879   3.593   1.182   5.129  1.1219 -2.1827 -1.0096
   41ccc     H6  880   3.620   1.163   4.954 -0.5306  0.3855 -0.4737
   41ccc     N1  881   4.017   1.139   5.073  0.0463 -0.1802  0.7416
   41ccc     H7  882   4.022   1.221   5.012 -2.9631 -0.6689 -0.3125
   41ccc     H8  883   4.014   1.172   5.169  1.9661 -0.7294  1.0397
   41ccc     O1  884   3.593   1.359   5.004  0.8487 -0.7077 -0.2660
   42ccc     C1  885   4.317   1.890   4.961 -0.2175 -0.2541  1.3173
   42ccc     H1  886   4.361   1.936   4.871  0.5077  1.5996  2.5544
   42ccc     H2  887   4.210   1.914   4.965 -0.5781 -1.9488  3.1272
   42ccc     C2  888   4.331   1.740   4.957  0.1313 -0.1182  0.1772
   42ccc     H3  889   4.433   1.719   4.923  0.2627 -0.0975  0.5557
   42ccc     H4  890   4.328   1.696   5.058 -0.5328  1.6574  0.9696
   42ccc     C3  891   4.232   1.656   4.869  0.1904  0.2083 -0.0957
   42ccc     H5  892   4.282   1.558   4.864 -0.6183 -0.3876  2.2997
   42ccc     H6  893   4.210   1.690   4.767  0.4389 -2.3512 -1.0944
   42ccc     N1  894   4.391   1.967   5.063 -0.2365 -0.5847  0.2690
   42ccc     H7  895   4.486   1.974   5.026  1.1440 -0.7033  3.4338
   42ccc     H8  896   4.356   2.062   5.049 -3.9841 -2.0373 -1.3308
   42ccc     O1  897   4.111   1.657   4.942 -0.0535 -0.3403 -0.1886
   43ccc     C1  898   2.418   1.857   5.262  0.5262  0.2015  0.2472
   43ccc     H1  899   2.465   1.891   5.169 -1.1634  1.8880 -0.0495
   43ccc     H2  900   2.373   1.757   5.258  0.3347  0.3461 -2.3058
   43ccc     C2  901   2.518   1.858   5.377  0.5584 -0.3807 -1.0471
   43ccc     H3  902   2.459   1.831   5.466 -0.7197  1.6210 -1.2300
   43ccc     H4  903   2.596   1.780   5.371  0.3121 -0.5253 -2.7452
   43ccc     C3  904   2.578   1.994   5.429 -0.3163 -0.2156  0.5355
   43ccc     H5  905   2.673   1.976   5.480 -0.2182 -0.0156  0.4240
   43ccc     H6  906   2.507   2.029   5.505 -1.7153 -0.6083 -0.5427
   43ccc     N1  907   2.314   1.951   5.297  0.4363 -0.2322  0.2139
   43ccc     H7  908   2.325   1.960   5.398  1.6313  1.8363 -0.0410
   43ccc     H8  909   2.354   2.033   5.251 -0.5535  0.2503  0.2069
   43ccc     O1  910   2.599   2.091   5.326  0.0662  0.5510  0.3924
   44ccc     C1  911   1.738   2.056   5.119 -0.8251  0.4267  1.0552
   44ccc     H1  912   1.793   2.022   5.207 -2.7001 -1.7083  1.4872
   44ccc     H2  913   1.663   2.131   5.149 -0.5040  0.7182  1.1296
   44ccc     C2  914   1.834   2.094   5.005  0.2718  0.1594 -0.2886
   44ccc     H3  915   1.879   2.011   4.950 -0.2266  0.2864 -0.8986
   44ccc     H4  916   1.773   2.150   4.933  1.1820 -1.1098 -2.1203
   44ccc     C3  917   1.960   2.184   5.041 -0.0294  0.4333  0.2658
   44ccc     H5  918   1.995   2.243   4.955 -2.3013 -0.5255 -1.4135
   44ccc     H6  919   2.039   2.118   5.079 -1.0002 -1.4822 -0.9277
   44ccc     N1  920   1.664   1.933   5.075  0.2682  0.1228 -0.1182
   44ccc     H7  921   1.731   1.857   5.088 -1.2339 -1.2088  0.1561
   44ccc     H8  922   1.617   1.908   5.162 -1.6978  1.4186 -0.7483
   44ccc     O1  923   1.923   2.279   5.146 -0.0639 -0.4586 -0.5924
   45ccc     C1  924   3.300   2.140   6.652  0.3564  0.3443 -0.4091
   45ccc     H1  925   3.217   2.197   6.696  0.0566 -0.8852  0.6834
   45ccc     H2  926   3.381   2.133   6.726  0.4118  1.3674 -0.3570
   45ccc     C2  927   3.252   2.001   6.591 -0.3806 -0.9157  0.6039
   45ccc     H3  928   3.340   1.956   6.542  0.7649  1.1251  0.6991
   45ccc     H4  929   3.210   1.933   6.666 -1.3427  1.2845  2.1668
   45ccc     C3  930   3.144   2.009   6.489  0.1118  0.2280  0.0827
   45ccc     H5  931   3.062   2.064   6.537  0.8443  1.5376 -0.1119
   45ccc     H6  932   3.109   1.911   6.457  1.4689 -0.0668 -0.5822
   45ccc     N1  933   3.353   2.243   6.560  0.1803 -0.3392  0.2129
   45ccc     H7  934   3.435   2.201   6.519  0.8917 -0.7716  1.9646
   45ccc     H8  935   3.288   2.244   6.482  2.4938 -1.5125 -1.8501
   45ccc     O1  936   3.202   2.081   6.382 -0.3459 -0.4608  0.0746
   46ccc     C1  937   4.052   2.788   5.955 -0.2446  0.1501 -0.0093
   46ccc     H1  938   4.095   2.790   6.056  0.2686 -1.0767 -0.1906
   46ccc     H2  939   4.125   2.779   5.874 -0.9360 -0.8423 -0.5391
   46ccc     C2  940   3.957   2.671   5.930  0.1087 -0.6568  0.4655
   46ccc     H3  941   3.901   2.691   5.838  1.3113 -0.9176 -0.3330
   46ccc     H4  942   4.012   2.579   5.910  0.0078 -0.6182 -0.0117
   46ccc     C3  943   3.856   2.651   6.041 -0.7308 -0.1585  0.0167
   46ccc     H5  944   3.790   2.738   6.054 -1.0239  0.2790 -3.3941
   46ccc     H6  945   3.904   2.617   6.133  2.0044 -0.7768 -1.5376
   46ccc     N1  946   3.991   2.917   5.927  0.0899  0.3267 -0.3773
   46ccc     H7  947   3.938   2.928   6.014 -0.1057  0.1487 -0.4747
   46ccc     H8  948   4.070   2.975   5.954  0.0197  0.2428  0.0206
   46ccc     O1  949   3.766   2.544   5.993 -0.5722 -0.8394 -0.0155
   47SOL     OW  950   4.379   4.244   6.393 -0.3154  0.2395 -0.2740
   47SOL    HW1  951   4.406   4.171   6.448 -0.0037 -0.0501 -0.8091
   47SOL    HW2  952   4.449   4.254   6.328 -0.7838  0.4310 -0.7598
   48SOL     OW  953   6.910   7.631   1.677  0.6161 -0.2067  0.3332
   48SOL    HW1  954   6.903   7.539   1.652 -1.1732 -0.9590  3.0775
   48SOL    HW2  955   6.823   7.667   1.661  0.7511  0.4633  1.0301
   49SOL     OW  956   2.725   2.618   1.303 -0.4094  0.4526 -0.6048
   49SOL    HW1  957   2.780   2.629   1.380 -0.3993  0.5632 -0.6278
   49SOL    HW2  958   2.655   2.683   1.314 -2.1734 -1.5725  0.8683
   50SOL     OW  959   6.939   5.422   7.267 -0.1683  0.0695 -0.5854
   50SOL    HW1  960   6.944   5.471   7.185  1.0355 -0.2677 -0.7311
   50SOL    HW2  961   7.030   5.414   7.296 -0.3056 -1.9959 -0.5367
   51SOL     OW  962   4.467   3.134   5.489  0.2262  0.1525 -0.5092
   51SOL    HW1  963   4.539   3.071   5.490 -0.2186 -0.3918 -1.3626
   51SOL    HW2  964   4.439   3.137   5.397 -1.9480 -0.9608  0.0427
   52SOL     OW  965   0.735   4.450   4.841  0.4698  0.1075  0.5308
   52SOL    HW1  966   0.665   4.385   4.834 -1.5236  2.1536  0.2678
   52SOL    HW2  967   0.798   4.426   4.772 -1.4636 -0.1093 -1.2432
   53SOL     OW  968   2.682   4.433   0.912 -0.1545  0.3127  0.1142
   53SOL    HW1  969   2.666   4.453   1.004  2.1275 -0.2267  0.6937
   53SOL    HW2  970   2.667   4.338   0.905 -0.6067  0.4013 -0.1408
   54SOL     OW  971   6.660   0.111   0.167  0.2521  0.0678 -0.1037
   54SOL    HW1  972   6.735   0.079   0.117 -0.4857  0.8784 -1.8134
   54SOL    HW2  973   6.584   0.070   0.125 -0.4228  1.1412  0.0251
   55SOL     OW  974   5.806   0.048   0.844  0.1852  0.7147 -0.1741
   55SOL    HW1  975   5.814  -0.024   0.782  1.0335  0.4503  0.2202
   55SOL    HW2  976   5.762   0.117   0.795 -0.0070  0.1791 -0.7761
   56SOL     OW  977   3.869   2.699   4.205 -0.0804 -0.5993  0.3626
   56SOL    HW1  978   3.948   2.741   4.170 -0.7979  0.7436  0.3078
   56SOL    HW2  979   3.883   2.606   4.188  1.2502 -0.3396 -0.1362
   57SOL     OW  980   3.585   0.764   4.375 -0.3429  0.1931 -0.4697
   57SOL    HW1  981   3.658   0.823   4.357  0.5662  0.0969  2.4638
   57SOL    HW2  982   3.513   0.822   4.399 -0.7694  0.2262 -1.7782
   58SOL     OW  983   7.635   6.320   2.992 -0.1484  0.6927  0.1203
   58SOL    HW1  984   7.679   6.257   3.049  1.5778  0.5601 -1.2665
   58SOL    HW2  985   7.680   6.403   3.010  0.9077  0.5145 -1.4730
   59SOL     OW  986   2.417   5.394   6.359  0.1729 -0.4117  0.1506
   59SOL    HW1  987   2.508   5.422   6.353  0.0679 -0.1129 -0.0685
   59SOL    HW2  988   2.386   5.429   6.442  0.3608 -0.8217  0.3972
   60SOL     OW  989   1.657   4.771   2.890  0.4405  0.2543 -0.0428
   60SOL    HW1  990   1.618   4.706   2.948 -0.5635 -0.9501 -1.9726
   60SOL    HW2  991   1.745   4.785   2.927  0.6723 -2.1336  0.5029
   61SOL     OW  992   4.420   5.941   1.176  0.6207 -0.9564  0.0698
   61SOL    HW1  993   4.487   5.891   1.129  1.0428  1.3188 -1.9066
   61SOL    HW2  994   4.452   6.031   1.177 -1.5169 -0.1304  0.7950
   62SOL     OW  995   0.360   5.862   2.796 -0.2201 -0.2085 -0.1632
   62SOL    HW1  996   0.445   5.852   2.755 -0.7867 -1.7054 -1.0502
   62SOL    HW2  997   0.377   5.854   2.890  0.6958  0.2565 -0.2842
   63SOL     OW  998   2.479   2.604   6.352  0.1183 -0.2927 -0.4680
   63SOL    HW1  999   2.503   2.519   6.315  1.3832  0.0809 -0.5662
   63SOL    HW2 1000   2.383   2.606   6.349  0.0509 -1.8667 -0.0897
   64SOL     OW 1001   1.687   5.608   2.144 -0.6327  0.1504 -0.0279
   64SOL    HW1 1002   1.770   5.562   2.133 -0.9266 -0.2878 -0.4279
   64SOL    HW2 1003   1.631   5.546   2.191 -0.5691  0.6400  0.7142
   65SOL     OW 1004   5.500   4.958   6.745 -0.1313 -0.0454  0.4511
   65SOL    HW1 1005   5.581   4.921   6.779 -0.1329 -1.1719 -0.7114
   65SOL    HW2 1006   5.466   5.011   6.817  0.9239 -0.6676  1.4391
   66SOL     OW 1007   7.337   7.824   6.203 -0.2352 -0.2614 -0.4707
   66SOL    HW1 1008   7.336   7.825   6.299  1.6233 -0.1466 -0.4172
   66SOL    HW2 1009   7.353   7.733   6.180 -0.0020 -0.1764 -0.6506
   67SOL     OW 1010   1.054   1.010   4.752 -0.3105 -0.2273  0.2146
   67SOL    HW1 1011   0.967   1.046   4.767 -0.7644 -1.1862 -0.0853
   67SOL    HW2 1012   1.103   1.082   4.711 -1.1312  0.1145 -0.1767
   68SOL     OW 1013   6.542   0.480   3.221 -0.1882 -0.6377 -0.4226
   68SOL    HW1 1014   6.562   0.532   3.299 -0.7099  0.5524 -1.0501
   68SOL    HW2 1015   6.563   0.390   3.246  3.5453  0.1172 -0.1945
   69SOL     OW 1016   3.056   4.321   2.382 -0.7843 -0.0935  0.3024
   69SOL    HW1 1017   3.105   4.245   2.351  0.7136  0.6362  0.7877
   69SOL    HW2 1018   3.005   4.288   2.456 -0.7894 -0.8039 -0.0076
   70SOL     OW 1019   4.812   3.822   0.067  0.4700 -0.1090 -0.0197
   70SOL    HW1 1020   4.861   3.902   0.087  1.6307 -0.9581  0.6923
   70SOL    HW2 1021   4.875   3.767   0.019  0.2804 -1.2546  0.9749
   71SOL     OW 1022   0.562   7.492   2.298 -0.1376 -0.2385 -0.0925
   71SOL    HW1 1023   0.578   7.545   2.219 -0.1577  1.3775  0.9257
   71SOL    HW2 1024   0.646   7.493   2.344 -0.1313 -1.1516 -0.0661
   72SOL     OW 1025   7.284   6.007   5.865  0.6141  0.2896  0.3593
   72SOL    HW1 1026   7.330   5.965   5.793  0.2020 -0.6920  0.6552
   72SOL    HW2 1027   7.337   6.084   5.886  1.3090 -0.0063 -0.2793
   73SOL     OW 1028   2.171   5.853   1.714 -0.2777 -0.2158 -0.0436
   73SOL    HW1 1029   2.214   5.912   1.653  0.5165 -0.8328 -0.0973
   73SOL    HW2 1030   2.099   5.904   1.751 -1.1596 -0.0197 -1.9102
   74SOL     OW 1031   1.432   0.730   7.646  0.2027 -0.0475  0.0802
   74SOL    HW1 1032   1.514   0.680   7.651 -0.5615 -1.4188 -0.4772
   74SOL    HW2 1033   1.365   0.669   7.679 -0.6289  0.9546  0.2868
   75SOL     OW 1034   4.165   6.086   0.824  0.4760 -0.1233  0.4186
   75SOL    HW1 1035   4.184   6.167   0.872 -0.5016  0.7485 -0.6128
   75SOL    HW2 1036   4.112   6.114   0.749  0.7286 -1.6315 -0.3694
   76SOL     OW 1037   7.520   4.826   0.747 -0.2381 -0.2910 -0.1054
   76SOL    HW1 1038   7.471   4.755   0.706 -0.1537 -0.2449 -0.2879
   76SOL    HW2 1039   7.476   4.906   0.718 -0.0165 -0.2465 -0.3278
   77SOL     OW 1040   6.143   2.947   4.793 -0.0975  1.0522 -0.3579
   77SOL    HW1 1041   6.059   2.904   4.809 -1.2289  2.5644 -1.8240
   77SOL    HW2 1042   6.208   2.876   4.793 -1.5541 -0.3306 -0.4785
   78SOL     OW 1043   4.319   3.789   7.925 -0.2908 -0.1190  0.0730
   78SOL    HW1 1044   4.237   3.779   7.974 -0.0152 -2.0994  0.2118
   78SOL    HW2 1045   4.327   3.883   7.910 -0.8988  0.4921  2.9655
   79SOL     OW 1046   6.120   6.777   4.641 -0.0140  0.2287  0.1067
   79SOL    HW1 1047   6.115   6.685   4.614 -3.7665  0.6690 -1.4036
   79SOL    HW2 1048   6.082   6.778   4.729  1.3948  0.2086  0.7358
   80SOL     OW 1049   1.438   1.071   0.737 -0.2582  0.5283 -0.0561
   80SOL    HW1 1050   1.512   1.132   0.729 -0.8019  1.2815  0.4923
   80SOL    HW2 1051   1.361   1.128   0.745 -0.8868 -0.2445 -0.5022
   81SOL     OW 1052   2.416   5.840   7.984 -0.7209  0.7737  0.4117
   81SOL    HW1 1053   2.452   5.928   7.974  0.9517 -0.0502 -1.5426
   81SOL    HW2 1054   2.356   5.830   7.910  0.7190 -0.4312 -0.6330
   82SOL     OW 1055   0.169   5.121   7.735 -0.5861 -0.1733  0.7953
   82SOL    HW1 1056   0.102   5.069   7.691  0.4136 -0.7013 -0.1353
   82SOL    HW2 1057   0.203   5.065   7.804 -3.9397  1.5018  4.2038
   83SOL     OW 1058   6.154   3.935   5.270  0.1552 -0.1562  0.2211
   83SOL    HW1 1059   6.081   3.994   5.285  0.0346 -0.1138 -0.4815
   83SOL    HW2 1060   6.168   3.938   5.175  0.9362 -0.3168  0.3195
   84SOL     OW 1061   4.259   1.465   3.995  0.6252  0.0608 -0.0730
   84SOL    HW1 1062   4.208   1.384   3.989 -0.8522  1.0182 -1.3414
   84SOL    HW2 1063   4.348   1.436   4.016  0.7091 -2.1419 -2.7925
   85SOL     OW 1064   3.143   4.633   3.048  0.0166 -0.1311  0.2363
   85SOL    HW1 1065   3.144   4.543   3.017 -0.3194  0.0568 -0.3334
   85SOL    HW2 1066   3.113   4.684   2.973 -1.5967  0.2575  1.0994
   86SOL     OW 1067   7.936   6.005   2.685 -0.0004  0.1840 -0.1163
   86SOL    HW1 1068   7.860   6.019   2.627 -1.0758  0.3112  1.2719
   86SOL    HW2 1069   7.936   6.082   2.742  0.7643 -0.1618  0.3573
   87SOL     OW 1070   0.148   7.538   4.743 -0.5304 -0.0911 -0.3142
   87SOL    HW1 1071   0.145   7.482   4.821  0.7509 -0.0238 -0.1862
   87SOL    HW2 1072   0.233   7.581   4.749 -0.7651  0.5332 -1.3354
   88SOL     OW 1073   1.755   1.380   6.711 -0.0616 -0.4130 -0.0063
   88SOL    HW1 1074   1.813   1.318   6.668  1.1076 -0.1412  1.0994
   88SOL    HW2 1075   1.777   1.465   6.673 -1.8779 -0.6722 -1.7422
   89SOL     OW 1076   4.331   1.425   1.361 -0.2753  0.1048 -0.5378
   89SOL    HW1 1077   4.266   1.418   1.291  0.8621 -1.6379 -1.4902
   89SOL    HW2 1078   4.391   1.493   1.331 -0.2605 -0.0478 -0.8565
   90SOL     OW 1079   1.460   1.885   6.355  0.0075 -0.1623  0.3845
   90SOL    HW1 1080   1.466   1.904   6.449  0.2861 -0.2034  0.3782
   90SOL    HW2 1081   1.549   1.900   6.323 -0.5088  1.8260 -0.2563
   91SOL     OW 1082   4.871   0.401   7.249 -0.5179 -0.0338 -0.5107
   91SOL    HW1 1083   4.848   0.318   7.208  0.5242  0.5980 -2.4698
   91SOL    HW2 1084   4.930   0.444   7.187  0.1584  1.5364  1.1071
   92SOL     OW 1085   7.654   0.648   6.213 -0.2367 -0.2671 -0.0945
   92SOL    HW1 1086   7.669   0.554   6.220  1.5058 -0.2230 -2.1192
   92SOL    HW2 1087   7.658   0.680   6.303  1.9319 -1.7959  0.4258
   93SOL     OW 1088   0.262   2.879   4.422  0.1417  0.2478  0.0677
   93SOL    HW1 1089   0.222   2.944   4.479  1.4704 -0.6084  2.0635
   93SOL    HW2 1090   0.189   2.824   4.393 -0.4533  0.1856  1.6256
   94SOL     OW 1091   6.369   4.696   4.912  0.4141 -0.3901 -0.4679
   94SOL    HW1 1092   6.277   4.671   4.921  0.3451  0.1813  0.5132
   94SOL    HW2 1093   6.378   4.775   4.966  1.6058 -0.7591 -0.1097
   95SOL     OW 1094   2.217   1.350   1.589  0.1923 -0.3694  0.1579
   95SOL    HW1 1095   2.312   1.350   1.579  0.3712  1.0843  1.4293
   95SOL    HW2 1096   2.203   1.372   1.681 -1.3809 -1.4873  0.2255
   96SOL     OW 1097   3.343   4.085   2.864  0.3937 -0.0908  0.0040
   96SOL    HW1 1098   3.422   4.031   2.867  1.5024  1.4661  2.0201
   96SOL    HW2 1099   3.325   4.106   2.956 -1.8886  0.3244 -0.4659
   97SOL     OW 1100   7.694   5.527   1.543  0.1419 -0.4246  0.0616
   97SOL    HW1 1101   7.679   5.447   1.593 -1.6214 -1.3706 -1.8118
   97SOL    HW2 1102   7.788   5.545   1.552  0.3542 -2.0449  1.4462
   98SOL     OW 1103   2.825   7.296   7.628  0.2219  0.2491 -0.2221
   98SOL    HW1 1104   2.851   7.300   7.720 -0.0025  1.0458 -0.1815
   98SOL    HW2 1105   2.795   7.385   7.608  0.4971  0.1473 -1.1362
   99SOL     OW 1106   7.348   6.239   3.293  0.2910 -0.5864  0.7081
   99SOL    HW1 1107   7.257   6.207   3.290  0.9311 -2.4514 -0.4302
   99SOL    HW2 1108   7.364   6.275   3.206  0.4317  0.4711  1.1513
  100SOL     OW 1109   0.597   3.259   1.395 -0.5289  0.2594 -0.6310
  100SOL    HW1 1110   0.670   3.307   1.433 -0.4056  0.1146 -0.6825
  100SOL    HW2 1111   0.623   3.245   1.304  0.3671 -1.6886 -0.1264
  101SOL     OW 1112   3.456   7.763   0.028 -0.6475  0.2445 -0.1947
  101SOL    HW1 1113   3.480   7.777  -0.063  0.4734  0.9562  0.1849
  101SOL    HW2 1114   3.384   7.823   0.044  1.5515  2.9389  0.3394
  102SOL     OW 1115   2.093   2.876   2.684 -0.0814  0.5045  0.2084
  102SOL    HW1 1116   2.116   2.890   2.592  0.4965 -0.8955  0.1065
  102SOL    HW2 1117   2.102   2.781   2.696 -0.7619  0.5929  1.5498
  103SOL     OW 1118   5.927   0.438   3.003 -0.4288  0.0507  0.2847
  103SOL    HW1 1119   5.888   0.375   2.943 -0.6220 -1.8803  2.2968
  103SOL    HW2 1120   5.878   0.519   2.988 -2.7842 -1.3119  0.1663
  104SOL     OW 1121   6.677   3.512   3.343  0.5569  0.0350 -0.7288
  104SOL    HW1 1122   6.631   3.587   3.381  0.6428  0.6240 -1.7541
  104SOL    HW2 1123   6.611   3.443   3.339  0.8971 -0.5394  1.7814
  105SOL     OW 1124   4.910   5.692   6.497 -0.3557  0.3887  0.2243
  105SOL    HW1 1125   5.002   5.690   6.471 -0.6204 -1.9140 -0.8317
  105SOL    HW2 1126   4.910   5.738   6.581  1.7590  0.3724  0.3043
  106SOL     OW 1127   7.733   0.887   4.826  0.5647 -0.0779 -0.0943
  106SOL    HW1 1128   7.694   0.972   4.807  1.4675 -0.0376 -2.0171
  106SOL    HW2 1129   7.664   0.838   4.869 -0.4633  1.1178 -0.3189
  107SOL     OW 1130   1.905   5.622   0.906 -0.4333 -0.5103 -0.2915
  107SOL    HW1 1131   1.815   5.596   0.923 -0.3723 -1.2398 -1.0211
  107SOL    HW2 1132   1.925   5.585   0.820  0.5535 -0.3279 -0.1551
  108SOL     OW 1133   1.950   7.108   7.451 -0.0919 -0.4346 -0.8362
  108SOL    HW1 1134   1.980   7.196   7.475  0.2656  0.0453 -2.8439
  108SOL    HW2 1135   2.011   7.049   7.496  0.0527  0.3445  0.0236
  109SOL     OW 1136   5.249   5.032   1.540 -0.0660 -0.4322 -0.1773
  109SOL    HW1 1137   5.161   5.060   1.515  0.2114 -0.4609 -1.2221
  109SOL    HW2 1138   5.245   5.022   1.635 -0.5295  1.9662  0.1163
  110SOL     OW 1139   2.011   3.926   1.879  0.3320  0.0049  0.0378
  110SOL    HW1 1140   1.984   3.866   1.810  1.3570  0.4811 -0.7917
  110SOL    HW2 1141   2.018   3.871   1.957 -0.4932 -0.5966 -0.2946
  111SOL     OW 1142   1.629   1.647   3.553  0.6518 -0.7630  0.1554
  111SOL    HW1 1143   1.614   1.741   3.549 -1.8701 -1.0532  1.2779
  111SOL    HW2 1144   1.711   1.634   3.505 -0.0852  1.7221 -1.9908
  112SOL     OW 1145   6.820   4.001   3.562  0.9424  0.2559  0.0944
  112SOL    HW1 1146   6.735   4.016   3.604  1.0430  0.6322  0.1691
  112SOL    HW2 1147   6.810   4.038   3.474  0.1079 -2.2199 -0.9197
  113SOL     OW 1148   5.519   3.329   6.273  0.2814 -0.2663 -0.5115
  113SOL    HW1 1149   5.571   3.337   6.353 -1.6311  1.1448  0.6964
  113SOL    HW2 1150   5.511   3.419   6.241  0.3123 -0.7113 -1.8447
  114SOL     OW 1151   1.280   1.588   5.286  0.3593  0.1879 -0.0344
  114SOL    HW1 1152   1.331   1.518   5.246  0.7242 -1.9585  3.7297
  114SOL    HW2 1153   1.336   1.666   5.280  1.7537 -0.8347 -0.7101
  115SOL     OW 1154   1.558   4.159   2.617 -0.6149  0.4722 -0.3722
  115SOL    HW1 1155   1.611   4.234   2.645 -0.3954 -0.0363  0.6262
  115SOL    HW2 1156   1.619   4.086   2.615 -0.2602  0.7276 -3.7508
  116SOL     OW 1157   2.535   4.551   2.129  0.5655  0.1514 -0.5076
  116SOL    HW1 1158   2.614   4.548   2.184  0.9729  0.4041 -1.0762
  116SOL    HW2 1159   2.482   4.478   2.160  1.6594 -0.9185 -1.0776
  117SOL     OW 1160   4.899   6.370   6.097 -0.1891  0.0003 -0.0511
  117SOL    HW1 1161   4.912   6.304   6.165  0.0103  0.9320  0.8415
  117SOL    HW2 1162   4.971   6.357   6.036 -0.0665 -0.5074  0.1984
  118SOL     OW 1163   7.605   3.425   3.083  0.2761  0.1073 -0.0923
  118SOL    HW1 1164   7.518   3.390   3.099  0.6942 -1.0815 -0.3539
  118SOL    HW2 1165   7.607   3.507   3.132 -0.2275 -0.9126  1.6973
  119SOL     OW 1166   6.391   5.586   2.223  0.8717  0.4538 -0.3310
  119SOL    HW1 1167   6.335   5.581   2.301  2.2682  0.6118  0.7126
  119SOL    HW2 1168   6.359   5.663   2.177  2.1239  2.4113  1.8338
  120SOL     OW 1169   3.564   3.546   1.971 -0.1586  0.5255 -0.5930
  120SOL    HW1 1170   3.472   3.535   1.946 -0.3753 -1.0611  0.6983
  120SOL    HW2 1171   3.560   3.597   2.052  0.0131 -0.1890 -0.1223
  121SOL     OW 1172   0.340   7.046   5.171 -0.2148 -0.1777  0.0083
  121SOL    HW1 1173   0.394   7.123   5.156 -0.7056  0.0666 -0.5204
  121SOL    HW2 1174   0.387   6.975   5.127 -0.2390  0.0025 -0.3103
  122SOL     OW 1175   7.957   6.019   0.811  0.0135  0.0433 -0.0916
  122SOL    HW1 1176   7.876   5.999   0.763  0.5450 -0.6788 -0.7224
  122SOL    HW2 1177   7.979   6.108   0.785 -1.1410  0.6431  0.9165
  123SOL     OW 1178   0.409   3.051   5.202 -0.5137  0.0072 -0.0846
  123SOL    HW1 1179   0.490   3.089   5.235  0.2487 -0.5590 -1.2185
  123SOL    HW2 1180   0.341   3.114   5.226  0.4101  1.0087 -0.0207
  124SOL     OW 1181   3.548   2.324   2.565  0.1558 -0.3695 -0.1809
  124SOL    HW1 1182   3.479   2.259   2.576  0.9634 -0.9516  2.0582
  124SOL    HW2 1183   3.514   2.403   2.608  0.7766 -0.6290  0.8424
  125SOL     OW 1184   2.644   2.852   7.342 -0.1791 -0.1047  0.1033
  125SOL    HW1 1185   2.686   2.768   7.361 -3.1465 -2.0641 -1.2945
  125SOL    HW2 1186   2.715   2.907   7.309  1.5965 -2.5728 -0.4656
  126SOL     OW 1187   5.054   5.668   7.236 -0.5291  0.4276 -0.3543
  126SOL    HW1 1188   5.088   5.758   7.235 -0.0042  0.2470  0.2166
  126SOL    HW2 1189   5.109   5.623   7.301 -3.4506  0.7438  2.5815
  127SOL     OW 1190   0.482   5.349   7.589  0.4229  0.1329  0.1735
  127SOL    HW1 1191   0.418   5.383   7.527  0.2017  1.6652  1.1944
  127SOL    HW2 1192   0.437   5.276   7.633  0.1403 -0.1421 -0.5530
  128SOL     OW 1193   5.539   6.895   4.552 -0.4638  0.1466  0.3258
  128SOL    HW1 1194   5.584   6.919   4.633 -2.0958 -0.8048  1.5680
  128SOL    HW2 1195   5.499   6.976   4.521 -1.9283  0.0359  1.8625
  129SOL     OW 1196   3.350   5.687   5.697  0.2022  0.4007 -0.5078
  129SOL    HW1 1197   3.299   5.680   5.616 -0.3077 -0.2121 -0.1422
  129SOL    HW2 1198   3.285   5.701   5.765  0.6142  0.7018 -0.1751
  130SOL     OW 1199   0.510   0.377   1.353 -0.1100  0.2492  0.6160
  130SOL    HW1 1200   0.590   0.409   1.312  1.0488 -1.6409  1.2967
  130SOL    HW2 1201   0.448   0.367   1.281  0.4118  1.2729  0.0110
  131SOL     OW 1202   4.680   2.729   1.398 -0.0757 -0.4580  0.1997
  131SOL    HW1 1203   4.654   2.798   1.458 -2.0950 -1.0649  0.0951
  131SOL    HW2 1204   4.644   2.756   1.313 -0.5463 -1.3980  0.0765
  132SOL     OW 1205   5.839   4.193   4.002 -0.6666  0.1565 -0.7038
  132SOL    HW1 1206   5.847   4.132   3.929 -0.9501 -0.1697 -0.4648
  132SOL    HW2 1207   5.900   4.264   3.981  0.0003 -0.4272 -0.7626
  133SOL     OW 1208   7.636   0.631   5.393 -0.5436  0.2153 -0.1378
  133SOL    HW1 1209   7.626   0.537   5.411  1.0973 -0.3888 -1.9719
  133SOL    HW2 1210   7.672   0.634   5.304  0.8015  2.5310  0.4208
  134SOL     OW 1211   6.055   4.486   4.477 -0.4854  0.0147 -0.4558
  134SOL    HW1 1212   6.067   4.580   4.490 -0.8613 -0.0553  0.4534
  134SOL    HW2 1213   5.965   4.477   4.445 -0.2885  0.0032 -1.0087
  135SOL     OW 1214   4.127   0.594   6.838 -0.4299  0.5159  0.1000
  135SOL    HW1 1215   4.122   0.655   6.764 -0.1781  1.5970  0.9408
  135SOL    HW2 1216   4.069   0.631   6.904  0.0127  0.0465  0.7698
  136SOL     OW 1217   4.379   2.598   4.757  0.1465 -0.3716  0.2475
  136SOL    HW1 1218   4.468   2.574   4.782 -0.1682 -1.6705  0.2045
  136SOL    HW2 1219   4.367   2.559   4.670  0.4206  2.0753 -0.9739
  137SOL     OW 1220   0.848   2.995   6.814 -0.1203 -0.1809  0.2410
  137SOL    HW1 1221   0.915   2.936   6.848  0.1943  0.3269  0.5186
  137SOL    HW2 1222   0.842   3.064   6.880 -1.3689 -0.5373  0.5259
  138SOL     OW 1223   6.276   7.027   1.106  0.2633 -0.1731 -0.1184
  138SOL    HW1 1224   6.312   6.939   1.106 -0.4010 -0.4467  0.1832
  138SOL    HW2 1225   6.246   7.041   1.016 -0.2361 -0.5023 -0.0029
  139SOL     OW 1226   2.848   6.720   1.588  0.3282 -0.5845 -0.0729
  139SOL    HW1 1227   2.880   6.642   1.634  2.2495  0.6589  0.8367
  139SOL    HW2 1228   2.916   6.739   1.523  0.6267  1.1207  0.6841
  140SOL     OW 1229   0.602   5.461   6.046  0.0204 -0.1378  0.8313
  140SOL    HW1 1230   0.546   5.496   5.977  0.5538 -1.4783 -0.3470
  140SOL    HW2 1231   0.641   5.538   6.088 -0.2775  0.7171 -0.4050
  141SOL     OW 1232   2.694   6.771   1.348 -0.1253 -0.1538  0.1524
  141SOL    HW1 1233   2.725   6.803   1.432 -0.6807  0.4979  0.1148
  141SOL    HW2 1234   2.772   6.733   1.306 -0.0385 -1.3383  1.3375
  142SOL     OW 1235   0.760   5.003   2.301 -0.4568  0.3356  0.2134
  142SOL    HW1 1236   0.690   4.937   2.304 -0.1817  0.0717  1.2563
  142SOL    HW2 1237   0.747   5.054   2.381  0.8834 -0.0708  0.7004
  143SOL     OW 1238   7.210   5.957   1.652 -0.1396 -0.1526  0.1081
  143SOL    HW1 1239   7.266   5.883   1.630  1.4247 -0.0713  3.1904
  143SOL    HW2 1240   7.170   5.933   1.735 -2.6849  0.9344 -0.7008
  144SOL     OW 1241   3.375   5.308   1.339  0.7864 -0.5624 -0.0834
  144SOL    HW1 1242   3.316   5.239   1.368  0.1179  0.2919  0.6577
  144SOL    HW2 1243   3.421   5.271   1.264 -1.3985 -0.9038 -1.3183
  145SOL     OW 1244   2.011   6.663   5.037  0.5721 -0.3501 -0.2690
  145SOL    HW1 1245   2.023   6.572   5.064  1.5776 -0.8027 -2.0799
  145SOL    HW2 1246   1.917   6.669   5.017  0.6913 -1.3736 -1.3058
  146SOL     OW 1247   7.213   5.797   7.889  0.0404 -0.3243  0.5776
  146SOL    HW1 1248   7.272   5.793   7.964 -2.3720 -1.1003  2.5736
  146SOL    HW2 1249   7.230   5.883   7.850 -0.0897  1.0763  3.3620
  147SOL     OW 1250   0.708   5.914   7.761 -0.2153  0.4946 -0.5859
  147SOL    HW1 1251   0.622   5.954   7.750 -1.5567 -1.8897  0.4697
  147SOL    HW2 1252   0.694   5.841   7.822  2.8191  0.7775  0.6551
  148SOL     OW 1253   6.702   4.554   1.412  0.2189  0.2013  0.5965
  148SOL    HW1 1254   6.778   4.534   1.466  0.7081 -1.5320 -0.6545
  148SOL    HW2 1255   6.627   4.530   1.466  0.6394 -0.1458  1.0357
  149SOL     OW 1256   3.972   5.780   2.184 -0.0557  0.4584  0.3049
  149SOL    HW1 1257   3.938   5.710   2.128 -0.3184  0.2612  0.7059
  149SOL    HW2 1258   4.053   5.744   2.220  0.3383  0.7475 -0.2776
  150SOL     OW 1259   4.814   4.468   5.267 -0.0004 -0.2883  0.1609
  150SOL    HW1 1260   4.733   4.458   5.316 -1.7157  0.1045 -2.3770
  150SOL    HW2 1261   4.814   4.560   5.238  1.1911 -0.3622 -0.1399
  151SOL     OW 1262   2.994   2.695   7.172  0.2150 -0.1650  0.1676
  151SOL    HW1 1263   2.987   2.762   7.240 -2.5089 -0.6106  0.4308
  151SOL    HW2 1264   3.000   2.613   7.221 -0.3946 -0.3940 -0.1446
  152SOL     OW 1265   6.474   3.537   1.698 -0.8109  0.2951  0.0639
  152SOL    HW1 1266   6.460   3.578   1.613  0.2372 -0.5313 -0.5236
  152SOL    HW2 1267   6.516   3.454   1.679 -1.0553 -0.1600  1.3643
  153SOL     OW 1268   5.361   3.794   1.120 -0.8573  0.0518 -0.0703
  153SOL    HW1 1269   5.350   3.876   1.072 -0.6051  1.2582  1.8180
  153SOL    HW2 1270   5.282   3.744   1.100 -0.9825  0.7109 -1.3100
  154SOL     OW 1271   2.386   3.839   5.916 -0.0980 -0.6585 -0.4641
  154SOL    HW1 1272   2.400   3.757   5.869  3.1824 -0.2445 -0.4409
  154SOL    HW2 1273   2.473   3.879   5.920 -1.0867  1.4899  1.9710
  155SOL     OW 1274   4.060   3.150   3.810  0.0475 -0.0974  0.2022
  155SOL    HW1 1275   3.988   3.093   3.838 -0.2520 -0.0496 -0.4414
  155SOL    HW2 1276   4.116   3.157   3.887 -0.4526 -0.4237  0.6089
  156SOL     OW 1277   7.854   4.833   6.165 -0.0597 -0.1272 -0.1264
  156SOL    HW1 1278   7.763   4.844   6.195 -0.8696  0.7307 -2.6604
  156SOL    HW2 1279   7.885   4.922   6.149  1.3553 -0.3989  0.9205
  157SOL     OW 1280   2.320   7.633   4.111 -0.1289 -0.2473 -0.0309
  157SOL    HW1 1281   2.294   7.716   4.070  0.5817 -0.4779 -0.9899
  157SOL    HW2 1282   2.329   7.572   4.037  0.6142 -0.8356  0.5267
  158SOL     OW 1283   1.709   1.205   4.012 -0.4260  0.2416  0.1893
  158SOL    HW1 1284   1.739   1.264   3.943 -0.3317 -0.4362 -0.3684
  158SOL    HW2 1285   1.698   1.121   3.968 -2.7681  0.3597  0.4714
  159SOL     OW 1286   2.970   7.116   6.606  0.1300 -0.0916  0.3037
  159SOL    HW1 1287   3.008   7.203   6.618  2.7220 -1.1179  0.0471
  159SOL    HW2 1288   3.033   7.056   6.646 -0.0123 -2.0949 -2.2232
  160SOL     OW 1289   6.172   5.738   5.872  0.6649  0.1753  0.1456
  160SOL    HW1 1290   6.206   5.658   5.913  0.5765  0.7215  1.3092
  160SOL    HW2 1291   6.109   5.706   5.807  1.2180 -0.7234  0.0259
  161SOL     OW 1292   2.128   7.005   0.581 -0.2393  0.1225 -1.1369
  161SOL    HW1 1293   2.215   7.018   0.618 -0.5585 -1.4630  0.2897
  161SOL    HW2 1294   2.091   7.093   0.576  0.9169  0.6780 -0.4284
  162SOL     OW 1295   5.866   5.570   4.333  0.1414  0.2668  0.3575
  162SOL    HW1 1296   5.782   5.604   4.363  0.5781  0.3607  1.5233
  162SOL    HW2 1297   5.868   5.589   4.240 -0.9418  0.6495  0.3997
  163SOL     OW 1298   6.850   7.265   2.527 -0.2871 -1.1575  0.2964
  163SOL    HW1 1299   6.928   7.319   2.517 -0.6058 -0.9388 -1.1730
  163SOL    HW2 1300   6.777   7.328   2.527 -0.5918 -1.4974 -0.4299
  164SOL     OW 1301   5.870   2.299   7.841 -0.1413  0.0539 -0.3047
  164SOL    HW1 1302   5.852   2.393   7.838  1.7245  0.4373 -0.7088
  164SOL    HW2 1303   5.841   2.266   7.756 -1.2590  0.1317  0.0199
  165SOL     OW 1304   6.178   5.461   5.300 -0.0554  0.3482 -0.4510
  165SOL    HW1 1305   6.230   5.458   5.380 -2.6247  2.0099  1.4233
  165SOL    HW2 1306   6.163   5.369   5.277  1.3347 -0.1527  0.5185
  166SOL     OW 1307   3.630   0.705   2.863 -0.6003 -0.3618  0.0693
  166SOL    HW1 1308   3.590   0.751   2.936 -0.8132 -0.9657  0.3421
  166SOL    HW2 1309   3.671   0.628   2.902 -0.4846 -0.5532 -0.4122
  167SOL     OW 1310   0.562   7.130   5.889 -0.7215  0.1798 -0.2362
  167SOL    HW1 1311   0.524   7.046   5.864  0.3098  0.3106 -2.4372
  167SOL    HW2 1312   0.656   7.118   5.879 -0.3008  0.7675  2.2649
  168SOL     OW 1313   0.731   1.315   0.892 -0.8291  0.1909 -0.5806
  168SOL    HW1 1314   0.784   1.343   0.968 -1.0837 -0.2067 -0.2549
  168SOL    HW2 1315   0.651   1.367   0.899 -0.3926  0.9766 -1.2141
  169SOL     OW 1316   4.733   7.562   6.055  0.1473 -0.3677  0.1198
  169SOL    HW1 1317   4.781   7.482   6.076  0.4067  0.0112  0.9854
  169SOL    HW2 1318   4.702   7.595   6.139  0.3262  0.6239 -0.1893
  170SOL     OW 1319   2.144   7.669   5.542 -0.0422 -0.1797  0.2812
  170SOL    HW1 1320   2.187   7.687   5.459  2.0139  1.2714  1.5610
  170SOL    HW2 1321   2.054   7.645   5.518  0.5772 -0.1916 -2.3343
  171SOL     OW 1322   4.684   7.701   3.864 -0.0411 -0.2205  0.0722
  171SOL    HW1 1323   4.650   7.746   3.787 -0.2806 -1.5664 -0.6432
  171SOL    HW2 1324   4.777   7.722   3.866 -0.2497  0.7318  0.0778
  172SOL     OW 1325   4.116   7.905   0.534 -0.3955 -0.0227  0.4331
  172SOL    HW1 1326   4.099   7.954   0.454  0.9715 -0.4816 -0.1673
  172SOL    HW2 1327   4.065   7.825   0.524 -0.9603  0.3325  0.4494
  173SOL     OW 1328   7.368   3.036   0.545 -0.4840 -0.4525 -0.2641
  173SOL    HW1 1329   7.324   2.988   0.475  0.0628 -0.0152 -0.9248
  173SOL    HW2 1330   7.301   3.096   0.578 -0.2571  0.7032 -1.7294
  174SOL     OW 1331   0.947   2.356   3.631  0.2592  0.3551 -0.2835
  174SOL    HW1 1332   0.902   2.279   3.596 -0.8033  1.4822 -1.5210
  174SOL    HW2 1333   1.039   2.341   3.611  0.1782 -0.9588  0.2438
  175SOL     OW 1334   1.653   0.159   5.847  0.2473 -0.2078 -0.1364
  175SOL    HW1 1335   1.709   0.082   5.833  2.3450  1.4666 -1.6828
  175SOL    HW2 1336   1.672   0.215   5.772 -1.5305  1.6439  0.7337
  176SOL     OW 1337   0.204   5.808   1.172 -0.5868 -0.4342 -0.3284
  176SOL    HW1 1338   0.223   5.751   1.098 -2.4953 -1.5522 -0.0134
  176SOL    HW2 1339   0.115   5.838   1.158  0.2284  2.3191 -0.3167
  177SOL     OW 1340   0.978   5.272   2.370  0.2863 -0.0604 -0.2229
  177SOL    HW1 1341   0.887   5.253   2.392 -0.0381  1.5574 -0.0267
  177SOL    HW2 1342   1.021   5.187   2.371 -0.8351 -0.6558  1.4720
  178SOL     OW 1343   0.404   5.558   5.878 -0.4563  0.0817 -0.1770
  178SOL    HW1 1344   0.337   5.617   5.843  1.6163  2.6824 -0.1098
  178SOL    HW2 1345   0.456   5.533   5.802 -0.8208 -1.0194 -0.0775
  179SOL     OW 1346   0.894   2.885   1.089 -0.1198 -0.1355  0.2173
  179SOL    HW1 1347   0.851   2.821   1.032 -0.9834  0.7446 -0.1432
  179SOL    HW2 1348   0.971   2.914   1.040  0.6628 -1.3735  0.6663
  180SOL     OW 1349   1.741   1.017   0.676 -0.9365 -0.3100  0.5428
  180SOL    HW1 1350   1.762   0.976   0.592 -1.0277 -1.4366  1.0484
  180SOL    HW2 1351   1.812   1.081   0.690 -1.1303  0.1714 -0.5543
  181SOL     OW 1352   5.342   5.089   3.083 -0.4640 -0.1529 -0.9730
  181SOL    HW1 1353   5.416   5.090   3.022  1.6515  2.1572  1.3950
  181SOL    HW2 1354   5.331   5.180   3.110  0.1971 -1.1751  3.6125
  182SOL     OW 1355   3.645   4.156   3.641  0.9216 -0.3194 -0.2023
  182SOL    HW1 1356   3.568   4.127   3.690  0.8026  0.7406  0.2810
  182SOL    HW2 1357   3.677   4.078   3.596  1.3417 -1.4915  1.9814
  183SOL     OW 1358   0.015   3.451   1.607  0.4567  0.2587  0.3348
  183SOL    HW1 1359   0.036   3.386   1.673 -1.1736  0.7601  1.4122
  183SOL    HW2 1360   0.056   3.532   1.638  1.2637  0.0987 -0.2645
  184SOL     OW 1361   5.322   5.655   0.268 -0.0967  0.1266  0.2634
  184SOL    HW1 1362   5.418   5.645   0.270 -0.1445 -0.3851  0.2260
  184SOL    HW2 1363   5.301   5.663   0.175 -0.1048  0.1035  0.2634
  185SOL     OW 1364   4.162   1.743   4.500  0.2957 -0.5276  0.0839
  185SOL    HW1 1365   4.138   1.823   4.453  0.8088  0.5208  1.5432
  185SOL    HW2 1366   4.172   1.677   4.431 -0.3192  0.6078 -1.1323
  186SOL     OW 1367   6.904   3.410   6.756 -0.3461  0.6068 -0.0584
  186SOL    HW1 1368   6.900   3.503   6.779  0.5265  0.3916  1.0439
  186SOL    HW2 1369   6.989   3.381   6.788  0.1195 -0.2026 -1.8980
  187SOL     OW 1370   1.713   2.451   6.962  0.6272 -0.0204 -0.0357
  187SOL    HW1 1371   1.792   2.435   6.910 -0.2344  1.2568 -1.8718
  187SOL    HW2 1372   1.700   2.546   6.957 -0.3843 -0.0587  1.2285
  188SOL     OW 1373   5.736   7.937   0.071 -0.1164 -0.4121  0.1739
  188SOL    HW1 1374   5.789   7.939  -0.009 -0.6933 -1.9311 -0.2841
  188SOL    HW2 1375   5.766   8.013   0.122  1.4464 -0.3786 -0.7312
  189SOL     OW 1376   6.597   5.880   1.399  0.1048  0.2794  0.2837
  189SOL    HW1 1377   6.582   5.786   1.408  1.1021  0.2566  2.2483
  189SOL    HW2 1378   6.672   5.887   1.340 -1.1304 -0.0296 -1.3890
  190SOL     OW 1379   0.296   1.498   7.256 -0.3663 -0.4728  0.1188
  190SOL    HW1 1380   0.248   1.557   7.198 -1.4640 -0.0972  1.3557
  190SOL    HW2 1381   0.386   1.531   7.254 -0.2838 -0.6843 -1.5954
  191SOL     OW 1382   0.790   7.579   4.790  0.6098  0.2474  0.2221
  191SOL    HW1 1383   0.792   7.505   4.851 -1.9640  0.0972  0.2627
  191SOL    HW2 1384   0.753   7.651   4.842 -0.6217  0.4120 -0.8335
  192SOL     OW 1385   0.808   2.347   2.549 -0.2748 -0.4093 -0.2082
  192SOL    HW1 1386   0.878   2.410   2.533  0.0496 -0.4456  0.9705
  192SOL    HW2 1387   0.830   2.272   2.494 -0.5252  0.3831 -1.4343
  193SOL     OW 1388   0.684   0.626   6.119  0.0656  0.1683  0.1132
  193SOL    HW1 1389   0.744   0.677   6.065 -0.5552 -0.6997 -1.4478
  193SOL    HW2 1390   0.737   0.553   6.151  1.2593  2.1845  3.2312
  194SOL     OW 1391   3.237   1.326   0.293 -0.5665  0.6662  0.6440
  194SOL    HW1 1392   3.221   1.280   0.210  1.1005  1.2977 -0.0742
  194SOL    HW2 1393   3.228   1.419   0.271  1.9454  0.9655  0.6078
  195SOL     OW 1394   3.025   3.256   7.907 -0.0766  0.6634  0.0505
  195SOL    HW1 1395   3.013   3.168   7.871 -1.3894  0.4917  0.8419
  195SOL    HW2 1396   3.101   3.247   7.966 -0.5071 -0.0781  0.5156
  196SOL     OW 1397   0.841   0.268   2.944  0.1672  0.2174 -0.5314
  196SOL    HW1 1398   0.818   0.282   2.852  0.2244 -0.3961 -0.6412
  196SOL    HW2 1399   0.907   0.336   2.962  0.5321  0.0226 -1.0862
  197SOL     OW 1400   4.492   7.703   4.745 -0.5173 -0.0552 -0.1750
  197SOL    HW1 1401   4.413   7.749   4.716 -0.0137  1.0035  0.0778
  197SOL    HW2 1402   4.537   7.679   4.665 -1.2408 -0.9516 -0.3302
  198SOL     OW 1403   5.825   2.768   0.260 -0.3557 -0.6297  0.2594
  198SOL    HW1 1404   5.848   2.710   0.187 -1.5000  0.9743 -1.4741
  198SOL    HW2 1405   5.732   2.750   0.277 -0.8195  0.8334 -0.5196
  199SOL     OW 1406   0.487   5.597   1.586  0.2734 -0.6865 -0.0437
  199SOL    HW1 1407   0.496   5.502   1.586 -1.8646 -0.9298  0.3331
  199SOL    HW2 1408   0.453   5.618   1.499 -0.4086 -0.4150  0.2814
  200SOL     OW 1409   4.460   6.109   7.164  0.3041  0.6092  0.1202
  200SOL    HW1 1410   4.452   6.078   7.074 -0.4611 -0.0838  0.4169
  200SOL    HW2 1411   4.540   6.162   7.164  0.6750  0.0749 -0.8113
  201SOL     OW 1412   4.802   5.469   0.742  0.1046  0.1056  0.1112
  201SOL    HW1 1413   4.840   5.540   0.794  0.7383  0.1047 -0.3439
  201SOL    HW2 1414   4.774   5.404   0.807  0.9742  0.0571  0.4472
  202SOL     OW 1415   4.548   6.569   1.503 -0.2701 -0.1619 -0.1513
  202SOL    HW1 1416   4.593   6.505   1.447 -0.7942  0.1451 -0.9394
  202SOL    HW2 1417   4.524   6.520   1.581  2.8926  0.0225  1.0966
  203SOL     OW 1418   1.455   1.362   3.106 -0.0254 -0.4851  0.1966
  203SOL    HW1 1419   1.474   1.447   3.145  0.5092 -0.6706  0.3580
  203SOL    HW2 1420   1.402   1.317   3.172 -0.5432 -0.1751 -0.0081
  204SOL     OW 1421   6.615   1.984   6.252 -0.1252  0.1813  0.0830
  204SOL    HW1 1422   6.627   1.912   6.189  1.1487  1.4780 -1.2315
  204SOL    HW2 1423   6.521   1.999   6.253 -0.2758 -0.5995 -0.6670
  205SOL     OW 1424   7.655   3.084   5.474 -0.6483  0.4722  0.8750
  205SOL    HW1 1425   7.677   3.006   5.422 -0.0379  1.7097 -0.8121
  205SOL    HW2 1426   7.565   3.069   5.502 -2.1953  0.9487 -3.0951
  206SOL     OW 1427   1.079   0.489   1.125  0.1490 -0.1692 -0.2671
  206SOL    HW1 1428   1.051   0.580   1.117  0.9627  0.1111 -0.0651
  206SOL    HW2 1429   0.998   0.437   1.118 -0.6112  0.6597  1.7197
  207SOL     OW 1430   0.486   0.827   2.484 -0.2508  0.0969  0.0831
  207SOL    HW1 1431   0.428   0.783   2.423 -1.8342  0.2922  1.3770
  207SOL    HW2 1432   0.435   0.902   2.516  0.9827  0.6994  0.7298
  208SOL     OW 1433   3.707   3.662   6.519 -0.1713 -0.0874 -0.3323
  208SOL    HW1 1434   3.621   3.699   6.538 -0.6985 -1.3793 -0.0943
  208SOL    HW2 1435   3.724   3.600   6.591  0.0447 -1.3188 -1.3939
  209SOL     OW 1436   3.933   1.843   6.007 -0.1476  0.4392  0.1791
  209SOL    HW1 1437   3.954   1.763   5.959  0.2342  1.8694 -2.2353
  209SOL    HW2 1438   3.894   1.813   6.089  1.4083 -2.2015  0.0573
  210SOL     OW 1439   5.530   7.643   4.728 -0.3883 -0.0437 -0.4565
  210SOL    HW1 1440   5.465   7.616   4.793  0.2378  0.1527  0.2581
  210SOL    HW2 1441   5.553   7.733   4.752 -1.2186  0.5748 -1.8200
  211SOL     OW 1442   7.702   0.442   5.920  0.3388 -0.2609  0.8137
  211SOL    HW1 1443   7.677   0.522   5.966  0.1845 -0.8449  1.7540
  211SOL    HW2 1444   7.624   0.387   5.923  0.7167 -0.7950  0.9306
  212SOL     OW 1445   2.170   6.923   1.895  0.0979  0.5021  0.3815
  212SOL    HW1 1446   2.198   6.835   1.868 -0.7220  0.0688  0.8958
  212SOL    HW2 1447   2.179   6.923   1.990 -1.9027  0.2200  0.6180
  213SOL     OW 1448   1.205   6.206   5.043  0.6255 -0.0657  0.1729
  213SOL    HW1 1449   1.183   6.280   4.987 -1.4109  0.1639  1.1636
  213SOL    HW2 1450   1.262   6.242   5.110  1.1065  0.1913 -0.3686
  214SOL     OW 1451   2.008   0.515   5.525  0.2109  0.3557  0.0013
  214SOL    HW1 1452   1.922   0.550   5.548 -0.6269 -0.3458 -1.8346
  214SOL    HW2 1453   1.993   0.421   5.514  0.7575  0.4633 -2.0746
  215SOL     OW 1454   1.473   6.256   5.593  0.0523  0.5153 -0.4510
  215SOL    HW1 1455   1.566   6.267   5.578  0.1728 -1.5164 -1.6319
  215SOL    HW2 1456   1.463   6.164   5.617 -1.6195  0.7541 -0.0421
  216SOL     OW 1457   2.784   3.813   0.039  0.4916  0.3269  0.1497
  216SOL    HW1 1458   2.858   3.756   0.059 -0.5296 -0.4396  2.0680
  216SOL    HW2 1459   2.802   3.848  -0.048  3.2352  0.4218  0.6885
  217SOL     OW 1460   7.000   0.771   6.145 -0.0855  0.1495 -0.6430
  217SOL    HW1 1461   6.908   0.784   6.166  0.3727  1.3281  0.9122
  217SOL    HW2 1462   7.035   0.722   6.220  1.2426  2.9010  0.7135
  218SOL     OW 1463   3.482   6.174   7.436  0.3734 -0.8752  0.5265
  218SOL    HW1 1464   3.475   6.200   7.344  2.4508 -3.3782 -0.4950
  218SOL    HW2 1465   3.407   6.214   7.479 -0.4602  0.7051 -2.1781
  219SOL     OW 1466   2.456   4.890   5.335  0.4931 -0.4328 -0.1344
  219SOL    HW1 1467   2.538   4.936   5.320  1.6078 -1.9088  1.0168
  219SOL    HW2 1468   2.435   4.908   5.427  0.9546 -2.1015  0.3439
  220SOL     OW 1469   1.125   1.613   3.252  0.3589  0.1494  0.3527
  220SOL    HW1 1470   1.122   1.697   3.298  0.3726 -0.4546  1.4875
  220SOL    HW2 1471   1.157   1.635   3.164 -1.6500  1.6233 -0.0861
  221SOL     OW 1472   4.839   3.344   3.796  0.0777  0.0637  0.3258
  221SOL    HW1 1473   4.792   3.344   3.713 -0.0489  0.0985  0.3968
  221SOL    HW2 1474   4.879   3.430   3.801 -1.7860  0.9322  1.3487
  222SOL     OW 1475   5.290   6.434   6.507  0.1369 -0.3748 -0.6686
  222SOL    HW1 1476   5.368   6.411   6.558  0.5906  2.5079  0.1303
  222SOL    HW2 1477   5.320   6.436   6.416  0.8996  0.2751 -0.4129
  223SOL     OW 1478   3.260   5.041   0.550 -0.4181  0.1023  0.1151
  223SOL    HW1 1479   3.313   4.980   0.499 -0.2610  1.3958 -1.3237
  223SOL    HW2 1480   3.324   5.098   0.592 -0.6046 -0.0448  0.6133
  224SOL     OW 1481   7.921   4.707   3.126  0.3426 -0.5279  0.0310
  224SOL    HW1 1482   7.931   4.641   3.057 -0.7094  0.4607 -1.1153
  224SOL    HW2 1483   7.827   4.721   3.133  0.5458  2.0332 -0.9924
  225SOL     OW 1484   5.758   6.016   2.914 -0.0019  0.0455 -0.0930
  225SOL    HW1 1485   5.756   5.971   2.829  0.5685  2.6325 -1.5853
  225SOL    HW2 1486   5.671   6.055   2.922 -0.5007 -1.2429  1.2024
  226SOL     OW 1487   7.263   6.815   4.031  0.7012 -0.3385 -0.2940
  226SOL    HW1 1488   7.229   6.745   4.087 -1.5214  0.8609 -0.0416
  226SOL    HW2 1489   7.335   6.854   4.082  0.8099 -1.3047  0.3097
  227SOL     OW 1490   5.863   2.458   1.147 -0.1129  0.4176 -0.6140
  227SOL    HW1 1491   5.835   2.498   1.229  2.1586 -1.1117  1.0164
  227SOL    HW2 1492   5.875   2.365   1.168 -0.3958 -0.2155 -2.9543
  228SOL     OW 1493   4.941   4.913   6.684 -0.0299 -0.3202  0.0498
  228SOL    HW1 1494   5.011   4.978   6.687  0.2400 -0.6337  0.5858
  228SOL    HW2 1495   4.884   4.943   6.613  2.0271 -1.4605 -2.2637
  229SOL     OW 1496   6.276   7.358   2.344  0.0609 -0.4502 -0.4999
  229SOL    HW1 1497   6.318   7.299   2.407 -0.9332 -0.4701  0.1521
  229SOL    HW2 1498   6.231   7.301   2.284  1.3893 -0.4538 -1.5459
  230SOL     OW 1499   0.072   4.014   4.853  0.2343 -0.9379 -0.1721
  230SOL    HW1 1500   0.116   4.099   4.853 -1.1841 -0.1480  0.6053
  230SOL    HW2 1501   0.142   3.950   4.843  1.4622  0.2748  0.3473
  231SOL     OW 1502   1.547   2.244   6.217  0.3188  0.1620 -0.5790
  231SOL    HW1 1503   1.456   2.216   6.205  0.3522 -0.2177 -0.0121
  231SOL    HW2 1504   1.596   2.192   6.153 -0.0697  1.7887 -2.2894
  232SOL     OW 1505   5.285   1.189   3.317  0.4333  0.7109 -0.5348
  232SOL    HW1 1506   5.261   1.189   3.410  0.9622  1.8054 -0.3835
  232SOL    HW2 1507   5.211   1.232   3.273  0.5322  0.8934 -0.5224
  233SOL     OW 1508   5.888   6.816   3.447  0.0574 -0.1567 -0.5025
  233SOL    HW1 1509   5.805   6.771   3.452 -0.6186  0.8599 -1.7439
  233SOL    HW2 1510   5.870   6.904   3.481  0.1738  0.5797 -2.2263
  234SOL     OW 1511   1.904   7.854   6.155 -0.8259  0.2443 -1.1860
  234SOL    HW1 1512   1.941   7.798   6.087  1.4589  1.3533 -0.9324
  234SOL    HW2 1513   1.821   7.885   6.118 -0.2822 -0.2468 -2.8809
  235SOL     OW 1514   0.158   1.480   5.048 -0.2633  0.0448 -0.0145
  235SOL    HW1 1515   0.187   1.471   4.957 -0.0643  1.3601 -0.1048
  235SOL    HW2 1516   0.167   1.574   5.066  0.0580 -0.2519  1.4766
  236SOL     OW 1517   6.635   7.665   2.230  0.1189  0.4189  0.3606
  236SOL    HW1 1518   6.669   7.688   2.317  0.9659  0.1698  0.1044
  236SOL    HW2 1519   6.616   7.571   2.237  1.3863  0.1152 -0.0951
  237SOL     OW 1520   3.356   1.721   7.399 -0.2638  0.0105 -0.0239
  237SOL    HW1 1521   3.420   1.656   7.430 -0.1608 -0.2947 -0.8395
  237SOL    HW2 1522   3.338   1.775   7.475  0.5813 -0.2210  0.3579
  238SOL     OW 1523   1.739   7.592   6.197 -0.5523 -0.0629 -0.1209
  238SOL    HW1 1524   1.815   7.649   6.181  0.2508 -1.3598 -1.2049
  238SOL    HW2 1525   1.670   7.651   6.226  1.5355  0.9128  3.4971
  239SOL     OW 1526   6.383   4.271   2.581  0.3669 -0.3640  0.2000
  239SOL    HW1 1527   6.431   4.192   2.554 -0.7238 -1.1777  0.5823
  239SOL    HW2 1528   6.347   4.249   2.667 -2.2535 -0.4916 -0.8446
  240SOL     OW 1529   4.889   3.694   4.552  0.3888 -0.3161  0.3313
  240SOL    HW1 1530   4.829   3.642   4.497  0.4887  1.2854 -1.4054
  240SOL    HW2 1531   4.935   3.750   4.490  2.3772 -0.1775  1.8369
  241SOL     OW 1532   1.193   6.177   7.423 -0.1927  0.2263 -0.0347
  241SOL    HW1 1533   1.223   6.217   7.341  1.2144  0.5818  0.6158
  241SOL    HW2 1534   1.273   6.145   7.464 -0.9100 -0.1757  1.0825
  242SOL     OW 1535   2.326   2.021   3.239  0.8033  0.0575 -0.1400
  242SOL    HW1 1536   2.247   2.025   3.184  0.8171 -0.3103 -0.1876
  242SOL    HW2 1537   2.397   2.005   3.178  0.9615  0.6823 -0.1312
  243SOL     OW 1538   6.623   0.971   1.409  0.1635 -0.6674  0.5840
  243SOL    HW1 1539   6.680   1.003   1.480  2.1300 -0.8081 -0.8257
  243SOL    HW2 1540   6.545   0.939   1.453  1.8088 -1.9065  2.8364
  244SOL     OW 1541   0.165   2.098   7.821  0.0510  0.2631  0.2284
  244SOL    HW1 1542   0.231   2.130   7.760 -1.2609  2.4156 -0.1704
  244SOL    HW2 1543   0.143   2.174   7.875 -1.6693 -0.5328  0.7314
  245SOL     OW 1544   0.066   4.970   2.827  0.1964 -0.5567  0.1887
  245SOL    HW1 1545   0.069   4.999   2.918 -0.8666 -1.1403  0.4286
  245SOL    HW2 1546   0.010   5.035   2.784  1.9324  0.6120 -0.4267
  246SOL     OW 1547   4.277   1.979   5.590  0.3200 -0.4318  0.2617
  246SOL    HW1 1548   4.314   1.892   5.605  0.4368 -0.6064 -0.9815
  246SOL    HW2 1549   4.280   1.991   5.496 -1.8841 -0.0479  0.1853
  247SOL     OW 1550   6.653   7.170   2.350  0.3169  0.2387  0.0481
  247SOL    HW1 1551   6.667   7.124   2.267 -1.2068  0.1311 -0.1897
  247SOL    HW2 1552   6.731   7.151   2.402 -0.1499 -2.5146 -0.0867
  248SOL     OW 1553   0.361   0.443   0.902 -0.1448 -0.0255 -0.1462
  248SOL    HW1 1554   0.297   0.430   0.831  1.8376 -2.1923 -1.6977
  248SOL    HW2 1555   0.414   0.517   0.872  0.5625 -0.8098 -0.9267
  249SOL     OW 1556   7.394   2.686   5.384 -0.1704  0.1434  0.4118
  249SOL    HW1 1557   7.308   2.645   5.378  0.1289 -0.4027 -0.3471
  249SOL    HW2 1558   7.455   2.618   5.356  0.6864  0.0115  2.4272
  250SOL     OW 1559   4.398   7.426   3.033 -0.2773 -0.3131 -0.6111
  250SOL    HW1 1560   4.484   7.415   2.993  0.9675  0.7666  1.5797
  250SOL    HW2 1561   4.358   7.339   3.028  1.0556 -0.9183 -1.4267
  251SOL     OW 1562   1.214   2.347   3.540  0.2153  0.0529 -0.4051
  251SOL    HW1 1563   1.252   2.282   3.600  1.0832 -1.1978 -2.1957
  251SOL    HW2 1564   1.255   2.429   3.566 -0.7940 -0.0639  1.8345
  252SOL     OW 1565   4.206   5.428   7.308 -0.3913  0.0401  0.3669
  252SOL    HW1 1566   4.208   5.465   7.396  3.4343 -1.2939  1.0220
  252SOL    HW2 1567   4.227   5.502   7.251 -0.2373  0.3931  0.8656
  253SOL     OW 1568   5.172   5.799   3.117 -0.5842 -0.3758  0.0461
  253SOL    HW1 1569   5.240   5.865   3.128 -0.7422 -0.2866  0.5412
  253SOL    HW2 1570   5.129   5.821   3.035 -2.0338  1.4500  1.2244
  254SOL     OW 1571   7.978   1.448   4.582 -0.0919  0.0250 -0.5432
  254SOL    HW1 1572   7.963   1.532   4.625 -1.4333 -0.6171  0.3102
  254SOL    HW2 1573   7.950   1.462   4.491 -0.3017  0.4964 -0.4070
  255SOL     OW 1574   4.878   4.544   2.951 -0.6072 -0.6183 -0.1013
  255SOL    HW1 1575   4.865   4.606   3.023 -0.2783  0.7230 -1.1446
  255SOL    HW2 1576   4.791   4.536   2.910 -0.9343 -1.8686  0.7976
  256SOL     OW 1577   4.274   0.803   1.634 -0.0913 -0.0376 -0.1729
  256SOL    HW1 1578   4.259   0.744   1.560 -0.5748 -0.5292  0.3086
  256SOL    HW2 1579   4.261   0.891   1.597 -0.3480 -0.2743 -0.6679
  257SOL     OW 1580   4.425   0.267   0.967 -0.4491  0.4736  0.5894
  257SOL    HW1 1581   4.515   0.245   0.942 -0.5394  1.6348 -0.8788
  257SOL    HW2 1582   4.379   0.278   0.884 -2.4038 -1.7100  1.2952
  258SOL     OW 1583   3.469   2.122   2.735  0.4202 -0.3169  0.0677
  258SOL    HW1 1584   3.548   2.176   2.741  0.2734 -0.1490  0.5827
  258SOL    HW2 1585   3.497   2.035   2.760  0.6073 -0.4370 -0.5319
  259SOL     OW 1586   6.370   5.753   4.647 -0.2459  0.1745 -0.3177
  259SOL    HW1 1587   6.397   5.822   4.586  0.3951 -1.5033 -2.0350
  259SOL    HW2 1588   6.436   5.684   4.636 -1.7242 -1.3843  0.1586
  260SOL     OW 1589   1.835   4.871   0.446  0.2144 -0.0953 -0.5001
  260SOL    HW1 1590   1.850   4.777   0.433 -1.6890 -0.6403  0.7367
  260SOL    HW2 1591   1.748   4.886   0.409  0.0869  0.9692  0.1837
  261SOL     OW 1592   7.952   1.920   0.848 -0.4246  0.3437  0.0322
  261SOL    HW1 1593   7.861   1.946   0.833 -0.0026  1.5872 -0.5908
  261SOL    HW2 1594   7.948   1.854   0.917 -2.0044 -1.5108 -1.7321
  262SOL     OW 1595   3.563   7.468   4.090  0.1769  0.2624  0.2226
  262SOL    HW1 1596   3.531   7.414   4.162  0.7231 -0.8063 -0.3192
  262SOL    HW2 1597   3.553   7.413   4.013  1.8252  0.5092 -0.1842
  263SOL     OW 1598   1.139   1.317   1.371 -0.3907  0.0278 -0.2857
  263SOL    HW1 1599   1.118   1.410   1.374  0.1788  0.1361  0.8341
  263SOL    HW2 1600   1.089   1.278   1.442 -0.0674 -0.3895 -0.2804
  264SOL     OW 1601   4.441   7.763   4.303  0.2724 -0.3373  0.3025
  264SOL    HW1 1602   4.382   7.691   4.281 -3.2893  2.6577 -1.0061
  264SOL    HW2 1603   4.501   7.769   4.229 -1.5058 -0.0641 -1.1960
  265SOL     OW 1604   7.120   6.149   3.831 -0.4143 -0.2910  0.3110
  265SOL    HW1 1605   7.132   6.102   3.914 -1.2342  2.4775  2.1358
  265SOL    HW2 1606   7.205   6.187   3.812 -0.4927 -0.0140  0.5042
  266SOL     OW 1607   4.604   2.350   6.545 -0.0909 -0.7249  0.5614
  266SOL    HW1 1608   4.641   2.435   6.519 -0.8539 -0.0678  1.5287
  266SOL    HW2 1609   4.585   2.306   6.462 -1.5011  0.8739 -0.0290
  267SOL     OW 1610   4.490   0.680   6.865  0.0352  0.5410  0.0673
  267SOL    HW1 1611   4.470   0.647   6.952 -0.1951  0.2108 -0.1095
  267SOL    HW2 1612   4.524   0.769   6.880  1.3493 -0.0207  0.6102
  268SOL     OW 1613   7.156   1.298   4.781  0.1157  0.5169 -0.1940
  268SOL    HW1 1614   7.115   1.333   4.861 -0.5251 -0.6594  0.0059
  268SOL    HW2 1615   7.121   1.353   4.711 -0.7223  0.4245  0.1388
  269SOL     OW 1616   2.520   4.875   7.916 -0.4956 -0.2920 -0.1550
  269SOL    HW1 1617   2.474   4.858   7.834  1.4837 -1.8863 -1.0074
  269SOL    HW2 1618   2.499   4.800   7.972 -2.9914  1.4419  1.4707
  270SOL     OW 1619   6.335   7.323   0.582  0.2863  0.9819  0.3969
  270SOL    HW1 1620   6.308   7.376   0.658  0.1004  1.2720  0.1283
  270SOL    HW2 1621   6.253   7.288   0.547  0.4439  0.0280  0.9162
  271SOL     OW 1622   3.619   0.641   7.737 -0.4282 -0.1004  0.1333
  271SOL    HW1 1623   3.642   0.669   7.826  0.8599 -0.1086 -0.1852
  271SOL    HW2 1624   3.556   0.571   7.749 -0.5486  0.1537  1.0317
  272SOL     OW 1625   6.542   5.876   4.022  0.7582 -0.3062  0.0371
  272SOL    HW1 1626   6.520   5.969   4.031 -1.2457 -0.6358 -0.8253
  272SOL    HW2 1627   6.474   5.841   3.964  2.3471 -2.0107 -0.9107
  273SOL     OW 1628   5.530   7.141   0.468  0.4009 -0.0824 -0.4520
  273SOL    HW1 1629   5.459   7.181   0.417 -1.1496 -2.5555 -0.3855
  273SOL    HW2 1630   5.600   7.128   0.405  0.9317  2.4312 -0.5164
  274SOL     OW 1631   1.038   2.916   3.033 -0.4096 -0.5629  1.0081
  274SOL    HW1 1632   0.951   2.882   3.011 -0.3647 -0.4115  0.5848
  274SOL    HW2 1633   1.022   2.978   3.104 -0.6692 -0.4255  0.8321
  275SOL     OW 1634   7.294   6.742   5.544  0.2555 -0.4942  0.3445
  275SOL    HW1 1635   7.234   6.799   5.495  1.0615 -1.6168 -2.0874
  275SOL    HW2 1636   7.361   6.802   5.577 -0.7037  0.4006  0.7205
  276SOL     OW 1637   4.270   2.987   7.162  0.0924  0.2544 -0.0180
  276SOL    HW1 1638   4.322   2.907   7.171  0.1573  0.1033 -1.5065
  276SOL    HW2 1639   4.332   3.053   7.134 -0.3832  0.2129 -1.2315
  277SOL     OW 1640   0.345   4.567   1.115  0.3445  0.1928 -0.1647
  277SOL    HW1 1641   0.333   4.654   1.077  0.5172 -0.1449 -1.0195
  277SOL    HW2 1642   0.258   4.526   1.111  0.6232 -0.3093 -1.4076
  278SOL     OW 1643   3.956   1.868   1.145 -0.3021 -0.3063 -0.1188
  278SOL    HW1 1644   4.015   1.943   1.148 -1.1430  0.4178  3.5015
  278SOL    HW2 1645   4.007   1.799   1.101  1.3940  1.6274 -1.3442
  279SOL     OW 1646   5.541   3.949   3.960 -0.4309  0.3192  0.7502
  279SOL    HW1 1647   5.477   4.013   3.928 -0.5417 -0.7584 -1.3114
  279SOL    HW2 1648   5.602   3.937   3.887 -0.3659 -1.8605  1.0934
  280SOL     OW 1649   2.759   7.096   2.999  0.6793  0.1955  0.2271
  280SOL    HW1 1650   2.713   7.155   2.938  1.5388  0.5333 -0.1125
  280SOL    HW2 1651   2.837   7.068   2.951  1.2987  0.3495  1.1128
  281SOL     OW 1652   6.643   0.098   2.027  0.0428 -0.6467  0.0018
  281SOL    HW1 1653   6.737   0.101   2.015  0.0836 -0.7383  0.3069
  281SOL    HW2 1654   6.608   0.146   1.952  0.3574 -0.0274  0.2453
  282SOL     OW 1655   4.884   1.426   6.101 -0.2567  0.1671 -0.0732
  282SOL    HW1 1656   4.858   1.337   6.125 -0.1557 -0.2113 -1.2996
  282SOL    HW2 1657   4.942   1.454   6.171 -0.5815 -0.5943  0.5120
  283SOL     OW 1658   4.740   0.532   5.160  0.1810  0.1053 -0.3783
  283SOL    HW1 1659   4.716   0.625   5.161  2.6892  0.8202  0.3446
  283SOL    HW2 1660   4.709   0.498   5.244  2.0157  1.1189  0.7620
  284SOL     OW 1661   4.020   1.238   3.001 -0.5847 -0.0078 -0.2471
  284SOL    HW1 1662   4.056   1.160   3.045 -0.4348 -0.0547 -0.4504
  284SOL    HW2 1663   4.081   1.308   3.023  0.1128 -0.2711 -1.2984
  285SOL     OW 1664   0.664   0.584   2.620 -0.0644  0.1659 -0.4678
  285SOL    HW1 1665   0.600   0.627   2.677 -0.2094  1.6152 -1.6500
  285SOL    HW2 1666   0.611   0.550   2.547  0.1040 -1.7249  0.2635
  286SOL     OW 1667   0.132   1.483   0.198  0.4410 -0.4588  0.6001
  286SOL    HW1 1668   0.118   1.576   0.216 -0.6848 -0.8767  2.1045
  286SOL    HW2 1669   0.058   1.439   0.241  0.8666 -2.0376 -0.2193
  287SOL     OW 1670   3.559   4.940   7.997 -0.9785  0.1467  0.3065
  287SOL    HW1 1671   3.504   5.018   7.999 -0.1642  0.7295  1.4786
  287SOL    HW2 1672   3.647   4.972   8.017 -0.1773 -0.7512 -1.5204
  288SOL     OW 1673   3.003   2.438   0.644 -0.1654 -0.1166 -0.1853
  288SOL    HW1 1674   2.959   2.448   0.559  1.4994 -1.2115 -1.2332
  288SOL    HW2 1675   2.968   2.357   0.680 -1.0161  0.4467  0.3068
  289SOL     OW 1676   3.228   4.745   4.742 -0.5102  0.4458  0.0098
  289SOL    HW1 1677   3.171   4.683   4.697  0.2168 -0.8814  0.8201
  289SOL    HW2 1678   3.169   4.797   4.797 -1.0312 -0.2754  0.1447
  290SOL     OW 1679   6.098   1.119   1.803 -0.2157 -0.3431  0.1342
  290SOL    HW1 1680   6.078   1.208   1.830 -1.3206 -0.7312  0.6435
  290SOL    HW2 1681   6.042   1.104   1.727  1.7660  0.2193 -1.5315
  291SOL     OW 1682   5.302   4.024   4.279 -0.3531  0.3289 -0.0787
  291SOL    HW1 1683   5.304   4.108   4.233 -0.2180 -0.6244 -1.9025
  291SOL    HW2 1684   5.209   4.008   4.297 -0.4334  0.6208 -0.2342
  292SOL     OW 1685   1.915   3.574   4.225  0.2242  0.1078  0.5921
  292SOL    HW1 1686   1.981   3.621   4.275  1.2754  0.1251 -0.7712
  292SOL    HW2 1687   1.925   3.483   4.252 -0.4619  0.3555  1.7475
  293SOL     OW 1688   0.539   4.985   0.096  0.0165 -0.3369  0.3223
  293SOL    HW1 1689   0.468   4.984   0.160 -0.8817  1.0375 -0.5887
  293SOL    HW2 1690   0.547   4.894   0.068 -1.0835 -0.5925  0.7734
  294SOL     OW 1691   4.404   5.199   4.585 -0.0705 -0.1720  0.3433
  294SOL    HW1 1692   4.446   5.112   4.581 -1.7334 -1.0131  0.3107
  294SOL    HW2 1693   4.316   5.184   4.550  0.1586  1.9077 -1.2892
  295SOL     OW 1694   6.390   7.916   1.216 -0.0960  0.3044 -0.0093
  295SOL    HW1 1695   6.464   7.967   1.249 -0.6334  0.2326  1.3886
  295SOL    HW2 1696   6.313   7.955   1.259 -0.5777 -1.2953  0.6571
  296SOL     OW 1697   3.573   0.388   0.442 -0.2985 -0.6891 -0.1828
  296SOL    HW1 1698   3.524   0.425   0.368 -0.1143  0.1700  0.1046
  296SOL    HW2 1699   3.644   0.338   0.402  0.1746  0.2837 -0.6027
  297SOL     OW 1700   3.764   1.082   7.658  1.1250  0.6756 -0.1467
  297SOL    HW1 1701   3.798   1.102   7.745 -0.6871  1.3713  0.4514
  297SOL    HW2 1702   3.822   1.014   7.624  0.4323 -1.5260  2.6579
  298SOL     OW 1703   0.583   3.872   0.318 -0.4041  0.7819 -0.2179
  298SOL    HW1 1704   0.630   3.799   0.279  3.1804  1.7562  1.7647
  298SOL    HW2 1705   0.565   3.931   0.245 -2.0009 -1.2728 -1.6056
  299SOL     OW 1706   6.989   3.262   2.335 -0.7641 -0.0268 -0.3636
  299SOL    HW1 1707   6.903   3.274   2.374  0.2201  1.6489  1.4631
  299SOL    HW2 1708   7.047   3.245   2.409  0.6979  0.2247 -1.4006
  300SOL     OW 1709   0.411   2.730   0.493  0.1165 -0.5697  0.6929
  300SOL    HW1 1710   0.332   2.736   0.440 -0.7161  0.5074  1.9924
  300SOL    HW2 1711   0.439   2.638   0.485 -0.7074 -0.7324 -0.5273
  301SOL     OW 1712   7.251   4.017   7.353  0.1556  0.2108 -0.5813
  301SOL    HW1 1713   7.156   4.015   7.360  0.1456 -1.4596 -0.7358
  301SOL    HW2 1714   7.276   3.925   7.342  1.8053  0.5987 -0.3237
  302SOL     OW 1715   6.826   5.230   1.157  0.1990  0.2641 -0.2025
  302SOL    HW1 1716   6.772   5.303   1.127  0.6127  2.2769  3.3391
  302SOL    HW2 1717   6.894   5.220   1.090 -0.0170  2.9921 -0.9226
  303SOL     OW 1718   3.004   4.384   6.803  0.3490  0.2049 -0.5322
  303SOL    HW1 1719   2.970   4.303   6.764 -0.2143 -0.5132  1.3279
  303SOL    HW2 1720   3.043   4.356   6.886  1.9543  1.5919 -0.7742
  304SOL     OW 1721   7.192   4.924   3.201  0.3246 -0.9179 -0.3476
  304SOL    HW1 1722   7.130   4.851   3.189 -1.4900  0.0521  2.1749
  304SOL    HW2 1723   7.143   5.001   3.174  1.4812 -0.3787 -0.9640
  305SOL     OW 1724   4.565   0.946   3.253  0.0122 -0.3208  0.9221
  305SOL    HW1 1725   4.553   0.935   3.347 -0.2775  1.4250  1.1244
  305SOL    HW2 1726   4.659   0.937   3.240  0.0999 -0.1768  1.4357
  306SOL     OW 1727   1.330   2.241   1.121 -0.0444 -0.3160 -1.0787
  306SOL    HW1 1728   1.285   2.158   1.104 -0.3607 -0.5444  0.7223
  306SOL    HW2 1729   1.408   2.237   1.065  0.4125 -2.2367 -0.3817
  307SOL     OW 1730   7.912   2.783   2.401 -0.1719  0.3289  0.3935
  307SOL    HW1 1731   7.881   2.873   2.411 -0.3740  0.2136  0.8431
  307SOL    HW2 1732   7.835   2.729   2.420 -0.0465  0.0593  0.1430
  308SOL     OW 1733   4.783   5.544   4.013  0.1921 -0.3729  0.1456
  308SOL    HW1 1734   4.701   5.522   4.057 -0.4194 -0.6631 -1.0707
  308SOL    HW2 1735   4.766   5.523   3.921  1.3427  0.3965 -0.2588
  309SOL     OW 1736   5.628   0.216   3.647 -0.3516  0.0070  0.2871
  309SOL    HW1 1737   5.706   0.174   3.611  0.7106  0.9850  1.3251
  309SOL    HW2 1738   5.661   0.298   3.685 -1.9224  0.5303  0.5965
  310SOL     OW 1739   1.231   4.868   0.194  0.0849  0.0083  0.4253
  310SOL    HW1 1740   1.255   4.949   0.150  0.0006  0.3492  0.9887
  310SOL    HW2 1741   1.254   4.799   0.132  0.3047  0.4524  0.0028
  311SOL     OW 1742   0.392   6.029   1.239 -0.4226  0.8474 -0.2948
  311SOL    HW1 1743   0.396   6.033   1.334  0.9543 -1.9531 -0.1502
  311SOL    HW2 1744   0.321   5.968   1.220 -0.5380  1.2076 -1.0681
  312SOL     OW 1745   5.096   4.045   6.854  0.3895 -0.2343 -0.2983
  312SOL    HW1 1746   5.172   4.097   6.878  1.4997 -1.5692 -0.8007
  312SOL    HW2 1747   5.027   4.076   6.913  1.2799  1.0526  0.1194
  313SOL     OW 1748   4.015   6.076   3.745  0.1921  0.8507 -0.1835
  313SOL    HW1 1749   4.027   6.091   3.652  0.8167  0.1183 -0.2220
  313SOL    HW2 1750   3.974   6.157   3.777 -1.2539  0.5916 -1.3121
  314SOL     OW 1751   3.861   7.005   0.186  0.2026  0.6624 -0.1840
  314SOL    HW1 1752   3.831   6.930   0.136 -0.0570  0.9249 -0.4244
  314SOL    HW2 1753   3.957   7.001   0.181  0.3669 -1.3620  2.2895
  315SOL     OW 1754   0.139   6.396   0.157 -0.1464 -0.6884  0.7023
  315SOL    HW1 1755   0.083   6.331   0.117  0.3974 -0.2408 -0.8690
  315SOL    HW2 1756   0.112   6.479   0.117  1.1045 -0.3688  0.4626
  316SOL     OW 1757   2.632   2.395   1.194  0.6744 -0.3837  0.1299
  316SOL    HW1 1758   2.647   2.467   1.256  0.6000  0.3571 -0.6864
  316SOL    HW2 1759   2.640   2.436   1.108  0.2630 -1.2874 -0.3516
  317SOL     OW 1760   5.691   5.335   1.546 -0.1480 -0.2296  0.2765
  317SOL    HW1 1761   5.606   5.308   1.512 -1.0917  1.0906  1.4679
  317SOL    HW2 1762   5.690   5.309   1.638 -0.2147  1.7443  0.8938
  318SOL     OW 1763   3.794   4.501   4.467 -0.3936 -0.3117 -0.1538
  318SOL    HW1 1764   3.759   4.468   4.384 -1.8582 -0.0449  0.3367
  318SOL    HW2 1765   3.746   4.581   4.484  1.5614  0.9334 -0.1961
  319SOL     OW 1766   5.080   6.586   5.704 -0.3108  0.4594 -0.0651
  319SOL    HW1 1767   5.039   6.566   5.620 -0.4147  1.3470 -0.2359
  319SOL    HW2 1768   5.048   6.518   5.764  0.2752 -0.5660 -0.8832
  320SOL     OW 1769   3.501   0.011   4.894 -0.3602 -0.1315  0.2178
  320SOL    HW1 1770   3.435   0.078   4.875 -0.9311 -0.2221  1.7126
  320SOL    HW2 1771   3.550   0.046   4.968 -1.0306 -1.5673  1.3960
  321SOL     OW 1772   0.267   4.870   2.572 -0.0580  0.1004 -0.1542
  321SOL    HW1 1773   0.319   4.913   2.504  3.4190  1.7348  3.1502
  321SOL    HW2 1774   0.226   4.941   2.620  0.1333 -0.7159  1.2839
  322SOL     OW 1775   0.178   2.947   1.477 -0.8132 -0.1138 -0.1425
  322SOL    HW1 1776   0.263   2.916   1.448 -1.1510 -0.2282 -1.0229
  322SOL    HW2 1777   0.162   3.026   1.426 -1.2646 -0.1266 -0.0232
  323SOL     OW 1778   0.595   0.099   7.772  0.1053 -0.1825 -0.0909
  323SOL    HW1 1779   0.531   0.070   7.708 -0.3974  1.5179 -0.4210
  323SOL    HW2 1780   0.580   0.194   7.780  1.6947  0.0368  0.8160
  324SOL     OW 1781   3.295   7.775   1.172 -0.1068  0.2075 -0.2062
  324SOL    HW1 1782   3.324   7.851   1.122 -0.0702  1.2747  1.3503
  324SOL    HW2 1783   3.375   7.733   1.203 -0.1295 -0.4178 -0.9672
  325SOL     OW 1784   5.714   2.309   2.403 -0.2258 -0.6390  0.2377
  325SOL    HW1 1785   5.729   2.337   2.313  0.5130 -1.8532 -0.0497
  325SOL    HW2 1786   5.624   2.335   2.422 -0.3551 -0.2646 -0.8052
  326SOL     OW 1787   5.071   1.900   1.736  0.3939  0.0738 -0.0939
  326SOL    HW1 1788   5.032   1.890   1.649  2.8698 -0.2316 -1.2701
  326SOL    HW2 1789   5.106   1.813   1.756 -1.1659 -0.1751  1.7993
  327SOL     OW 1790   5.449   6.685   6.925 -0.3738  0.7916 -0.4070
  327SOL    HW1 1791   5.470   6.604   6.879  0.1612 -0.4959  1.9421
  327SOL    HW2 1792   5.377   6.661   6.983 -0.5529  2.1512 -0.0401
  328SOL     OW 1793   2.335   2.055   3.531  0.1750  0.1365 -0.3957
  328SOL    HW1 1794   2.306   2.025   3.445  1.3663 -0.2751 -0.6820
  328SOL    HW2 1795   2.306   2.146   3.537  1.4887  0.6890 -1.9331
  329SOL     OW 1796   7.204   1.244   6.634  0.1956  0.2461  0.7158
  329SOL    HW1 1797   7.122   1.271   6.593  0.2084  0.2408  0.6859
  329SOL    HW2 1798   7.202   1.285   6.721  0.1854  0.2897  0.6951
  330SOL     OW 1799   0.662   5.791   3.669  0.0201 -0.1525  0.0440
  330SOL    HW1 1800   0.723   5.864   3.662  1.1486 -0.9436  1.0677
  330SOL    HW2 1801   0.672   5.760   3.759 -1.6784 -0.5160  0.1338
  331SOL     OW 1802   5.551   2.401   7.436  0.3050 -0.4196 -0.1165
  331SOL    HW1 1803   5.486   2.397   7.365 -0.9067  1.3870  0.8185
  331SOL    HW2 1804   5.631   2.432   7.394 -0.3756  0.5381 -0.7418
  332SOL     OW 1805   3.290   1.444   0.928  0.1682  1.1045  0.1992
  332SOL    HW1 1806   3.326   1.356   0.931  0.3145  0.9486 -2.8952
  332SOL    HW2 1807   3.360   1.497   0.890 -1.5444  1.4217 -2.9050
  333SOL     OW 1808   1.518   6.522   0.581  0.5273 -0.1570 -0.0779
  333SOL    HW1 1809   1.498   6.441   0.534 -3.0228 -0.6248  1.9068
  333SOL    HW2 1810   1.530   6.495   0.672  0.0785  1.4306  0.4846
  334SOL     OW 1811   0.113   0.033   5.651  1.1144  0.7561 -0.4232
  334SOL    HW1 1812   0.137   0.011   5.561 -1.5221 -0.6885 -0.9018
  334SOL    HW2 1813   0.145  -0.042   5.703  0.6811  0.4946 -0.5277
  335SOL     OW 1814   3.190   4.186   0.147 -0.7168 -0.4243 -0.2489
  335SOL    HW1 1815   3.098   4.186   0.119 -1.3661  0.3219  1.6858
  335SOL    HW2 1816   3.213   4.279   0.152 -0.5357 -0.5160  1.2044
  336SOL     OW 1817   1.433   4.678   0.361  0.1216 -0.1522  0.4347
  336SOL    HW1 1818   1.421   4.665   0.267  2.5066 -0.0326  0.0316
  336SOL    HW2 1819   1.494   4.752   0.367 -0.4301  0.1980  2.0999
  337SOL     OW 1820   1.181   6.604   0.476 -0.3549 -0.2427 -0.1252
  337SOL    HW1 1821   1.157   6.521   0.517 -0.5563 -0.2596 -0.2750
  337SOL    HW2 1822   1.264   6.628   0.517  0.0124 -0.8226 -0.5102
  338SOL     OW 1823   3.699   7.770   6.226 -0.0602 -0.1133 -0.1597
  338SOL    HW1 1824   3.640   7.797   6.156 -0.6905 -0.1557  0.3446
  338SOL    HW2 1825   3.647   7.708   6.278  0.1123  0.5203  0.7968
  339SOL     OW 1826   1.027   0.151   0.429  0.4731 -0.6427  0.0248
  339SOL    HW1 1827   1.045   0.130   0.338 -0.8955 -0.6445 -0.2600
  339SOL    HW2 1828   0.938   0.118   0.445  0.0750  0.7724  0.8931
  340SOL     OW 1829   5.296   2.866   0.906  0.1288 -0.2275  0.2257
  340SOL    HW1 1830   5.383   2.879   0.867 -0.3102  0.3860 -0.5792
  340SOL    HW2 1831   5.305   2.898   0.996  0.6070  0.3122 -0.0099
  341SOL     OW 1832   6.942   2.523   1.635 -0.0270 -0.3090  0.6362
  341SOL    HW1 1833   6.850   2.500   1.619  0.4871 -1.2403 -1.2868
  341SOL    HW2 1834   6.972   2.559   1.552  1.0758  1.0721  1.5878
  342SOL     OW 1835   4.591   2.999   1.498 -0.9205  0.2932 -0.1110
  342SOL    HW1 1836   4.599   3.079   1.446  0.8821  0.1631 -0.1111
  342SOL    HW2 1837   4.643   3.016   1.576 -1.2047 -0.5801  0.2779
  343SOL     OW 1838   0.283   7.812   1.908 -0.0673  0.1449 -0.6768
  343SOL    HW1 1839   0.335   7.738   1.877 -0.0017 -0.7142  1.3446
  343SOL    HW2 1840   0.322   7.835   1.993 -1.9488  0.5327  0.1299
  344SOL     OW 1841   1.261   5.694   2.469  0.0231 -0.2126  0.2720
  344SOL    HW1 1842   1.295   5.733   2.388 -3.8741  0.1117 -1.4675
  344SOL    HW2 1843   1.276   5.600   2.458  0.8468 -0.0531 -0.0763
  345SOL     OW 1844   6.444   7.913   6.743  0.3470 -0.0383 -0.2074
  345SOL    HW1 1845   6.463   7.867   6.825  2.6423 -0.7529 -1.0579
  345SOL    HW2 1846   6.482   8.000   6.755  2.6441 -0.8158 -1.1772
  346SOL     OW 1847   5.740   5.617   3.749 -0.5786  0.2235 -0.0146
  346SOL    HW1 1848   5.662   5.563   3.738 -0.0672 -0.4449 -0.3951
  346SOL    HW2 1849   5.720   5.672   3.825 -1.1269 -0.4738  0.3601
  347SOL     OW 1850   5.183   7.938   7.701  0.0920  0.3446  0.4065
  347SOL    HW1 1851   5.112   7.922   7.639  1.3525  1.3084 -1.4018
  347SOL    HW2 1852   5.245   7.867   7.684 -0.3030 -0.3700  1.8197
  348SOL     OW 1853   2.156   4.838   1.843 -0.4490  0.6501  0.1113
  348SOL    HW1 1854   2.154   4.803   1.932 -0.7494 -1.1538 -0.5642
  348SOL    HW2 1855   2.077   4.804   1.802  0.2142  0.5728 -1.1564
  349SOL     OW 1856   0.955   0.044   6.228  0.2613  0.0543 -0.1506
  349SOL    HW1 1857   0.981   0.114   6.169  1.5644  1.0222  1.4905
  349SOL    HW2 1858   1.001  -0.033   6.196 -0.9454 -0.0491 -1.7827
  350SOL     OW 1859   1.718   7.059   4.465  0.4961  0.2928  0.3263
  350SOL    HW1 1860   1.657   6.992   4.433  0.7977 -0.5997  1.5598
  350SOL    HW2 1861   1.677   7.142   4.440  0.4346 -0.3056 -1.8386
  351SOL     OW 1862   6.279   5.614   0.669 -0.0068  0.0051 -0.1774
  351SOL    HW1 1863   6.187   5.622   0.645  0.4139 -1.1972 -2.6086
  351SOL    HW2 1864   6.303   5.525   0.642  1.1288 -0.9267  3.3920
  352SOL     OW 1865   3.257   6.363   1.397 -0.0277 -1.1812 -0.1587
  352SOL    HW1 1866   3.329   6.425   1.409 -1.1933  0.4318 -1.1051
  352SOL    HW2 1867   3.276   6.321   1.312 -1.3148  0.9238 -1.5699
  353SOL     OW 1868   6.651   0.462   1.138  0.5521  0.5103  0.1816
  353SOL    HW1 1869   6.700   0.537   1.104  0.7822  0.2740 -0.0079
  353SOL    HW2 1870   6.718   0.398   1.163  0.3273 -0.4776 -1.5765
  354SOL     OW 1871   4.617   7.203   7.679  0.4129  0.7219 -0.1712
  354SOL    HW1 1872   4.672   7.192   7.757  0.2034 -0.4064 -0.1678
  354SOL    HW2 1873   4.619   7.118   7.636  2.7016  1.9967 -2.8908
  355SOL     OW 1874   1.881   0.721   7.724 -0.0950  0.1759  0.8527
  355SOL    HW1 1875   1.922   0.643   7.761 -0.5097 -0.8834 -0.8109
  355SOL    HW2 1876   1.920   0.794   7.772  2.3381 -0.8756  0.6291
  356SOL     OW 1877   1.890   7.011   2.217  0.1051 -0.1093 -0.4150
  356SOL    HW1 1878   1.927   6.938   2.168 -0.7742 -0.3493 -0.7395
  356SOL    HW2 1879   1.884   7.082   2.153 -1.5304 -0.5798 -0.8319
  357SOL     OW 1880   5.105   7.029   5.728  1.0264 -0.1641 -0.4248
  357SOL    HW1 1881   5.111   7.069   5.641  1.5634 -0.1711 -0.3951
  357SOL    HW2 1882   5.155   7.087   5.785 -2.0114  1.7079  0.6040
  358SOL     OW 1883   3.312   2.222   1.715 -0.3724  0.1988  0.4187
  358SOL    HW1 1884   3.385   2.282   1.729  0.3766 -0.6533  0.2825
  358SOL    HW2 1885   3.237   2.267   1.752  0.7243 -0.1075  3.2500
  359SOL     OW 1886   4.014   4.454   4.647 -0.0042 -0.4689  0.2538
  359SOL    HW1 1887   3.985   4.499   4.726 -1.1159 -0.6218 -0.0526
  359SOL    HW2 1888   3.948   4.475   4.581  1.0377 -0.1369 -0.7129
  360SOL     OW 1889   5.380   6.929   1.542  0.2781 -0.2045  0.7854
  360SOL    HW1 1890   5.329   7.010   1.534 -1.5942 -1.5167 -1.9602
  360SOL    HW2 1891   5.465   6.950   1.504  0.1166  0.6692  0.8838
  361SOL     OW 1892   0.647   2.824   3.502  0.6431  0.1461  0.3823
  361SOL    HW1 1893   0.645   2.885   3.429 -0.3917 -0.9229 -0.5243
  361SOL    HW2 1894   0.722   2.767   3.483 -0.5700 -1.1391 -0.7422
  362SOL     OW 1895   6.529   4.160   3.877 -0.4216 -0.0289 -0.1446
  362SOL    HW1 1896   6.588   4.201   3.813 -0.3608 -0.9263 -0.6805
  362SOL    HW2 1897   6.476   4.099   3.825 -0.7303 -0.3845  0.5825
  363SOL     OW 1898   5.163   2.250   5.420 -0.4180  0.5617  0.4922
  363SOL    HW1 1899   5.100   2.320   5.407 -0.9847  0.3177  1.7389
  363SOL    HW2 1900   5.166   2.238   5.515  0.7921 -0.0890  0.3989
  364SOL     OW 1901   0.649   5.813   4.237 -0.3909 -0.0795  0.5301
  364SOL    HW1 1902   0.661   5.761   4.157 -0.7348  0.6056  0.0310
  364SOL    HW2 1903   0.575   5.870   4.219  0.8001  1.5599  0.5529
  365SOL     OW 1904   7.145   4.217   0.012  0.0807  0.3030 -0.0542
  365SOL    HW1 1905   7.175   4.126   0.018 -0.3172  0.0011 -1.9749
  365SOL    HW2 1906   7.142   4.247   0.103  3.0439 -0.6403  0.4897
  366SOL     OW 1907   3.629   5.715   3.406  0.4696 -0.3346 -0.5682
  366SOL    HW1 1908   3.622   5.634   3.356  2.0972 -1.2246  0.5819
  366SOL    HW2 1909   3.640   5.687   3.497  0.2687  1.2006 -0.0388
  367SOL     OW 1910   5.713   3.962   2.246 -0.4488  0.5249 -0.2025
  367SOL    HW1 1911   5.754   4.047   2.263  0.2900 -0.0622  1.1364
  367SOL    HW2 1912   5.622   3.983   2.225  0.3496  1.8397 -2.8383
  368SOL     OW 1913   3.763   2.629   6.441  0.5396  0.4882 -0.3024
  368SOL    HW1 1914   3.737   2.620   6.533  0.9251 -1.1141 -0.3223
  368SOL    HW2 1915   3.809   2.548   6.421  1.0497  1.1004 -1.7358
  369SOL     OW 1916   6.625   4.911   2.204  0.2469  0.1599 -0.0203
  369SOL    HW1 1917   6.664   4.911   2.292 -0.9903 -1.2057  0.5696
  369SOL    HW2 1918   6.660   4.831   2.163 -2.0423 -1.2755  0.6345
  370SOL     OW 1919   6.204   5.797   5.509 -0.3375  0.1711 -0.3534
  370SOL    HW1 1920   6.177   5.878   5.553 -3.7410 -1.6665  1.3451
  370SOL    HW2 1921   6.295   5.784   5.536 -0.5347  2.0574  1.5157
  371SOL     OW 1922   1.772   2.057   6.959  0.2249 -0.2102  0.2912
  371SOL    HW1 1923   1.755   1.996   6.888 -2.9989  0.5285  0.2608
  371SOL    HW2 1924   1.823   2.007   7.023  1.5115 -1.4668 -1.6236
  372SOL     OW 1925   5.329   6.577   3.194  0.1185  0.3635 -0.5483
  372SOL    HW1 1926   5.371   6.662   3.206 -1.2807  0.9845  0.1145
  372SOL    HW2 1927   5.365   6.523   3.265 -0.6122  1.0652  0.3741
  373SOL     OW 1928   7.446   2.162   5.436 -0.0420 -0.0934 -0.3174
  373SOL    HW1 1929   7.462   2.217   5.360  0.2191 -2.1766 -1.8734
  373SOL    HW2 1930   7.519   2.179   5.495  0.3202  0.7743 -1.0097
  374SOL     OW 1931   5.627   1.842   1.335  1.0026 -0.6706  0.0734
  374SOL    HW1 1932   5.619   1.746   1.336  0.2676 -0.6151  0.1250
  374SOL    HW2 1933   5.681   1.861   1.259 -1.4544 -0.9608 -1.8782
  375SOL     OW 1934   4.361   0.148   3.971  0.2516  0.5165 -0.1960
  375SOL    HW1 1935   4.453   0.122   3.975  0.6064  1.4110 -1.9506
  375SOL    HW2 1936   4.356   0.211   3.900 -1.6269  0.9479  0.2599
  376SOL     OW 1937   7.176   6.781   2.958 -0.4919 -0.3789 -0.4758
  376SOL    HW1 1938   7.239   6.808   2.892  0.1620 -0.0317  0.2781
  376SOL    HW2 1939   7.127   6.710   2.917 -0.2437 -0.0230 -1.4068
  377SOL     OW 1940   0.500   5.819   2.527  0.5879  0.4276 -0.0653
  377SOL    HW1 1941   0.495   5.878   2.452 -0.9959  0.2161 -0.1527
  377SOL    HW2 1942   0.578   5.848   2.575  1.6460  0.5372 -1.7835
  378SOL     OW 1943   4.185   5.697   4.077 -0.4046  0.0401 -0.2840
  378SOL    HW1 1944   4.273   5.660   4.081  1.0071  3.1557  1.2812
  378SOL    HW2 1945   4.127   5.622   4.060  2.3102 -2.4487  0.7551
  379SOL     OW 1946   2.431   6.828   7.007  0.3162 -0.7890 -0.2458
  379SOL    HW1 1947   2.347   6.871   6.997 -0.7706 -2.6284  0.4190
  379SOL    HW2 1948   2.468   6.864   7.087  0.6292  0.6934 -1.0170
  380SOL     OW 1949   0.332   0.792   1.041 -0.1604  0.1453  0.3004
  380SOL    HW1 1950   0.256   0.746   1.077 -0.0213 -0.3147  0.0153
  380SOL    HW2 1951   0.303   0.882   1.030 -1.4155 -0.4625 -1.9419
  381SOL     OW 1952   4.933   5.856   2.589 -0.6463 -0.0711 -0.0202
  381SOL    HW1 1953   4.855   5.864   2.643 -1.4434  0.5980 -1.2204
  381SOL    HW2 1954   4.950   5.946   2.558 -0.7947 -0.5550 -1.6241
  382SOL     OW 1955   4.821   1.823   0.626  0.6481 -0.2324 -0.1382
  382SOL    HW1 1956   4.799   1.876   0.549 -1.3613 -0.5990  0.1183
  382SOL    HW2 1957   4.859   1.886   0.688 -0.1106  0.5914 -0.4750
  383SOL     OW 1958   1.513   1.442   0.510  0.6985 -0.6163  0.7702
  383SOL    HW1 1959   1.579   1.510   0.496 -0.3328  0.2493 -0.0463
  383SOL    HW2 1960   1.469   1.467   0.591 -0.2430  0.1923  0.0323
  384SOL     OW 1961   3.862   7.121   2.494 -0.4176  0.7941 -0.0016
  384SOL    HW1 1962   3.881   7.186   2.562  1.1618 -0.8757  1.2288
  384SOL    HW2 1963   3.933   7.058   2.499 -2.3030 -1.5447 -0.5641
  385SOL     OW 1964   7.734   5.314   4.596 -0.8601  0.1364 -0.1350
  385SOL    HW1 1965   7.674   5.386   4.616 -0.5260  0.1437  0.8783
  385SOL    HW2 1966   7.716   5.248   4.662  1.3024  0.7778  1.2148
  386SOL     OW 1967   6.855   1.049   3.144  0.1804 -0.2373 -0.4656
  386SOL    HW1 1968   6.875   1.116   3.079 -0.7381 -1.8388 -2.5157
  386SOL    HW2 1969   6.841   0.969   3.093 -0.1865 -1.6878  1.7526
  387SOL     OW 1970   6.519   0.979   5.238 -0.4382  0.0178  0.2575
  387SOL    HW1 1971   6.444   1.002   5.182 -0.0142 -2.5330 -1.5308
  387SOL    HW2 1972   6.595   1.017   5.194 -0.3523  0.0718  0.4498
  388SOL     OW 1973   4.071   5.404   5.453 -0.2071  0.1127  0.7666
  388SOL    HW1 1974   4.073   5.372   5.543 -0.4092  0.5596  0.9316
  388SOL    HW2 1975   3.995   5.462   5.449 -1.3225 -1.3433 -0.2041
  389SOL     OW 1976   4.087   2.203   2.081  0.0751 -0.4085 -0.0394
  389SOL    HW1 1977   4.177   2.191   2.112  0.7041 -0.1513 -1.6579
  389SOL    HW2 1978   4.057   2.281   2.126  0.9329 -0.0707 -0.0224
  390SOL     OW 1979   3.762   0.507   2.982 -0.0404  0.8709  1.3826
  390SOL    HW1 1980   3.852   0.533   3.001  1.3932 -1.2790 -1.5731
  390SOL    HW2 1981   3.752   0.422   3.025 -0.4438  0.8328  1.2191
  391SOL     OW 1982   5.874   5.294   7.220 -0.1679  0.2798 -0.2560
  391SOL    HW1 1983   5.925   5.216   7.197  0.4800  1.1768 -2.0658
  391SOL    HW2 1984   5.920   5.331   7.296  1.3887  0.5703 -1.2891
  392SOL     OW 1985   2.795   0.127   7.677  0.6650 -0.1167 -0.0209
  392SOL    HW1 1986   2.720   0.182   7.701  0.1871 -1.3961  1.6132
  392SOL    HW2 1987   2.872   0.177   7.704  0.3500  0.6334 -0.4819
  393SOL     OW 1988   7.342   4.265   1.447  0.5038  0.3941  0.0797
  393SOL    HW1 1989   7.319   4.262   1.355 -0.1367 -2.5716  0.2360
  393SOL    HW2 1990   7.268   4.308   1.490  0.5956  1.3586 -0.7069
  394SOL     OW 1991   5.691   7.587   2.298  0.7654  0.1293 -0.3773
  394SOL    HW1 1992   5.767   7.601   2.241  0.8578 -1.9501 -0.8473
  394SOL    HW2 1993   5.645   7.512   2.259 -2.1803  1.9465 -0.7586
  395SOL     OW 1994   5.401   1.214   6.089 -0.3702  0.0003 -0.0571
  395SOL    HW1 1995   5.355   1.217   6.173  1.6668  1.3677  1.0922
  395SOL    HW2 1996   5.413   1.120   6.072  2.6151 -0.4481  3.2948
  396SOL     OW 1997   3.555   3.628   3.950 -0.2674 -0.3276 -0.0341
  396SOL    HW1 1998   3.552   3.533   3.948  1.3387 -0.4012 -1.2971
  396SOL    HW2 1999   3.536   3.651   4.041 -0.3213 -1.8571  0.3709
  397SOL     OW 2000   3.269   4.147   1.161 -0.1687  0.4529 -0.0961
  397SOL    HW1 2001   3.227   4.232   1.142  1.5489  1.4599  0.3808
  397SOL    HW2 2002   3.358   4.170   1.187  0.6279 -1.5871 -0.8310
  398SOL     OW 2003   1.368   0.889   5.245  0.0269 -0.1652  0.1585
  398SOL    HW1 2004   1.335   0.807   5.282 -1.4418  0.5778  0.5607
  398SOL    HW2 2005   1.368   0.873   5.150  0.2795 -0.7965  0.2543
  399SOL     OW 2006   4.135   3.123   6.250  0.1292  0.3217 -0.1938
  399SOL    HW1 2007   4.072   3.169   6.306  0.7689  1.5535 -0.4514
  399SOL    HW2 2008   4.158   3.187   6.182  1.4183 -0.2103 -0.2878
  400SOL     OW 2009   6.289   2.534   5.275 -0.2251 -0.0165 -0.5021
  400SOL    HW1 2010   6.350   2.606   5.288 -1.4087  1.1924 -1.3983
  400SOL    HW2 2011   6.225   2.543   5.346  0.2660 -0.9248  0.0835
  401SOL     OW 2012   4.647   5.488   3.235  0.0012  0.0001  0.2792
  401SOL    HW1 2013   4.592   5.410   3.223 -1.3188  0.6238  1.8105
  401SOL    HW2 2014   4.585   5.556   3.264  1.2694  1.3535 -0.0943
  402SOL     OW 2015   6.121   6.150   1.340 -0.9185 -0.0868 -1.0716
  402SOL    HW1 2016   6.189   6.157   1.273 -0.7656  0.6888 -0.8463
  402SOL    HW2 2017   6.102   6.056   1.346  1.7991 -0.6339  0.5501
  403SOL     OW 2018   2.954   3.321   2.265  0.5079  0.2352  0.0772
  403SOL    HW1 2019   3.012   3.250   2.289  1.6036  0.7879 -0.8406
  403SOL    HW2 2020   2.871   3.278   2.244  0.6983 -0.6063  0.9787
  404SOL     OW 2021   7.782   6.772   1.789 -0.0942  0.2458  0.3697
  404SOL    HW1 2022   7.702   6.818   1.815 -0.1489  0.5357 -0.2831
  404SOL    HW2 2023   7.765   6.681   1.810 -1.8158 -0.2090 -2.4232
  405SOL     OW 2024   0.539   1.835   1.257 -0.2558  0.1768  0.1667
  405SOL    HW1 2025   0.506   1.750   1.228 -0.3037  0.0361  0.6179
  405SOL    HW2 2026   0.468   1.872   1.310  0.1564  0.0345  0.8363
  406SOL     OW 2027   7.991   1.710   4.667  0.5208 -0.7144  0.2082
  406SOL    HW1 2028   7.915   1.768   4.671 -0.0534 -1.4988  1.4294
  406SOL    HW2 2029   8.031   1.717   4.754  1.5075 -0.7756 -0.2221
  407SOL     OW 2030   7.977   7.742   4.494 -0.2275 -0.2745 -0.0648
  407SOL    HW1 2031   7.899   7.718   4.544 -0.2600 -0.1810 -0.0696
  407SOL    HW2 2032   7.958   7.830   4.462  0.1088 -0.0184  0.4136
  408SOL     OW 2033   3.140   6.580   0.215  0.3679 -0.0202 -0.7472
  408SOL    HW1 2034   3.218   6.595   0.161  0.7642 -2.9268 -1.1304
  408SOL    HW2 2035   3.074   6.640   0.180  0.8809 -1.1135 -3.9057
  409SOL     OW 2036   2.507   5.140   1.606 -0.1764 -0.2225 -0.3424
  409SOL    HW1 2037   2.574   5.086   1.647 -0.8773 -0.8030  0.0605
  409SOL    HW2 2038   2.426   5.090   1.616 -0.4376 -0.1949 -2.0949
  410SOL     OW 2039   3.541   2.281   0.876 -0.5364  0.6172 -0.0637
  410SOL    HW1 2040   3.500   2.338   0.941 -0.3905 -0.0387  0.6271
  410SOL    HW2 2041   3.635   2.290   0.892 -0.5460 -1.0596  1.1896
  411SOL     OW 2042   2.193   4.955   4.758  0.1225 -0.2848  0.3022
  411SOL    HW1 2043   2.167   4.865   4.740 -0.2241  0.2462 -2.4043
  411SOL    HW2 2044   2.111   5.005   4.753  0.5328  0.3771  0.0025
  412SOL     OW 2045   6.554   6.290   6.108  0.1826  0.1877 -0.1950
  412SOL    HW1 2046   6.533   6.377   6.074  2.1262  0.3547 -1.1508
  412SOL    HW2 2047   6.617   6.255   6.045  2.3929 -0.3309  2.1502
  413SOL     OW 2048   5.207   5.574   5.145  0.0092  0.2423 -0.7057
  413SOL    HW1 2049   5.262   5.533   5.078 -1.0102  1.1676 -2.1670
  413SOL    HW2 2050   5.146   5.629   5.096 -0.3584  1.4763  1.0365
  414SOL     OW 2051   5.014   4.347   3.126  0.0348 -0.6896 -0.0652
  414SOL    HW1 2052   4.962   4.405   3.183 -0.8128 -1.8982  0.4544
  414SOL    HW2 2053   5.052   4.405   3.061 -1.6788  0.3291 -0.2365
  415SOL     OW 2054   3.793   0.026   3.184  0.1078 -0.1478 -0.3171
  415SOL    HW1 2055   3.781  -0.038   3.254  1.2269 -0.1956 -0.1492
  415SOL    HW2 2056   3.888   0.028   3.170  0.3310  2.6948  0.8666
  416SOL     OW 2057   0.590   2.700   7.780 -0.1634  0.1236  0.0073
  416SOL    HW1 2058   0.546   2.654   7.851 -0.0693  1.0056  0.6525
  416SOL    HW2 2059   0.645   2.634   7.739 -0.3855 -0.4504  0.6227
  417SOL     OW 2060   4.616   2.317   0.529  0.0694 -0.1650  0.3733
  417SOL    HW1 2061   4.594   2.322   0.622  1.9821 -2.7173  1.0844
  417SOL    HW2 2062   4.701   2.362   0.523  0.5010 -0.9955  0.1228
  418SOL     OW 2063   3.842   2.228   3.036  0.1243 -0.6067  0.5616
  418SOL    HW1 2064   3.931   2.220   3.070  0.6498 -0.7958 -0.8186
  418SOL    HW2 2065   3.828   2.322   3.028  0.5901 -0.5918 -0.1803
  419SOL     OW 2066   0.205   7.011   5.419 -0.5512 -0.0195  0.3199
  419SOL    HW1 2067   0.224   7.039   5.329  0.7646 -0.2949  0.4984
  419SOL    HW2 2068   0.194   7.093   5.467 -1.5946  0.1285 -0.1420
  420SOL     OW 2069   4.504   0.458   7.509 -0.5475  1.0676 -0.2891
  420SOL    HW1 2070   4.449   0.449   7.431 -1.4267  0.2287  0.3965
  420SOL    HW2 2071   4.582   0.505   7.478 -1.0576  1.1212 -1.5729
  421SOL     OW 2072   1.586   1.277   2.459  0.0503 -0.7265  0.1451
  421SOL    HW1 2073   1.649   1.245   2.395 -0.4701 -0.0473 -0.7327
  421SOL    HW2 2074   1.586   1.210   2.528  0.1344 -1.8142 -0.8756
  422SOL     OW 2075   2.272   3.798   2.271 -0.2071  0.1201  0.3627
  422SOL    HW1 2076   2.324   3.878   2.275 -0.7336  0.5208 -0.5241
  422SOL    HW2 2077   2.224   3.797   2.353 -0.6718  1.0572  0.1138
  423SOL     OW 2078   7.671   7.328   0.254 -0.0389  0.1070 -0.2137
  423SOL    HW1 2079   7.669   7.423   0.242 -0.2825  0.0711 -0.4804
  423SOL    HW2 2080   7.737   7.298   0.191  2.2495  0.3650  1.9064
  424SOL     OW 2081   6.534   2.995   5.246  0.3213  0.1370  0.5651
  424SOL    HW1 2082   6.503   3.028   5.162  0.4113  2.0945  1.2607
  424SOL    HW2 2083   6.625   2.971   5.230  0.3397  0.5026  0.1096
  425SOL     OW 2084   2.406   4.611   4.169 -0.1539 -0.3379  0.2613
  425SOL    HW1 2085   2.355   4.548   4.118  1.1198 -0.5952 -0.7258
  425SOL    HW2 2086   2.489   4.620   4.122  0.6892  0.1597  1.7571
  426SOL     OW 2087   4.674   3.126   5.750 -0.1842 -0.6180  0.5381
  426SOL    HW1 2088   4.608   3.163   5.692  0.0917 -1.0844 -0.0866
  426SOL    HW2 2089   4.748   3.187   5.745 -0.8757  0.3785  1.9267
  427SOL     OW 2090   7.478   5.784   4.571  0.0562  0.1543  0.6770
  427SOL    HW1 2091   7.436   5.843   4.508 -0.6526  1.6468  2.4499
  427SOL    HW2 2092   7.541   5.839   4.617  0.1166 -0.7273  1.6911
  428SOL     OW 2093   2.055   0.326   7.515  0.3258  0.3716 -0.2847
  428SOL    HW1 2094   1.979   0.356   7.465  0.1384 -0.8335 -0.7653
  428SOL    HW2 2095   2.109   0.280   7.451 -0.1172 -1.5724  0.6620
  429SOL     OW 2096   5.346   4.883   2.844 -0.1547 -0.7361 -0.3681
  429SOL    HW1 2097   5.377   4.815   2.784 -1.5659 -1.1375 -0.6896
  429SOL    HW2 2098   5.417   4.946   2.848  0.1714 -0.9398 -2.0954
  430SOL     OW 2099   4.205   5.052   5.171 -0.2582  0.0172 -0.4163
  430SOL    HW1 2100   4.250   5.135   5.158 -2.2934  1.0524 -1.4440
  430SOL    HW2 2101   4.128   5.074   5.225  0.2830 -1.6352  1.1710
  431SOL     OW 2102   4.816   4.382   1.154  0.1526  0.1849  0.0233
  431SOL    HW1 2103   4.879   4.313   1.172  0.2634  0.4702  0.7585
  431SOL    HW2 2104   4.735   4.353   1.196 -0.1566 -0.0738 -0.7229
  432SOL     OW 2105   5.845   6.250   4.152  0.1783  0.0432  0.7585
  432SOL    HW1 2106   5.779   6.310   4.187 -1.3095 -0.9364 -0.2436
  432SOL    HW2 2107   5.807   6.218   4.070  0.1428 -3.3889  1.9385
  433SOL     OW 2108   6.570   7.261   1.852  0.5208  0.6788 -0.2154
  433SOL    HW1 2109   6.508   7.294   1.787  1.8203  1.3961 -1.1420
  433SOL    HW2 2110   6.647   7.234   1.801  0.8390 -0.5555  0.8575
  434SOL     OW 2111   5.643   3.679   0.339 -0.2160  0.3108 -0.8890
  434SOL    HW1 2112   5.550   3.690   0.318 -0.5862  1.7829  1.1609
  434SOL    HW2 2113   5.644   3.615   0.410  0.0653  1.7661  0.4925
  435SOL     OW 2114   7.076   1.471   5.370 -0.3521  0.0616 -0.3170
  435SOL    HW1 2115   7.170   1.456   5.383 -0.4836 -0.6463 -0.1599
  435SOL    HW2 2116   7.035   1.390   5.399 -1.0569  0.5702  0.1305
  436SOL     OW 2117   7.888   7.783   5.835 -0.5095 -0.5714  0.6982
  436SOL    HW1 2118   7.828   7.769   5.762  0.6269 -2.3074  0.0408
  436SOL    HW2 2119   7.836   7.763   5.913 -1.4941  0.5067  0.3493
  437SOL     OW 2120   2.134   5.788   7.813 -0.0176 -0.6422 -0.2217
  437SOL    HW1 2121   2.043   5.772   7.839 -0.4111  0.7818 -0.6277
  437SOL    HW2 2122   2.137   5.763   7.720 -0.4856  0.9704 -0.7007
  438SOL     OW 2123   3.701   2.886   4.119 -0.3790  0.2430  0.4023
  438SOL    HW1 2124   3.666   2.837   4.044  1.2291  0.6075 -0.6341
  438SOL    HW2 2125   3.761   2.825   4.162  1.3605  1.1100 -0.6865
  439SOL     OW 2126   0.406   7.660   2.833  0.4304 -0.7344 -0.7326
  439SOL    HW1 2127   0.370   7.658   2.744 -0.1443 -2.7712 -0.5134
  439SOL    HW2 2128   0.362   7.732   2.876 -1.2459 -1.3391 -1.3561
  440SOL     OW 2129   2.569   4.308   1.403  0.1134  0.5863 -0.1160
  440SOL    HW1 2130   2.547   4.237   1.343 -0.9021  0.7643  0.0216
  440SOL    HW2 2131   2.555   4.271   1.490  0.9787  0.5211  0.0029
  441SOL     OW 2132   1.114   4.220   6.464  0.0233 -0.2800  0.3174
  441SOL    HW1 2133   1.107   4.125   6.457 -1.1066 -0.2303  0.7115
  441SOL    HW2 2134   1.140   4.248   6.376  1.4713 -1.0285  0.4711
  442SOL     OW 2135   6.858   7.258   7.014  0.0297 -0.0291 -0.2156
  442SOL    HW1 2136   6.821   7.246   7.101  0.0432 -0.9937 -0.3285
  442SOL    HW2 2137   6.928   7.322   7.025 -0.8638  0.8806  0.2275
  443SOL     OW 2138   5.720   6.287   5.770  0.2432  0.1596  0.6972
  443SOL    HW1 2139   5.648   6.287   5.833  0.2292 -0.7228  0.7008
  443SOL    HW2 2140   5.690   6.229   5.699  0.9606 -0.2654  0.7273
  444SOL     OW 2141   3.756   6.518   5.162  0.3861 -0.1415  0.2971
  444SOL    HW1 2142   3.665   6.488   5.158  0.6107 -0.9595  1.0552
  444SOL    HW2 2143   3.759   6.594   5.103 -0.0196 -2.0232 -2.3459
  445SOL     OW 2144   1.997   2.277   6.868 -0.4094  0.0479 -0.1705
  445SOL    HW1 2145   1.948   2.213   6.921  0.6578 -1.2508 -0.7045
  445SOL    HW2 2146   2.085   2.241   6.863  0.0789  1.3112 -0.9560
  446SOL     OW 2147   1.224   1.333   1.076  0.6076 -0.0458  0.5436
  446SOL    HW1 2148   1.187   1.329   1.164  0.8304  1.8568  0.7658
  446SOL    HW2 2149   1.155   1.297   1.019  0.0957 -0.4321  1.3932
  447SOL     OW 2150   1.453   0.982   5.721  0.6894 -0.7685 -0.0348
  447SOL    HW1 2151   1.373   0.930   5.709 -0.9453  1.7380 -0.8971
  447SOL    HW2 2152   1.468   1.023   5.636  1.9311  0.1279  0.5910
  448SOL     OW 2153   4.928   7.845   7.874 -0.4557  0.5796  0.2260
  448SOL    HW1 2154   4.960   7.917   7.928 -1.2779  0.6509  0.6308
  448SOL    HW2 2155   4.943   7.874   7.784  0.6252  0.5955  0.3938
  449SOL     OW 2156   3.134   7.723   5.858  0.1899 -0.0954  0.0892
  449SOL    HW1 2157   3.064   7.711   5.922  1.2188 -0.1866  1.2368
  449SOL    HW2 2158   3.158   7.634   5.832  0.4722 -0.1016  0.3669
  450SOL     OW 2159   4.057   5.675   6.781 -0.3972  0.1741  0.1763
  450SOL    HW1 2160   4.147   5.663   6.812 -1.0967 -1.3580  1.7835
  450SOL    HW2 2161   4.067   5.705   6.691  1.7186 -0.7323  0.0486
  451SOL     OW 2162   5.930   0.497   2.419  0.3069 -0.3828 -0.0605
  451SOL    HW1 2163   5.902   0.538   2.501  3.5502  0.1336  0.9325
  451SOL    HW2 2164   5.931   0.569   2.356 -2.0124 -0.7453 -0.6251
  452SOL     OW 2165   3.081   3.027   2.089  0.4080 -0.1395  0.5833
  452SOL    HW1 2166   3.002   3.065   2.050  0.0587 -2.5357 -1.2908
  452SOL    HW2 2167   3.152   3.061   2.034  0.5514  0.8067  1.3265
  453SOL     OW 2168   3.256   6.219   0.750 -0.3632  0.6274 -0.0000
  453SOL    HW1 2169   3.177   6.217   0.696 -0.8906  2.4969  0.6153
  453SOL    HW2 2170   3.284   6.311   0.747  0.9400  0.2903  1.0065
  454SOL     OW 2171   7.998   1.767   4.936  0.0607 -0.2572  0.5394
  454SOL    HW1 2172   7.947   1.716   4.999 -1.5620 -0.7976 -1.1308
  454SOL    HW2 2173   7.988   1.858   4.965 -4.5069  0.0708 -1.3010
  455SOL     OW 2174   7.574   4.460   5.976  0.0614  0.2628 -0.3381
  455SOL    HW1 2175   7.482   4.443   5.998  0.4341  0.8757  2.0227
  455SOL    HW2 2176   7.578   4.555   5.961  0.5461  0.5498  1.3186
  456SOL     OW 2177   5.957   6.707   0.002  0.4941 -0.4845  0.0080
  456SOL    HW1 2178   6.005   6.789  -0.007  1.0027 -0.8085 -0.2411
  456SOL    HW2 2179   5.882   6.729   0.058 -0.1506  0.4811 -1.1894
  457SOL     OW 2180   1.079   6.943   0.036 -0.0071  0.5625 -0.3636
  457SOL    HW1 2181   1.023   7.020   0.050 -0.4506  0.5247 -1.8349
  457SOL    HW2 2182   1.130   6.937   0.117 -2.2313  0.5023  1.1490
  458SOL     OW 2183   5.706   2.505   7.075  0.8125 -0.2714  0.0731
  458SOL    HW1 2184   5.730   2.462   7.157  0.5355 -0.6124 -0.0206
  458SOL    HW2 2185   5.746   2.450   7.007 -0.0167 -0.7117 -0.0749
  459SOL     OW 2186   4.056   0.075   0.720  0.2281  0.4748  0.3251
  459SOL    HW1 2187   4.045   0.161   0.678 -1.1127  0.6212  0.9287
  459SOL    HW2 2188   4.089   0.018   0.650  0.2876  1.2675 -0.3093
  460SOL     OW 2189   7.132   0.856   0.448 -0.0935  0.1133 -0.3859
  460SOL    HW1 2190   7.104   0.793   0.382 -0.8928  1.1154 -1.0260
  460SOL    HW2 2191   7.084   0.830   0.527  0.7569 -0.9991 -0.2025
  461SOL     OW 2192   2.424   7.553   6.256 -0.2058 -0.2024  0.1159
  461SOL    HW1 2193   2.484   7.618   6.220 -0.0886  0.6573  1.7568
  461SOL    HW2 2194   2.479   7.493   6.305 -0.3930 -1.1757 -0.8334
  462SOL     OW 2195   0.093   4.403   1.107  0.0659  0.1410 -0.4346
  462SOL    HW1 2196  -0.002   4.399   1.119  0.0329 -0.6503 -0.8596
  462SOL    HW2 2197   0.129   4.404   1.196 -0.3691  2.0026 -0.2402
  463SOL     OW 2198   0.789   1.332   7.381 -0.4398 -0.0425  0.2798
  463SOL    HW1 2199   0.715   1.391   7.396 -0.2042 -0.3269  3.1269
  463SOL    HW2 2200   0.766   1.252   7.426  1.0530 -0.6197  0.0867
  464SOL     OW 2201   4.070   1.168   7.540 -0.2335  0.1216 -0.6277
  464SOL    HW1 2202   4.050   1.229   7.469 -0.2199 -0.7782 -1.4209
  464SOL    HW2 2203   4.141   1.113   7.506 -0.4087 -0.4967 -0.0252
  465SOL     OW 2204   6.631   6.715   3.501  0.1531 -0.2373  0.1193
  465SOL    HW1 2205   6.669   6.784   3.446  0.2945 -0.5393 -0.1734
  465SOL    HW2 2206   6.573   6.761   3.561 -1.5305 -0.0456 -1.5482
  466SOL     OW 2207   1.093   1.940   5.328  0.3184  0.4492 -0.2669
  466SOL    HW1 2208   1.083   1.891   5.247  1.1209  0.5218 -0.4177
  466SOL    HW2 2209   1.114   2.029   5.299  0.5339  0.4914  0.0204
  467SOL     OW 2210   3.742   0.174   2.131 -0.5546 -0.3971  0.1369
  467SOL    HW1 2211   3.811   0.237   2.151 -1.5382  0.1250  2.2340
  467SOL    HW2 2212   3.664   0.227   2.113 -1.3001 -0.9516  1.5303
  468SOL     OW 2213   0.119   5.610   1.386 -0.1938 -0.3897  0.1231
  468SOL    HW1 2214   0.098   5.680   1.447 -0.9926 -0.7475  0.2697
  468SOL    HW2 2215   0.203   5.636   1.347  0.7635 -0.5611  1.9807
  469SOL     OW 2216   3.013   5.715   5.254  0.2000  0.4013 -0.2075
  469SOL    HW1 2217   3.032   5.791   5.199  0.6160  0.0349 -0.5790
  469SOL    HW2 2218   2.925   5.731   5.289  1.1262  2.1252  1.5185
  470SOL     OW 2219   3.654   2.124   2.270  0.1230  0.2606  0.4752
  470SOL    HW1 2220   3.630   2.215   2.286  1.3301  0.6500  0.2074
  470SOL    HW2 2221   3.693   2.126   2.182 -0.5573 -0.6622  0.1432
  471SOL     OW 2222   1.737   1.292   3.275  0.0828 -0.5501 -0.5596
  471SOL    HW1 2223   1.714   1.211   3.229  1.2229  0.0652 -2.3361
  471SOL    HW2 2224   1.809   1.266   3.333 -1.0600 -1.2461  0.5941
  472SOL     OW 2225   7.463   2.590   5.644 -0.4271 -0.1869  0.2280
  472SOL    HW1 2226   7.447   2.568   5.552 -2.5004 -1.4703  0.8361
  472SOL    HW2 2227   7.389   2.647   5.667 -0.4939 -0.7152  1.3611
  473SOL     OW 2228   0.940   4.858   7.262 -0.0817  0.1103  0.0317
  473SOL    HW1 2229   0.891   4.798   7.318 -0.1471 -0.8982 -1.0890
  473SOL    HW2 2230   1.008   4.894   7.320 -0.9427  0.0871  1.0946
  474SOL     OW 2231   7.459   4.292   2.655 -0.1267 -0.2581  0.2748
  474SOL    HW1 2232   7.462   4.276   2.561 -0.1140  0.4080  0.1556
  474SOL    HW2 2233   7.550   4.297   2.682 -0.1229  0.8826  0.0789
  475SOL     OW 2234   1.459   5.378   1.747  0.2039  0.0026 -0.3314
  475SOL    HW1 2235   1.538   5.398   1.697  0.4865  1.0006  0.4691
  475SOL    HW2 2236   1.429   5.463   1.780 -2.1901 -0.0761 -1.9962
  476SOL     OW 2237   2.853   6.444   5.891 -0.3174 -0.0814 -0.6195
  476SOL    HW1 2238   2.848   6.358   5.933  0.5124  0.4234  0.5791
  476SOL    HW2 2239   2.895   6.427   5.807 -0.2155 -0.8542 -0.4213
  477SOL     OW 2240   3.648   2.495   7.160  0.7606  0.3758 -0.6722
  477SOL    HW1 2241   3.626   2.510   7.068  1.1039  0.9222 -0.6661
  477SOL    HW2 2242   3.607   2.568   7.206 -0.4221 -0.5194 -0.2365
  478SOL     OW 2243   7.093   4.766   3.941  0.5387  0.0471 -0.2726
  478SOL    HW1 2244   7.138   4.700   3.888 -0.2098  0.3726 -1.3498
  478SOL    HW2 2245   7.160   4.831   3.961  1.5050 -1.3963  1.5117
  479SOL     OW 2246   1.752   4.120   0.683 -0.4983  0.2551  0.2440
  479SOL    HW1 2247   1.781   4.034   0.713 -0.7122  0.1966  0.2853
  479SOL    HW2 2248   1.659   4.108   0.663 -0.4588  0.4044 -0.0240
  480SOL     OW 2249   1.069   3.225   1.881  0.1020  0.1262 -0.2190
  480SOL    HW1 2250   1.152   3.233   1.926  0.4903  0.0291 -0.9057
  480SOL    HW2 2251   1.005   3.264   1.941  0.4667 -0.7704  0.7718
  481SOL     OW 2252   2.995   6.482   5.429  0.2970  0.1239 -0.5120
  481SOL    HW1 2253   2.908   6.447   5.446  0.6879 -0.3681  0.5488
  481SOL    HW2 2254   3.037   6.415   5.374  0.5107 -0.3747  0.2349
  482SOL     OW 2255   7.135   4.216   5.448 -0.1190  0.7255  0.3969
  482SOL    HW1 2256   7.193   4.140   5.440  0.2649  0.9764  0.7442
  482SOL    HW2 2257   7.065   4.186   5.506 -0.9238  0.0849 -0.8579
  483SOL     OW 2258   5.264   1.881   0.780  0.1062  0.0748  0.2190
  483SOL    HW1 2259   5.237   1.943   0.712 -0.7032 -0.5697 -0.0651
  483SOL    HW2 2260   5.182   1.851   0.819  0.4468 -1.1289  0.0671
  484SOL     OW 2261   0.263   6.102   3.210 -0.2839 -0.6162  0.0711
  484SOL    HW1 2262   0.235   6.183   3.167  0.8675 -0.7999 -1.0900
  484SOL    HW2 2263   0.275   6.040   3.139 -0.4299 -1.6095  0.8835
  485SOL     OW 2264   6.993   0.329   5.566 -0.2863  0.1817 -0.1239
  485SOL    HW1 2265   7.049   0.252   5.566 -2.2031 -1.5593  4.3376
  485SOL    HW2 2266   7.050   0.401   5.540  2.5000 -2.1856 -1.0555
  486SOL     OW 2267   2.758   7.098   7.475 -0.4469 -0.6281  0.3960
  486SOL    HW1 2268   2.767   7.176   7.530  1.1214 -0.5669  0.1025
  486SOL    HW2 2269   2.844   7.056   7.479 -0.1756 -0.4816 -2.1972
  487SOL     OW 2270   1.724   0.769   3.374  0.6808 -0.2134  0.1202
  487SOL    HW1 2271   1.813   0.737   3.386  0.0353 -2.1636 -0.0440
  487SOL    HW2 2272   1.699   0.805   3.460  2.7613  3.6471 -0.6462
  488SOL     OW 2273   6.124   1.750   1.043 -0.1820 -0.3590 -0.0620
  488SOL    HW1 2274   6.122   1.658   1.016 -0.2337 -0.2254 -0.5193
  488SOL    HW2 2275   6.190   1.753   1.113 -1.3017 -1.0425  1.0780
  489SOL     OW 2276   4.836   5.278   6.850  0.7972 -0.0467  0.1996
  489SOL    HW1 2277   4.801   5.215   6.914  0.9966 -1.0067 -0.6121
  489SOL    HW2 2278   4.923   5.244   6.829  2.0616  2.0066  1.7745
  490SOL     OW 2279   4.507   0.663   1.124 -0.0803  0.1655 -0.1260
  490SOL    HW1 2280   4.472   0.575   1.136 -2.6460  1.0810 -0.3367
  490SOL    HW2 2281   4.528   0.669   1.031 -0.4386 -0.0465 -0.2189
  491SOL     OW 2282   2.711   3.624   2.277 -1.0702  0.1921  0.6250
  491SOL    HW1 2283   2.745   3.598   2.191 -3.0628  2.0527 -0.8186
  491SOL    HW2 2284   2.616   3.614   2.269 -1.4800  2.5173  1.8265
  492SOL     OW 2285   3.648   0.927   0.607 -0.1606  0.7689  0.4832
  492SOL    HW1 2286   3.592   0.865   0.654  1.6882 -1.6058 -0.2552
  492SOL    HW2 2287   3.679   0.986   0.675 -0.6519 -0.1512  1.5561
  493SOL     OW 2288   5.882   7.167   1.012  0.4342 -0.0185 -0.0622
  493SOL    HW1 2289   5.895   7.201   1.100 -0.6931  1.0330 -0.2867
  493SOL    HW2 2290   5.935   7.087   1.010 -2.1384 -1.9851  2.6690
  494SOL     OW 2291   2.432   6.461   2.216  0.3784  0.6268  0.0717
  494SOL    HW1 2292   2.413   6.506   2.299  1.3885  0.6949  0.2830
  494SOL    HW2 2293   2.362   6.396   2.208  0.0446  0.8767  0.7795
  495SOL     OW 2294   4.929   7.045   6.090  0.2381  0.3934  0.4026
  495SOL    HW1 2295   5.019   7.073   6.079  0.8902 -1.1427  1.3693
  495SOL    HW2 2296   4.879   7.126   6.100  1.6125  1.2514  0.5886
  496SOL     OW 2297   4.885   7.793   3.406 -0.1097  0.4321 -0.3522
  496SOL    HW1 2298   4.823   7.752   3.346 -0.3569  0.6881 -0.2711
  496SOL    HW2 2299   4.932   7.857   3.353  0.4446 -0.1171 -0.5370
  497SOL     OW 2300   3.699   3.219   2.806  0.2326  0.1252  0.2901
  497SOL    HW1 2301   3.748   3.297   2.832 -1.6933  2.0529 -1.4955
  497SOL    HW2 2302   3.767   3.154   2.784  2.0120  2.3540 -1.2168
  498SOL     OW 2303   0.099   0.056   6.689 -1.0098  0.2627  0.2264
  498SOL    HW1 2304   0.050  -0.027   6.690  2.6717 -2.2249  2.8891
  498SOL    HW2 2305   0.138   0.060   6.602 -3.4575  0.8944 -0.9571
  499SOL     OW 2306   5.913   6.678   5.296 -0.3284  0.2387  0.3590
  499SOL    HW1 2307   5.910   6.715   5.385  2.5179  3.1966 -0.5846
  499SOL    HW2 2308   5.951   6.591   5.308  0.1958  0.6536  2.0119
  500SOL     OW 2309   2.365   1.801   4.116  0.4886  0.0308 -0.0761
  500SOL    HW1 2310   2.447   1.851   4.111  1.2831 -1.0955  0.9853
  500SOL    HW2 2311   2.382   1.734   4.181 -0.9583 -0.8768 -0.5795
  501SOL     OW 2312   5.161   5.747   2.660  0.1966 -0.5731 -0.1038
  501SOL    HW1 2313   5.079   5.792   2.638 -0.1388 -1.6819 -1.1579
  501SOL    HW2 2314   5.216   5.758   2.583  1.1018  0.2264  0.6257
  502SOL     OW 2315   5.531   0.238   3.386 -0.6804 -0.1791 -0.0535
  502SOL    HW1 2316   5.563   0.245   3.476  2.7435 -1.3590 -1.0137
  502SOL    HW2 2317   5.531   0.329   3.354  2.7185 -0.0600 -0.1342
  503SOL     OW 2318   2.791   3.586   4.511  0.5816 -0.2008 -0.0434
  503SOL    HW1 2319   2.777   3.494   4.488  1.5779 -0.3499 -0.1145
  503SOL    HW2 2320   2.870   3.585   4.565 -0.1964  0.4613  1.1383
  504SOL     OW 2321   3.109   6.961   6.299  0.0690 -0.6088  0.1339
  504SOL    HW1 2322   3.038   7.019   6.325  0.7585  0.2326  0.1802
  504SOL    HW2 2323   3.117   6.974   6.205  0.7947  0.0386  0.2766
  505SOL     OW 2324   2.084   6.300   2.551 -0.2215  0.4078  0.4680
  505SOL    HW1 2325   2.142   6.306   2.628 -2.0864  0.1776  1.9686
  505SOL    HW2 2326   1.996   6.310   2.587 -1.1686  0.2783 -1.6763
  506SOL     OW 2327   0.848   7.906   5.151  0.1747  0.1160 -0.3022
  506SOL    HW1 2328   0.909   7.977   5.167  0.0145  0.7249 -2.2001
  506SOL    HW2 2329   0.761   7.946   5.161  0.0521 -0.3338  0.6415
  507SOL     OW 2330   3.241   7.618   2.874  0.3025  0.6957 -0.4355
  507SOL    HW1 2331   3.175   7.668   2.921 -0.9671 -1.2150 -0.0542
  507SOL    HW2 2332   3.272   7.553   2.938  1.2893  0.4636 -1.1280
  508SOL     OW 2333   3.617   6.063   7.700  0.1415 -0.3202  0.1775
  508SOL    HW1 2334   3.610   6.142   7.753 -2.6261 -2.0838  2.7796
  508SOL    HW2 2335   3.573   6.084   7.618 -0.4075  0.8974  0.7670
  509SOL     OW 2336   6.939   7.565   4.004 -0.0243  0.0894 -0.8604
  509SOL    HW1 2337   6.987   7.532   3.928  0.2781 -0.6410 -0.3620
  509SOL    HW2 2338   6.867   7.503   4.015 -0.3435  0.4567 -0.8190
  510SOL     OW 2339   1.912   7.838   5.088 -0.0119 -0.3943  0.0657
  510SOL    HW1 2340   1.951   7.826   5.001  1.7861 -1.5444  0.9672
  510SOL    HW2 2341   1.833   7.889   5.072  0.2286 -0.6461 -2.2498
  511SOL     OW 2342   1.503   0.305   6.935  0.5149 -0.1845 -0.0196
  511SOL    HW1 2343   1.501   0.259   7.019  3.1294  0.1823  0.3001
  511SOL    HW2 2344   1.455   0.386   6.951 -0.7799 -1.0089  0.4899
  512SOL     OW 2345   7.895   2.648   4.516 -0.8354 -0.4778  0.5385
  512SOL    HW1 2346   7.948   2.583   4.470 -0.1267 -0.1574  0.8857
  512SOL    HW2 2347   7.839   2.598   4.575 -2.1943 -0.9510 -1.0580
  513SOL     OW 2348   4.817   0.564   4.894  0.0564  0.1369 -0.4708
  513SOL    HW1 2349   4.807   0.597   4.984  1.7876  0.6094 -0.4252
  513SOL    HW2 2350   4.733   0.585   4.852 -0.2509  1.2561  0.6250
  514SOL     OW 2351   4.622   1.271   1.351  0.3497 -0.2547  0.1674
  514SOL    HW1 2352   4.594   1.220   1.426  0.8850  2.6243  2.5180
  514SOL    HW2 2353   4.542   1.284   1.299 -0.2342 -1.4834  0.7230
  515SOL     OW 2354   0.453   7.997   1.369 -0.2601  0.2458 -0.0731
  515SOL    HW1 2355   0.385   8.002   1.301 -0.8672 -0.0787  0.4934
  515SOL    HW2 2356   0.533   8.026   1.325 -0.1020 -2.2203 -1.6274
  516SOL     OW 2357   7.553   4.730   4.560 -0.8362 -0.1184 -0.5607
  516SOL    HW1 2358   7.476   4.693   4.517 -0.0463 -1.8581 -0.5354
  516SOL    HW2 2359   7.622   4.729   4.494 -0.4334  0.0579 -0.1542
  517SOL     OW 2360   1.253   7.612   3.071 -0.2482  0.1479 -0.2927
  517SOL    HW1 2361   1.289   7.562   3.144 -1.8922  0.0619  0.5026
  517SOL    HW2 2362   1.161   7.625   3.094 -1.3276 -1.4797 -3.1885
  518SOL     OW 2363   3.509   1.414   5.921 -0.5945  0.0318 -0.3661
  518SOL    HW1 2364   3.451   1.393   5.847 -1.8290  0.9588  0.3105
  518SOL    HW2 2365   3.470   1.491   5.961  2.8046  2.7849 -1.7558
  519SOL     OW 2366   5.555   7.695   5.685 -0.2790 -0.8952  0.3131
  519SOL    HW1 2367   5.558   7.601   5.672 -2.8664 -0.7999 -2.0235
  519SOL    HW2 2368   5.486   7.708   5.750 -0.0278 -0.6067  0.5245
  520SOL     OW 2369   2.533   7.899   7.926  0.4248 -0.0669  0.8480
  520SOL    HW1 2370   2.494   7.813   7.938  1.3189 -1.1853 -2.9452
  520SOL    HW2 2371   2.624   7.881   7.901 -0.1576  1.6002 -3.2688
  521SOL     OW 2372   0.248   7.315   6.188 -0.2152  0.4398 -0.1892
  521SOL    HW1 2373   0.272   7.288   6.277  1.3830  0.6254 -0.5373
  521SOL    HW2 2374   0.327   7.298   6.136 -1.8431 -1.9186 -2.0978
  522SOL     OW 2375   2.924   1.428   0.811  0.1043  0.3244  0.0051
  522SOL    HW1 2376   2.997   1.387   0.858 -0.5832 -0.9667 -0.0166
  522SOL    HW2 2377   2.908   1.371   0.736 -2.8851 -1.1769  1.6260
  523SOL     OW 2378   0.806   7.053   1.049  0.1472  0.0476 -0.0109
  523SOL    HW1 2379   0.720   7.032   1.084 -1.1193  0.9697 -2.3919
  523SOL    HW2 2380   0.789   7.103   0.969  2.9056  2.3727  0.6701
  524SOL     OW 2381   1.793   5.917   3.966 -0.6082  0.1040  0.6551
  524SOL    HW1 2382   1.856   5.852   3.998 -0.9137 -0.0891  0.8735
  524SOL    HW2 2383   1.847   5.981   3.919 -0.4478 -0.9829 -0.6794
  525SOL     OW 2384   2.183   3.314   2.666  0.1627 -0.0831 -0.9402
  525SOL    HW1 2385   2.214   3.227   2.692 -1.1564 -0.7503 -1.4659
  525SOL    HW2 2386   2.101   3.326   2.715 -0.0505  0.5369 -1.4267
  526SOL     OW 2387   5.619   3.638   2.967  0.3348 -0.0526 -0.0042
  526SOL    HW1 2388   5.571   3.601   3.042  1.9784  0.3080  1.2902
  526SOL    HW2 2389   5.582   3.725   2.955  1.4690  0.7301  1.8235
  527SOL     OW 2390   5.089   6.753   6.543  0.1586  0.2254 -0.0466
  527SOL    HW1 2391   5.041   6.777   6.622 -0.5022 -0.6007 -0.1911
  527SOL    HW2 2392   5.177   6.732   6.574 -0.1477 -0.2769  0.5003
  528SOL     OW 2393   2.714   6.997   6.007 -0.2851  0.0596 -0.1874
  528SOL    HW1 2394   2.723   6.998   5.912 -0.7948 -0.3428 -0.2454
  528SOL    HW2 2395   2.669   7.079   6.027  0.2030  0.3460 -0.2470
  529SOL     OW 2396   5.634   7.909   4.709  0.2510 -0.1558  0.0921
  529SOL    HW1 2397   5.599   7.993   4.679  1.8439  0.7780  0.7228
  529SOL    HW2 2398   5.719   7.901   4.665  0.9442 -0.5453  1.4298
  530SOL     OW 2399   5.599   4.289   7.341 -0.4279  0.2356  0.3342
  530SOL    HW1 2400   5.673   4.342   7.310 -0.7877  0.2895 -0.4535
  530SOL    HW2 2401   5.639   4.207   7.370  0.0478  0.6338  0.8428
  531SOL     OW 2402   1.423   2.029   7.498  0.0101  0.5180  0.1829
  531SOL    HW1 2403   1.477   1.960   7.537  0.4040  1.1345  0.7369
  531SOL    HW2 2404   1.478   2.107   7.498 -0.9345  1.2044  0.9360
  532SOL     OW 2405   5.107   2.908   0.297 -0.5715  0.0671 -0.0854
  532SOL    HW1 2406   5.089   2.821   0.332 -0.5242 -0.6797 -1.8203
  532SOL    HW2 2407   5.198   2.903   0.268 -0.8338  0.3977 -0.9915
  533SOL     OW 2408   2.983   2.902   7.346  0.1716  0.0537  0.8665
  533SOL    HW1 2409   2.967   2.996   7.337 -1.8345 -0.2694  0.6462
  533SOL    HW2 2410   2.988   2.889   7.441  1.2531  0.4814  0.8814
  534SOL     OW 2411   2.379   1.536   4.545 -0.7785 -0.6426  0.2958
  534SOL    HW1 2412   2.304   1.591   4.567  0.2206  0.4396  1.0935
  534SOL    HW2 2413   2.341   1.449   4.530 -2.2491 -0.0044  0.1151
  535SOL     OW 2414   4.747   2.925   2.932  0.4051 -0.1702  0.0794
  535SOL    HW1 2415   4.724   2.937   2.840  0.5812 -0.0425  0.0509
  535SOL    HW2 2416   4.669   2.888   2.972  0.0408  0.5594  0.0539
  536SOL     OW 2417   7.965   0.577   5.430  0.0716  0.1794  0.0124
  536SOL    HW1 2418   8.040   0.550   5.483  0.1577 -0.5639 -0.4662
  536SOL    HW2 2419   7.896   0.516   5.453 -1.0955  2.1406  2.0045
  537SOL     OW 2420   6.496   1.818   0.783  0.2263  0.2492 -0.3777
  537SOL    HW1 2421   6.418   1.820   0.727 -1.0991  1.5722  1.3667
  537SOL    HW2 2422   6.532   1.907   0.776 -0.1440  0.5355  1.0434
  538SOL     OW 2423   5.536   5.297   4.606  0.0405  0.4421 -0.1298
  538SOL    HW1 2424   5.459   5.348   4.629  0.2050  0.0745  1.4026
  538SOL    HW2 2425   5.502   5.218   4.565 -0.6213 -0.7125  2.4063
  539SOL     OW 2426   7.527   0.659   4.254  0.2712 -0.3478  0.0310
  539SOL    HW1 2427   7.603   0.616   4.293  1.2936  0.8515 -0.5565
  539SOL    HW2 2428   7.548   0.665   4.161 -0.3656  0.3482 -0.0813
  540SOL     OW 2429   5.908   0.212   3.566  0.1621  0.4520  0.2214
  540SOL    HW1 2430   5.990   0.185   3.608 -0.6411 -1.2719  0.7627
  540SOL    HW2 2431   5.900   0.305   3.587  1.6710  0.5143  0.6580
  541SOL     OW 2432   0.519   7.672   0.190 -0.1379  0.0735 -0.4794
  541SOL    HW1 2433   0.591   7.731   0.213 -0.4881  0.5361 -0.5572
  541SOL    HW2 2434   0.455   7.728   0.147 -0.3852 -0.4062 -0.7436
  542SOL     OW 2435   2.207   4.569   2.351  0.7361  0.7377  0.1508
  542SOL    HW1 2436   2.124   4.543   2.390  0.2733  1.4835 -0.3243
  542SOL    HW2 2437   2.232   4.494   2.297  0.6128  0.3233  0.6592
  543SOL     OW 2438   4.253   4.102   1.538 -0.0378 -0.3391  0.3691
  543SOL    HW1 2439   4.190   4.156   1.488  1.1249 -0.6999 -1.5809
  543SOL    HW2 2440   4.332   4.155   1.540  0.7593 -1.4400 -0.5644
  544SOL     OW 2441   5.517   1.878   0.896 -0.2376 -0.5376 -0.6379
  544SOL    HW1 2442   5.522   1.794   0.942 -0.1202 -1.7733 -2.7888
  544SOL    HW2 2443   5.435   1.872   0.846  0.2362  0.2465 -1.5196
  545SOL     OW 2444   6.543   1.155   2.641  0.1447 -0.0997 -0.1684
  545SOL    HW1 2445   6.511   1.070   2.669  0.3416  0.3372  1.4441
  545SOL    HW2 2446   6.466   1.212   2.641 -0.2205 -0.4925 -2.3581
  546SOL     OW 2447   5.186   3.812   6.411  0.4485  0.6418 -0.0585
  546SOL    HW1 2448   5.095   3.842   6.409  0.3392  0.5877  1.8900
  546SOL    HW2 2449   5.226   3.864   6.481  1.7223  0.1214 -0.3731
  547SOL     OW 2450   5.370   3.114   2.613  0.1240  0.1040 -0.0335
  547SOL    HW1 2451   5.447   3.171   2.606  0.7330 -0.8249 -1.3774
  547SOL    HW2 2452   5.388   3.060   2.690  1.0066 -0.3332 -0.5275
  548SOL     OW 2453   1.472   0.935   1.917  0.3615 -0.3042  0.2668
  548SOL    HW1 2454   1.397   0.910   1.863  0.4439  0.7524 -0.3925
  548SOL    HW2 2455   1.531   0.980   1.856  0.3927  1.0743  1.2526
  549SOL     OW 2456   6.866   0.323   4.010 -0.0430  0.2970  0.4559
  549SOL    HW1 2457   6.849   0.231   4.028 -0.8089  0.5114  0.8424
  549SOL    HW2 2458   6.845   0.369   4.091 -1.0723  0.9740 -0.1633
  550SOL     OW 2459   7.439   7.933   7.267 -0.0990 -0.4583 -0.2747
  550SOL    HW1 2460   7.362   7.912   7.214 -1.3617  1.6291  0.5657
  550SOL    HW2 2461   7.415   8.015   7.311  2.5446  0.1399  0.2033
  551SOL     OW 2462   1.055   5.546   5.515  0.5114 -0.2536 -0.2138
  551SOL    HW1 2463   1.111   5.619   5.543  0.3940 -0.1979 -0.1207
  551SOL    HW2 2464   0.976   5.555   5.569  1.0330 -1.2140  0.7510
  552SOL     OW 2465   7.472   2.315   0.113 -0.1352 -0.2344 -0.6591
  552SOL    HW1 2466   7.539   2.284   0.052 -0.0478 -0.0176 -0.6707
  552SOL    HW2 2467   7.509   2.392   0.154 -0.4257 -0.0423 -0.7547
  553SOL     OW 2468   1.964   4.621   4.258  0.4816 -0.0504 -0.6840
  553SOL    HW1 2469   1.888   4.676   4.241  0.4565  0.3635  0.6574
  553SOL    HW2 2470   1.958   4.599   4.351  1.2037 -1.2502 -0.8954
  554SOL     OW 2471   2.619   3.127   3.131  0.4183 -0.1487  0.6640
  554SOL    HW1 2472   2.640   3.208   3.084 -2.1793  0.7688  0.9159
  554SOL    HW2 2473   2.563   3.078   3.072  0.8779 -1.1748  1.0479
  555SOL     OW 2474   7.438   0.557   0.465 -0.2041 -0.2720 -0.0172
  555SOL    HW1 2475   7.383   0.537   0.389 -0.5242 -0.0826  0.1617
  555SOL    HW2 2476   7.502   0.620   0.433 -0.4853 -0.0149 -0.0707
  556SOL     OW 2477   1.133   7.084   6.460  0.3578 -0.5174  0.4726
  556SOL    HW1 2478   1.084   7.033   6.525  2.2483 -2.0870  0.7444
  556SOL    HW2 2479   1.135   7.173   6.496  0.2964 -1.0762  1.9395
  557SOL     OW 2480   4.894   5.609   0.960  0.1788  0.1839 -0.2810
  557SOL    HW1 2481   4.865   5.695   0.929  0.9485  0.5933  0.1072
  557SOL    HW2 2482   4.972   5.590   0.907  1.9974  1.2472  1.8379
  558SOL     OW 2483   4.176   3.865   1.404 -0.5524 -0.3472  0.3019
  558SOL    HW1 2484   4.101   3.886   1.350 -0.9454 -0.9413  0.5982
  558SOL    HW2 2485   4.204   3.949   1.441 -0.5670 -0.0119 -0.4492
  559SOL     OW 2486   6.581   4.873   6.992  0.0821  0.4359 -0.1422
  559SOL    HW1 2487   6.631   4.906   6.917  2.1083 -0.7931  0.5698
  559SOL    HW2 2488   6.576   4.779   6.977 -0.4010  0.3128  0.7532
  560SOL     OW 2489   6.806   3.434   4.049 -0.1122  0.7096  0.0550
  560SOL    HW1 2490   6.781   3.353   4.094 -0.2269  0.8576  0.2619
  560SOL    HW2 2491   6.870   3.474   4.108  0.1058  0.6659 -0.1500
  561SOL     OW 2492   0.065   7.697   7.363 -0.1368  0.0929  0.4471
  561SOL    HW1 2493   0.047   7.614   7.409 -1.0519 -0.4613 -0.8490
  561SOL    HW2 2494   0.161   7.699   7.355  0.0967  0.3928  2.6414
  562SOL     OW 2495   6.578   2.762   1.773 -0.6360  0.2444  0.5475
  562SOL    HW1 2496   6.523   2.839   1.786 -0.5689  0.5248 -0.7410
  562SOL    HW2 2497   6.517   2.694   1.744 -0.2426  0.8464 -1.9664
  563SOL     OW 2498   4.059   5.403   1.932  0.2696  0.3860  0.2354
  563SOL    HW1 2499   4.108   5.328   1.897 -0.9888 -1.2738  1.8355
  563SOL    HW2 2500   4.059   5.467   1.860  2.0149 -0.8241 -0.9310
  564SOL     OW 2501   1.821   1.352   7.000  0.7437  0.1750 -0.0048
  564SOL    HW1 2502   1.742   1.340   7.052  1.0866 -0.2010  0.4368
  564SOL    HW2 2503   1.789   1.373   6.912  0.1565  0.0860  0.1850
  565SOL     OW 2504   1.118   0.969   3.574  0.0472 -0.2765 -0.0764
  565SOL    HW1 2505   1.213   0.962   3.580  0.1021 -0.7251 -1.2702
  565SOL    HW2 2506   1.094   0.920   3.496 -1.1056  0.3789 -0.1679
  566SOL     OW 2507   4.901   6.499   1.628 -0.5031  0.3689  0.3871
  566SOL    HW1 2508   4.862   6.421   1.588 -0.8147  0.4825  0.4686
  566SOL    HW2 2509   4.938   6.467   1.710 -2.1956  0.6225  1.2983
  567SOL     OW 2510   6.666   7.210   6.568  0.4656 -0.0212 -0.0700
  567SOL    HW1 2511   6.654   7.271   6.640  2.1944 -0.8490  0.9868
  567SOL    HW2 2512   6.760   7.215   6.548  0.5443 -1.9088 -0.3141
  568SOL     OW 2513   6.610   5.391   6.552 -0.2931  0.2045  0.2644
  568SOL    HW1 2514   6.544   5.448   6.592  1.5721  1.2291  2.0917
  568SOL    HW2 2515   6.614   5.419   6.461 -2.3202  0.1050  0.0836
  569SOL     OW 2516   5.938   3.622   5.320 -0.2080  0.5638  0.0100
  569SOL    HW1 2517   6.006   3.648   5.382 -0.5943 -0.0485  0.7078
  569SOL    HW2 2518   5.981   3.624   5.235  0.3586  1.3281  0.3049
  570SOL     OW 2519   1.351   3.290   1.905 -0.1660 -0.2330 -0.1976
  570SOL    HW1 2520   1.368   3.212   1.853  0.3240 -1.1634  1.3124
  570SOL    HW2 2521   1.428   3.345   1.892 -0.6803  0.2267 -1.5717
  571SOL     OW 2522   3.815   5.404   1.709 -0.1257  0.8817 -0.0610
  571SOL    HW1 2523   3.867   5.474   1.749 -0.4951  0.7414  0.6721
  571SOL    HW2 2524   3.729   5.412   1.750 -0.4935  0.6974 -0.7877
  572SOL     OW 2525   7.647   3.133   1.512  0.9147 -0.2887 -0.4512
  572SOL    HW1 2526   7.571   3.130   1.454  1.5659  0.1785 -1.3409
  572SOL    HW2 2527   7.670   3.225   1.518 -0.2810 -0.0743  2.0997
  573SOL     OW 2528   4.835   6.715   1.420  0.1770  0.4366 -0.3245
  573SOL    HW1 2529   4.862   6.634   1.463  0.2205  0.3853 -0.4468
  573SOL    HW2 2530   4.761   6.690   1.365  1.3232  0.0868 -1.7839
  574SOL     OW 2531   5.325   3.108   6.231  0.2375 -0.0020 -0.1600
  574SOL    HW1 2532   5.402   3.155   6.263  1.3079 -0.7076 -1.6096
  574SOL    HW2 2533   5.338   3.018   6.261 -0.2767 -0.0202  0.0100
  575SOL     OW 2534   4.511   6.291   0.673 -0.2019  0.2615 -0.5516
  575SOL    HW1 2535   4.576   6.269   0.606 -0.1644 -1.7382  0.0784
  575SOL    HW2 2536   4.429   6.256   0.639 -0.1908 -0.7228  0.4094
  576SOL     OW 2537   2.772   5.060   4.986  0.7041  0.3230 -0.3817
  576SOL    HW1 2538   2.776   4.978   5.036  1.9883 -0.1725 -1.2441
  576SOL    HW2 2539   2.816   5.124   5.042  1.0822  0.0533 -0.3668
  577SOL     OW 2540   1.449   0.502   1.779 -0.0836 -0.7327  0.3055
  577SOL    HW1 2541   1.392   0.557   1.725 -1.3615 -1.0364  1.2944
  577SOL    HW2 2542   1.528   0.554   1.792 -0.1050 -0.3010 -1.0898
  578SOL     OW 2543   7.417   3.784   7.273 -0.0917  0.4818  0.2067
  578SOL    HW1 2544   7.482   3.736   7.324 -0.1194 -0.4548 -0.6170
  578SOL    HW2 2545   7.466   3.854   7.231  0.2657  0.1571  0.0829
  579SOL     OW 2546   7.978   3.824   0.973  0.2111  0.1342 -0.8832
  579SOL    HW1 2547   8.000   3.915   0.951  0.3919  0.1289 -0.7245
  579SOL    HW2 2548   8.021   3.808   1.057  1.6770 -0.6587 -1.7448
  580SOL     OW 2549   4.734   2.885   4.095  0.6140  0.5637 -0.0003
  580SOL    HW1 2550   4.672   2.848   4.158 -1.0324  0.3102 -1.6757
  580SOL    HW2 2551   4.754   2.813   4.036  1.6565  0.9557 -0.1586
  581SOL     OW 2552   4.370   0.681   0.089 -0.3074 -0.2667 -0.2517
  581SOL    HW1 2553   4.349   0.712   0.177 -0.3917 -1.7642  0.2706
  581SOL    HW2 2554   4.465   0.673   0.088 -0.4545 -2.4263  0.4767
  582SOL     OW 2555   0.276   4.959   0.253  0.0005 -0.1219  0.4401
  582SOL    HW1 2556   0.298   4.966   0.346  0.1603 -0.6801  0.4496
  582SOL    HW2 2557   0.228   5.039   0.233 -1.0081 -0.4904  1.2734
  583SOL     OW 2558   1.222   5.490   5.952 -0.0006  0.1670  0.5059
  583SOL    HW1 2559   1.233   5.583   5.934  2.5622 -0.4176 -1.5753
  583SOL    HW2 2560   1.310   5.457   5.968 -0.9262 -1.7922  2.1021
  584SOL     OW 2561   1.303   2.695   2.522 -0.4558 -0.2968  0.6568
  584SOL    HW1 2562   1.391   2.658   2.525 -0.2038  0.2660  0.4416
  584SOL    HW2 2563   1.296   2.744   2.603 -0.3541  0.1189  0.4207
  585SOL     OW 2564   1.769   5.688   7.262  0.1757 -0.3358  0.5942
  585SOL    HW1 2565   1.791   5.640   7.182 -0.2395  0.4198  0.0137
  585SOL    HW2 2566   1.723   5.766   7.232  0.3337  0.1507  1.5500
  586SOL     OW 2567   2.028   6.387   5.883 -0.1443  0.0346 -0.2447
  586SOL    HW1 2568   2.054   6.333   5.809  0.2218  0.0795 -0.1480
  586SOL    HW2 2569   2.043   6.477   5.853  0.7345  0.0268  0.1598
  587SOL     OW 2570   5.605   3.065   5.794 -0.2525  0.1556  0.5440
  587SOL    HW1 2571   5.576   3.133   5.855 -0.9067  0.1304  0.2710
  587SOL    HW2 2572   5.695   3.045   5.822 -0.5901  0.0253  1.6048
  588SOL     OW 2573   2.618   1.487   2.010 -0.0690 -0.2310  0.5698
  588SOL    HW1 2574   2.594   1.395   2.004 -0.3941 -0.0865 -0.5364
  588SOL    HW2 2575   2.649   1.510   1.923 -1.2928  1.0475  0.4294
  589SOL     OW 2576   7.607   4.832   7.016  0.2686  0.3480  0.0961
  589SOL    HW1 2577   7.584   4.916   7.057  0.5896  0.5886 -0.2034
  589SOL    HW2 2578   7.694   4.847   6.980  0.6158 -0.3394  0.6386
  590SOL     OW 2579   6.067   2.016   1.912  0.1786 -0.3729  0.1911
  590SOL    HW1 2580   5.984   1.968   1.914  0.8494 -1.5412  0.7283
  590SOL    HW2 2581   6.070   2.063   1.995  0.0165 -0.2348  0.1214
  591SOL     OW 2582   5.120   4.235   0.873 -0.1987 -0.3902  0.2003
  591SOL    HW1 2583   5.028   4.220   0.895 -0.1482 -0.6151  0.2668
  591SOL    HW2 2584   5.120   4.243   0.777 -0.2875 -0.4037  0.1986
  592SOL     OW 2585   2.581   0.429   1.448  0.2360  0.0296  0.0651
  592SOL    HW1 2586   2.614   0.476   1.371  2.1487 -0.4013  0.5581
  592SOL    HW2 2587   2.532   0.355   1.412 -0.0463  0.5856 -0.7203
  593SOL     OW 2588   0.667   4.367   1.307 -0.0626  0.0609 -0.4321
  593SOL    HW1 2589   0.613   4.293   1.332 -1.9681  1.3105 -0.6096
  593SOL    HW2 2590   0.666   4.424   1.384  2.1967 -0.4917  0.0615
  594SOL     OW 2591   0.990   4.680   5.236  1.0595 -0.0940  0.2975
  594SOL    HW1 2592   1.085   4.673   5.249  0.9571 -2.2177  0.2051
  594SOL    HW2 2593   0.968   4.605   5.180 -0.7864 -0.0909  0.9657
  595SOL     OW 2594   5.336   2.888   2.823 -0.1174 -0.4992  0.1367
  595SOL    HW1 2595   5.379   2.890   2.908 -1.3894 -0.3928  0.7983
  595SOL    HW2 2596   5.244   2.870   2.842 -1.4575  4.1313 -0.7495
  596SOL     OW 2597   4.733   3.661   1.577 -0.1197 -0.1521  0.1943
  596SOL    HW1 2598   4.640   3.681   1.563 -0.2546 -0.5449  0.5212
  596SOL    HW2 2599   4.733   3.584   1.633  0.3971 -1.0924 -1.0413
  597SOL     OW 2600   6.876   3.256   4.908  0.1417  0.6582 -0.3606
  597SOL    HW1 2601   6.935   3.240   4.834 -1.1345 -0.1380 -1.2300
  597SOL    HW2 2602   6.831   3.173   4.922 -0.8398  1.2710  0.2356
  598SOL     OW 2603   5.841   0.740   3.992 -0.1354  0.0100 -0.5287
  598SOL    HW1 2604   5.884   0.663   4.027 -0.2839 -0.1054 -0.6002
  598SOL    HW2 2605   5.878   0.813   4.042  0.7357 -0.0051 -1.1213
  599SOL     OW 2606   6.286   5.861   3.919  0.4806  0.1057 -0.5085
  599SOL    HW1 2607   6.226   5.895   3.853  0.3383 -0.9624 -0.9525
  599SOL    HW2 2608   6.233   5.798   3.969  0.3279  1.5350  1.2267
  600SOL     OW 2609   6.736   6.550   2.318  0.0197 -0.2811  0.5615
  600SOL    HW1 2610   6.642   6.568   2.314  0.0612 -0.3544 -1.5266
  600SOL    HW2 2611   6.767   6.557   2.228  1.8197 -1.3919  1.0242
  601SOL     OW 2612   6.235   1.594   4.098  0.1739 -0.0926  0.0987
  601SOL    HW1 2613   6.212   1.559   4.012  1.3402  0.5113 -0.4870
  601SOL    HW2 2614   6.321   1.635   4.085 -0.2673  1.2638  1.2175
  602SOL     OW 2615   6.000   0.254   6.799  0.2538  0.4357 -0.6534
  602SOL    HW1 2616   5.978   0.278   6.710 -1.1929 -0.5121 -0.5761
  602SOL    HW2 2617   5.999   0.337   6.848  2.4967  1.1842 -1.7393
  603SOL     OW 2618   4.322   4.242   5.936 -0.1032  0.0066 -0.0611
  603SOL    HW1 2619   4.256   4.294   5.890  0.2712 -0.7626 -1.5321
  603SOL    HW2 2620   4.401   4.250   5.882 -0.0522 -2.1122 -0.4150
  604SOL     OW 2621   5.032   7.172   3.415  0.5942  0.2066 -0.1596
  604SOL    HW1 2622   4.992   7.097   3.458  1.0883 -0.3454 -0.6344
  604SOL    HW2 2623   4.959   7.222   3.379  0.1199  1.0885  1.9330
  605SOL     OW 2624   6.051   5.823   5.274 -0.2811 -0.2421  0.1714
  605SOL    HW1 2625   6.112   5.792   5.341 -0.5480  2.6003  1.8803
  605SOL    HW2 2626   5.964   5.800   5.308 -0.3515 -0.1467  0.0584
  606SOL     OW 2627   4.963   7.308   2.911 -0.1318 -0.7378  0.0795
  606SOL    HW1 2628   5.059   7.313   2.907 -0.2197  1.4076 -2.5441
  606SOL    HW2 2629   4.937   7.384   2.963 -0.4574 -2.4679  2.6139
  607SOL     OW 2630   3.245   6.003   7.859 -0.8409  0.0682 -0.0923
  607SOL    HW1 2631   3.337   6.013   7.886 -0.7905 -0.7043  0.0708
  607SOL    HW2 2632   3.207   5.947   7.927 -1.2678 -0.1333 -0.4912
  608SOL     OW 2633   7.531   1.006   2.445  0.3292  0.0922  0.4935
  608SOL    HW1 2634   7.555   1.095   2.418  0.5402 -0.1353 -0.0993
  608SOL    HW2 2635   7.463   0.980   2.382  2.6652 -1.4400 -1.6190
  609SOL     OW 2636   2.092   6.155   2.082  0.0536  0.1763 -0.5614
  609SOL    HW1 2637   2.032   6.101   2.133  1.3240 -0.6024  0.1844
  609SOL    HW2 2638   2.054   6.158   1.994 -2.4746  2.0139  0.5057
  610SOL     OW 2639   5.030   3.797   3.244  0.3228  0.4538 -0.3736
  610SOL    HW1 2640   4.950   3.791   3.192 -0.3574  1.6681  0.4733
  610SOL    HW2 2641   5.016   3.873   3.301  2.2853  1.0171 -0.5647
  611SOL     OW 2642   2.544   1.589   6.035  0.3757  0.0218  0.0857
  611SOL    HW1 2643   2.534   1.667   5.980  0.6885  0.6411  0.8960
  611SOL    HW2 2644   2.552   1.517   5.972  0.3039  0.6620 -0.6750
  612SOL     OW 2645   4.614   2.956   7.225  0.0467 -0.1016 -0.1146
  612SOL    HW1 2646   4.561   3.032   7.250  1.4494  1.0671 -0.5461
  612SOL    HW2 2647   4.574   2.882   7.271 -0.3793  1.1706  1.6544
  613SOL     OW 2648   0.152   6.843   4.913 -0.1826 -0.1705 -0.4135
  613SOL    HW1 2649   0.208   6.920   4.924 -0.6803  0.0761  0.4681
  613SOL    HW2 2650   0.140   6.836   4.819 -0.6398  1.2120 -0.4848
  614SOL     OW 2651   2.393   6.685   7.521 -0.0685  0.1473 -0.6897
  614SOL    HW1 2652   2.448   6.730   7.585 -0.5489 -0.2503  0.0109
  614SOL    HW2 2653   2.320   6.650   7.572 -0.4513 -0.1871 -1.4521
  615SOL     OW 2654   0.761   2.279   0.244 -0.5620 -0.2209 -0.3539
  615SOL    HW1 2655   0.695   2.262   0.177 -0.8616 -0.7050  0.0542
  615SOL    HW2 2656   0.764   2.374   0.252 -0.2801 -0.1340 -1.2888
  616SOL     OW 2657   6.862   4.802   5.419 -0.4299 -0.2807  0.1944
  616SOL    HW1 2658   6.821   4.725   5.379 -1.3278 -0.1968  0.9294
  616SOL    HW2 2659   6.799   4.872   5.406  1.1523  0.8712 -2.1650
  617SOL     OW 2660   3.371   1.514   7.019 -0.3864  0.0421 -0.4721
  617SOL    HW1 2661   3.421   1.595   7.007  0.7930 -0.0723  2.7723
  617SOL    HW2 2662   3.333   1.522   7.106 -1.7400 -2.1609 -0.8018
  618SOL     OW 2663   5.916   1.734   3.865  0.2484 -0.7227  0.2847
  618SOL    HW1 2664   5.992   1.733   3.806  1.1061 -1.7499  1.3680
  618SOL    HW2 2665   5.895   1.827   3.874  0.3977 -0.5130 -1.2314
  619SOL     OW 2666   1.687   1.436   5.534 -0.3107  0.0471  0.0582
  619SOL    HW1 2667   1.621   1.501   5.512 -0.7973 -0.2579  0.5939
  619SOL    HW2 2668   1.736   1.474   5.607  0.4956  0.5233 -0.7145
  620SOL     OW 2669   7.669   0.276   7.539 -0.0841  0.5733  0.7361
  620SOL    HW1 2670   7.582   0.249   7.571  0.0016  1.5198  1.8115
  620SOL    HW2 2671   7.651   0.350   7.482 -0.1128 -0.2613 -0.3611
  621SOL     OW 2672   6.292   1.310   7.904 -0.1224 -0.1412  0.8620
  621SOL    HW1 2673   6.268   1.314   7.997  2.3060 -1.6552  1.6566
  621SOL    HW2 2674   6.379   1.351   7.900  0.8090 -2.1056 -0.2895
  622SOL     OW 2675   5.393   6.604   2.475 -0.0928  0.0150 -0.0952
  622SOL    HW1 2676   5.427   6.672   2.416 -1.0987  0.8878  0.3032
  622SOL    HW2 2677   5.311   6.640   2.508 -1.3531 -1.9554 -0.9059
  623SOL     OW 2678   2.069   6.475   3.309  0.1046 -0.1871  0.4184
  623SOL    HW1 2679   1.990   6.457   3.259  0.8742 -0.5858 -0.7073
  623SOL    HW2 2680   2.038   6.504   3.394 -1.2504  0.1229 -0.1577
  624SOL     OW 2681   3.451   4.608   0.571  0.5102 -0.2562  0.0799
  624SOL    HW1 2682   3.495   4.631   0.490 -0.4088  1.5543  0.0641
  624SOL    HW2 2683   3.366   4.573   0.544  1.0892 -1.8350  0.1982
  625SOL     OW 2684   7.461   1.267   1.355 -0.2111  0.0859 -0.3713
  625SOL    HW1 2685   7.489   1.359   1.354 -0.7373  0.2511 -0.2481
  625SOL    HW2 2686   7.529   1.221   1.306 -1.2190  0.9034 -2.6797
  626SOL     OW 2687   1.492   0.286   1.640  0.2389  0.9266 -0.1968
  626SOL    HW1 2688   1.476   0.370   1.684 -0.8791 -0.3195  1.9233
  626SOL    HW2 2689   1.578   0.258   1.672  0.4915  1.1152 -0.6962
  627SOL     OW 2690   6.321   2.973   0.683 -0.2168 -0.3994  0.2119
  627SOL    HW1 2691   6.307   3.020   0.765  2.0040  1.8998 -0.5754
  627SOL    HW2 2692   6.350   3.041   0.622  0.1828 -2.3694 -1.9094
  628SOL     OW 2693   7.066   3.888   6.342  0.1433 -0.0622 -0.1600
  628SOL    HW1 2694   7.099   3.844   6.421 -0.2152 -1.8379 -0.9394
  628SOL    HW2 2695   7.145   3.908   6.292  0.2649 -2.0731 -0.8863
  629SOL     OW 2696   7.589   2.186   2.503 -0.5450 -0.9712  0.1937
  629SOL    HW1 2697   7.592   2.147   2.590  3.1214 -0.8438  0.2684
  629SOL    HW2 2698   7.522   2.254   2.509 -1.1740 -1.7259  2.5583
  630SOL     OW 2699   0.471   6.319   4.889 -0.2915  0.5516 -0.3846
  630SOL    HW1 2700   0.464   6.272   4.972 -2.1345  0.9396 -0.2613
  630SOL    HW2 2701   0.565   6.332   4.876  0.6563 -4.9624 -1.5046
  631SOL     OW 2702   4.376   5.955   2.776  0.4032 -0.1612  0.1676
  631SOL    HW1 2703   4.303   5.910   2.817  0.8109 -1.2040 -0.2042
  631SOL    HW2 2704   4.420   6.000   2.847  0.3627 -0.8961  0.6703
  632SOL     OW 2705   4.816   6.958   5.187 -0.3308  0.6237 -0.0081
  632SOL    HW1 2706   4.773   7.022   5.131  0.0268  1.8977  1.1204
  632SOL    HW2 2707   4.745   6.910   5.229 -0.6473 -1.4315 -2.6078
  633SOL     OW 2708   1.222   5.620   1.640  0.7229  0.5934  0.1001
  633SOL    HW1 2709   1.179   5.692   1.686  0.8992  2.1748 -2.0752
  633SOL    HW2 2710   1.188   5.541   1.683 -2.0861  1.8464  0.4200
  634SOL     OW 2711   1.964   5.002   3.603  0.1833  0.0132  0.3335
  634SOL    HW1 2712   1.965   4.929   3.541 -1.3074  0.2711 -0.0148
  634SOL    HW2 2713   2.030   4.978   3.668  1.0718 -0.7344 -0.7921
  635SOL     OW 2714   7.984   0.393   7.683 -0.3861  0.2481 -0.2410
  635SOL    HW1 2715   7.922   0.366   7.751  0.5812 -0.9237  0.1973
  635SOL    HW2 2716   8.031   0.467   7.722  1.5258 -1.6239  1.2176
  636SOL     OW 2717   1.771   2.811   3.800  0.1248 -0.4448 -0.6584
  636SOL    HW1 2718   1.794   2.738   3.858  1.2132  0.4466  0.0816
  636SOL    HW2 2719   1.853   2.860   3.791 -0.9589  1.6593  0.2999
  637SOL     OW 2720   5.304   2.364   0.734 -0.1591 -0.4098 -0.0309
  637SOL    HW1 2721   5.351   2.290   0.773  1.5839  0.8170  0.3381
  637SOL    HW2 2722   5.259   2.405   0.808  0.2829 -0.1169  0.0798
  638SOL     OW 2723   7.829   2.102   3.430 -0.2716  0.5150  0.4982
  638SOL    HW1 2724   7.880   2.030   3.393 -1.4392  0.4620 -1.1241
  638SOL    HW2 2725   7.863   2.180   3.385 -0.2604  0.7409  0.8953
  639SOL     OW 2726   6.232   2.598   2.247 -0.1915  0.5271  0.3490
  639SOL    HW1 2727   6.171   2.527   2.224  0.7034 -0.0130 -0.4202
  639SOL    HW2 2728   6.233   2.598   2.343 -1.1917  0.3743  0.3780
  640SOL     OW 2729   5.309   4.011   6.013  0.0214 -0.7963  0.8871
  640SOL    HW1 2730   5.386   4.060   5.984 -0.5740  0.7375  1.7514
  640SOL    HW2 2731   5.295   4.040   6.103 -0.2776 -2.7232  1.5071
  641SOL     OW 2732   5.056   4.676   7.167 -0.3654  0.3084  0.6460
  641SOL    HW1 2733   5.004   4.741   7.120  0.4483  0.8043  0.4008
  641SOL    HW2 2734   5.144   4.685   7.130 -0.0283 -0.2646  1.2859
  642SOL     OW 2735   4.568   3.149   6.171  0.2843 -0.4852 -0.6900
  642SOL    HW1 2736   4.661   3.155   6.192  0.1770  2.5335 -0.6559
  642SOL    HW2 2737   4.565   3.095   6.092  1.7809 -2.4603  0.4976
  643SOL     OW 2738   6.286   1.450   2.914  0.1768  0.2645 -0.5174
  643SOL    HW1 2739   6.277   1.529   2.860  1.1032 -0.3345 -1.5951
  643SOL    HW2 2740   6.325   1.481   2.995 -3.6146  1.6306  1.0568
  644SOL     OW 2741   2.612   4.859   6.139  0.5628 -0.9053 -0.3415
  644SOL    HW1 2742   2.705   4.840   6.148  0.8029 -0.0214 -0.8737
  644SOL    HW2 2743   2.608   4.939   6.086 -0.4886 -0.7766 -0.0963
  645SOL     OW 2744   3.084   6.951   4.458  0.4250  0.2238 -0.4314
  645SOL    HW1 2745   3.131   7.033   4.446  1.0212 -0.2462 -1.4428
  645SOL    HW2 2746   3.138   6.901   4.519 -0.0711  0.6641  0.3924
  646SOL     OW 2747   4.612   2.824   3.578 -0.3296 -0.0278  0.1616
  646SOL    HW1 2748   4.593   2.912   3.610  1.6789 -0.5578  3.2123
  646SOL    HW2 2749   4.550   2.767   3.623 -0.8096 -0.3438 -0.8575
  647SOL     OW 2750   0.535   2.207   1.956 -0.1731  0.1703 -0.1267
  647SOL    HW1 2751   0.603   2.156   1.913 -0.5396 -0.5578  0.1404
  647SOL    HW2 2752   0.513   2.276   1.893  0.1222 -0.1751 -0.6158
  648SOL     OW 2753   0.422   0.728   6.166 -0.5712 -0.0349  0.0837
  648SOL    HW1 2754   0.387   0.674   6.237  0.6807  0.9618  1.5283
  648SOL    HW2 2755   0.508   0.692   6.147 -0.6587  0.0654 -0.5296
  649SOL     OW 2756   2.052   5.842   0.959  0.0914 -0.6270  0.3369
  649SOL    HW1 2757   2.011   5.884   1.035 -0.5978  1.8913 -1.2915
  649SOL    HW2 2758   1.998   5.765   0.942  0.2643 -1.2472  2.3530
  650SOL     OW 2759   6.787   1.575   5.189 -0.0922  0.0105  0.3531
  650SOL    HW1 2760   6.883   1.584   5.189 -0.1493  0.6973  0.0695
  650SOL    HW2 2761   6.768   1.520   5.264  0.3687  1.6889  1.7564
  651SOL     OW 2762   6.472   5.536   2.505 -0.2006  0.5869 -0.2922
  651SOL    HW1 2763   6.483   5.441   2.501 -2.4205  0.2726 -0.1119
  651SOL    HW2 2764   6.503   5.566   2.419  0.3648 -0.3028 -0.4207
  652SOL     OW 2765   4.992   7.515   7.217  0.2153  0.5588 -0.0352
  652SOL    HW1 2766   4.980   7.506   7.311  3.4299  0.8115  0.5431
  652SOL    HW2 2767   5.042   7.437   7.192  0.6742  1.2001 -1.2032
  653SOL     OW 2768   0.510   5.214   4.502  1.1032 -0.3878  0.1830
  653SOL    HW1 2769   0.575   5.284   4.511  1.6378 -1.0196  1.6215
  653SOL    HW2 2770   0.490   5.189   4.592 -0.9848 -0.3786 -0.2166
  654SOL     OW 2771   0.960   7.462   5.596 -0.2815 -0.2377 -0.2465
  654SOL    HW1 2772   0.901   7.521   5.550  0.8859  0.8572 -0.4127
  654SOL    HW2 2773   0.909   7.383   5.610 -2.0806  0.9853  0.4395
  655SOL     OW 2774   1.497   1.058   6.457  0.5899 -0.0550 -0.5785
  655SOL    HW1 2775   1.442   1.133   6.475  1.9106  0.7262  0.3541
  655SOL    HW2 2776   1.566   1.091   6.399  0.6148 -0.7945 -0.9957
  656SOL     OW 2777   1.387   6.507   2.545  0.0143  0.1070  0.3815
  656SOL    HW1 2778   1.415   6.496   2.454  0.4688  0.1195  0.5164
  656SOL    HW2 2779   1.389   6.601   2.560  0.9809  0.0443  0.7187
  657SOL     OW 2780   6.808   7.927   2.185 -0.5967 -0.0520 -0.5539
  657SOL    HW1 2781   6.850   7.842   2.173 -0.8586 -0.5699  1.7676
  657SOL    HW2 2782   6.720   7.906   2.216 -0.2098  1.0180  1.4245
  658SOL     OW 2783   0.569   4.415   8.001  0.0392 -0.6655  0.3446
  658SOL    HW1 2784   0.605   4.387   8.085  0.6933 -1.0917 -0.0801
  658SOL    HW2 2785   0.593   4.347   7.939 -0.8443 -0.5897 -0.1096
  659SOL     OW 2786   2.411   1.411   6.228 -0.0207 -0.2573  0.7715
  659SOL    HW1 2787   2.435   1.318   6.223 -0.1100 -0.2950  1.0114
  659SOL    HW2 2788   2.450   1.450   6.150  0.9597 -0.2860  1.2312
  660SOL     OW 2789   4.465   3.383   5.638 -0.1901 -0.0983 -0.5423
  660SOL    HW1 2790   4.414   3.442   5.582 -0.0586  1.5950  1.0184
  660SOL    HW2 2791   4.460   3.298   5.594 -2.6607  0.4519 -1.4776
  661SOL     OW 2792   2.919   0.299   0.718 -0.0852 -0.5686  0.0568
  661SOL    HW1 2793   2.949   0.212   0.692  0.3486  0.0696 -1.6694
  661SOL    HW2 2794   2.942   0.305   0.811 -0.0496 -2.2497  0.1924
  662SOL     OW 2795   7.981   1.166   5.236 -0.6090 -0.2366  0.2298
  662SOL    HW1 2796   7.973   1.138   5.145 -0.7093  0.8514 -0.1101
  662SOL    HW2 2797   7.910   1.122   5.282  0.5279 -2.2551  0.1727
  663SOL     OW 2798   6.131   5.876   7.604 -0.1048 -0.0553 -0.2451
  663SOL    HW1 2799   6.109   5.942   7.538  1.3523  1.3462  0.5883
  663SOL    HW2 2800   6.220   5.898   7.631 -0.6689 -0.5394  2.2560
  664SOL     OW 2801   7.738   1.512   2.172 -0.0643 -0.0156  0.0551
  664SOL    HW1 2802   7.799   1.453   2.128 -0.7541  0.7625 -2.0239
  664SOL    HW2 2803   7.665   1.455   2.198  1.1535 -0.8222  1.9811
  665SOL     OW 2804   0.137   0.385   1.455  0.4177  0.4028  0.3617
  665SOL    HW1 2805   0.178   0.357   1.537  2.1200  0.7835 -0.3211
  665SOL    HW2 2806   0.169   0.323   1.389 -1.0261  0.0207 -0.0211
  666SOL     OW 2807   5.345   0.876   7.108  1.0209 -0.0112 -0.1118
  666SOL    HW1 2808   5.324   0.877   7.201  2.3380  0.7741  0.2057
  666SOL    HW2 2809   5.267   0.841   7.066  0.3546 -0.2490  1.2711
  667SOL     OW 2810   1.854   0.440   1.958  0.5395 -0.9866  0.1336
  667SOL    HW1 2811   1.808   0.357   1.946  0.2126 -0.5556 -2.0408
  667SOL    HW2 2812   1.874   0.469   1.869  1.8188  0.6245  0.9037
  668SOL     OW 2813   2.872   4.638   7.994  0.6925 -0.1728 -0.0390
  668SOL    HW1 2814   2.958   4.619   7.956  1.2906  0.2187  1.0668
  668SOL    HW2 2815   2.892   4.689   8.073 -0.4586 -1.3455  1.0605
  669SOL     OW 2816   6.169   0.488   4.017 -0.5626 -0.0113 -0.1681
  669SOL    HW1 2817   6.194   0.565   3.968 -0.4867  0.1397  0.1070
  669SOL    HW2 2818   6.243   0.428   4.009  0.2029  0.6984  1.2113
  670SOL     OW 2819   2.045   5.242   6.377 -0.2821  0.1373  0.3669
  670SOL    HW1 2820   2.113   5.182   6.347 -0.0583  0.0800  0.9848
  670SOL    HW2 2821   1.964   5.191   6.373 -0.1493 -0.0866  0.5213
  671SOL     OW 2822   7.954   5.159   6.498 -0.1618 -0.1778  0.2598
  671SOL    HW1 2823   8.027   5.151   6.437 -1.1802  2.0828 -1.4072
  671SOL    HW2 2824   7.879   5.122   6.450 -0.9941  1.6760  0.0357
  672SOL     OW 2825   6.417   4.464   2.185  0.2624  0.2840 -0.0866
  672SOL    HW1 2826   6.399   4.371   2.177  1.1976  0.2083 -1.8171
  672SOL    HW2 2827   6.469   4.472   2.265 -1.7996 -0.3227  1.3809
  673SOL     OW 2828   4.193   4.281   1.262 -0.0870  0.4559  0.2396
  673SOL    HW1 2829   4.132   4.353   1.279  1.5195  1.4716  2.1142
  673SOL    HW2 2830   4.234   4.304   1.178 -3.5077 -1.2533 -2.1223
  674SOL     OW 2831   6.114   7.751   7.386 -0.0828  0.2751 -0.7164
  674SOL    HW1 2832   6.154   7.689   7.326 -0.2604  0.6676 -1.2415
  674SOL    HW2 2833   6.159   7.737   7.469 -0.8157 -1.2697 -0.5509
  675SOL     OW 2834   7.404   3.768   2.265 -0.3504 -0.3960 -0.5679
  675SOL    HW1 2835   7.366   3.779   2.352 -1.0627  0.8351 -1.0180
  675SOL    HW2 2836   7.331   3.741   2.210 -0.5126  1.4771 -1.3278
  676SOL     OW 2837   1.652   4.458   3.773  0.5059 -0.2097  0.2409
  676SOL    HW1 2838   1.687   4.521   3.710 -0.7303  1.0891  0.7934
  676SOL    HW2 2839   1.707   4.469   3.850 -0.0257  0.5919  0.5158
  677SOL     OW 2840   6.299   4.163   6.139  0.0496 -0.1144  0.2377
  677SOL    HW1 2841   6.220   4.193   6.094  0.1293  0.7535  0.6345
  677SOL    HW2 2842   6.355   4.128   6.070 -1.0353 -1.5677  0.0647
  678SOL     OW 2843   7.257   5.613   3.742 -0.0056  0.6851 -0.3249
  678SOL    HW1 2844   7.216   5.697   3.719 -1.8104  0.0023  0.2412
  678SOL    HW2 2845   7.263   5.615   3.837  0.5721  0.4497 -0.3561
  679SOL     OW 2846   4.878   6.754   0.622 -0.0367 -0.3761  0.7022
  679SOL    HW1 2847   4.901   6.837   0.664 -1.4046  0.6652 -0.4951
  679SOL    HW2 2848   4.957   6.728   0.574 -0.7670  2.4698 -2.3533
  680SOL     OW 2849   2.082   2.624   0.049 -0.0263  0.2082 -0.1027
  680SOL    HW1 2850   2.042   2.603  -0.036 -1.7143 -1.1550  0.9553
  680SOL    HW2 2851   2.102   2.538   0.088 -0.0966  0.7721  1.2303
  681SOL     OW 2852   0.024   4.604   4.488  0.2135 -0.2114  0.1286
  681SOL    HW1 2853   0.078   4.582   4.564 -0.8173 -0.5886  0.7756
  681SOL    HW2 2854   0.023   4.699   4.486  0.7361 -0.2034  0.2318
  682SOL     OW 2855   5.866   7.546   4.889 -0.0157  0.7195  0.3509
  682SOL    HW1 2856   5.959   7.522   4.893 -0.3249 -0.6774 -0.1801
  682SOL    HW2 2857   5.841   7.529   4.798 -1.0668 -0.0717  0.7590
  683SOL     OW 2858   6.427   3.035   4.965  0.3110  0.6874 -0.2367
  683SOL    HW1 2859   6.340   3.027   5.003  0.5610 -0.3341  0.1396
  683SOL    HW2 2860   6.438   3.129   4.951 -0.4275  0.9275  0.6882
  684SOL     OW 2861   7.601   1.556   1.857 -0.0511 -0.0916 -0.0322
  684SOL    HW1 2862   7.638   1.621   1.917  0.1182  1.2033 -1.4964
  684SOL    HW2 2863   7.674   1.532   1.800 -0.9891  1.2377 -1.8714
  685SOL     OW 2864   0.374   1.243   2.647  0.4551  0.1256  0.2020
  685SOL    HW1 2865   0.295   1.276   2.688  1.0202  1.2409  0.4285
  685SOL    HW2 2866   0.396   1.308   2.579  1.5289  0.1931  0.5879
  686SOL     OW 2867   3.683   3.690   1.356  0.3919 -0.3145 -0.1279
  686SOL    HW1 2868   3.761   3.743   1.342 -0.4564  1.2447  0.6634
  686SOL    HW2 2869   3.685   3.667   1.449 -0.1178 -0.1854 -0.0784
  687SOL     OW 2870   4.107   0.203   5.005  0.1809 -0.6689 -0.2409
  687SOL    HW1 2871   4.064   0.172   4.925 -0.3237  0.0525 -0.2640
  687SOL    HW2 2872   4.127   0.295   4.987  0.3385 -0.5837  0.3454
  688SOL     OW 2873   6.775   0.699   0.492  0.2973 -0.0307  0.1510
  688SOL    HW1 2874   6.754   0.613   0.456  1.7502  0.0913 -1.0799
  688SOL    HW2 2875   6.801   0.682   0.582  0.9752 -0.9467 -0.2058
  689SOL     OW 2876   6.344   5.311   2.949  0.1661 -0.3035  0.0437
  689SOL    HW1 2877   6.368   5.403   2.936 -1.9725  0.3521  0.2520
  689SOL    HW2 2878   6.273   5.314   3.013 -0.0141 -2.1127 -0.0237
  690SOL     OW 2879   2.867   4.560   1.744 -0.5284 -0.2783 -0.7204
  690SOL    HW1 2880   2.801   4.557   1.675 -0.2930  0.8324 -1.0230
  690SOL    HW2 2881   2.820   4.591   1.821 -0.3887  0.4239 -0.9120
  691SOL     OW 2882   5.185   1.672   1.837 -0.6123  0.5545 -0.3320
  691SOL    HW1 2883   5.213   1.645   1.924 -1.1392 -0.0803 -0.3508
  691SOL    HW2 2884   5.253   1.636   1.779 -0.9063 -0.0945 -0.2857
  692SOL     OW 2885   1.716   4.394   0.737  0.2018 -0.3281 -0.4316
  692SOL    HW1 2886   1.702   4.309   0.696  1.5013 -0.2260 -1.1266
  692SOL    HW2 2887   1.653   4.396   0.809 -0.6065 -1.4131 -1.0794
  693SOL     OW 2888   4.616   4.472   2.524  0.3913 -0.4289 -0.4791
  693SOL    HW1 2889   4.585   4.445   2.438 -0.2017  0.1795 -0.4578
  693SOL    HW2 2890   4.689   4.532   2.506 -0.3199  0.4207 -0.5830
  694SOL     OW 2891   7.102   2.434   7.410 -0.4274 -0.6480 -0.6479
  694SOL    HW1 2892   7.184   2.386   7.406 -1.6482 -2.7870 -2.5800
  694SOL    HW2 2893   7.075   2.427   7.501  1.4824  0.0783  0.0160
  695SOL     OW 2894   6.254   6.616   0.482 -0.1064 -0.2674  0.1580
  695SOL    HW1 2895   6.250   6.624   0.578  1.1082 -0.5058  0.2384
  695SOL    HW2 2896   6.264   6.706   0.451  0.7816 -0.2980  0.3359
  696SOL     OW 2897   5.038   2.130   5.095  0.3225 -0.2773 -0.2397
  696SOL    HW1 2898   5.053   2.153   5.003  3.2559  1.8484  0.6466
  696SOL    HW2 2899   5.119   2.087   5.122 -0.4992 -0.8704  1.3766
  697SOL     OW 2900   0.466   7.633   0.547  0.0309  0.1031  0.0103
  697SOL    HW1 2901   0.464   7.626   0.452  0.8830  1.4306 -0.1253
  697SOL    HW2 2902   0.559   7.627   0.570 -0.0811  0.8010  0.6686
  698SOL     OW 2903   7.526   7.136   5.762 -0.3753  0.0255  0.4058
  698SOL    HW1 2904   7.569   7.177   5.837  0.6170 -0.2386  0.0096
  698SOL    HW2 2905   7.436   7.167   5.765 -0.1751  0.5545  1.3111
  699SOL     OW 2906   6.673   5.528   3.152 -0.1070  0.0728  0.5147
  699SOL    HW1 2907   6.710   5.565   3.232 -0.2304  0.5414  0.3566
  699SOL    HW2 2908   6.667   5.434   3.169  1.8731 -0.1524  0.2918
  700SOL     OW 2909   2.476   3.611   3.979  0.1868  0.1082  0.3785
  700SOL    HW1 2910   2.389   3.652   3.980  0.7364  1.3323  1.5000
  700SOL    HW2 2911   2.527   3.662   4.042  1.9738 -0.0324 -0.8784
  701SOL     OW 2912   4.849   2.548   6.049 -0.3939 -0.1963 -0.5212
  701SOL    HW1 2913   4.899   2.481   6.097  0.7433  1.9739  1.5106
  701SOL    HW2 2914   4.904   2.568   5.973  0.2511 -0.1612 -0.0568
  702SOL     OW 2915   0.223   3.668   3.821 -0.0997  0.0334 -0.3562
  702SOL    HW1 2916   0.152   3.705   3.768 -0.3200  0.7510  0.4241
  702SOL    HW2 2917   0.300   3.675   3.766 -0.5508 -0.3765 -1.0581
  703SOL     OW 2918   3.579   7.005   5.398  0.1317 -0.1201 -0.6694
  703SOL    HW1 2919   3.570   7.009   5.493 -3.2880  2.0790 -0.9319
  703SOL    HW2 2920   3.572   6.911   5.378  0.3351 -0.5711  1.1394
  704SOL     OW 2921   3.066   7.363   6.646  0.5438 -0.1319 -0.2482
  704SOL    HW1 2922   3.082   7.453   6.618  0.6916 -0.0908 -0.0280
  704SOL    HW2 2923   3.143   7.339   6.698  0.2025 -0.1598  0.2539
  705SOL     OW 2924   3.432   6.448   3.045 -0.5286 -0.2397 -1.2003
  705SOL    HW1 2925   3.519   6.459   3.007 -0.6875  1.9311 -1.0456
  705SOL    HW2 2926   3.378   6.416   2.973 -0.2156  1.1694 -2.0837
  706SOL     OW 2927   7.063   5.374   2.069  0.3867  0.5373 -0.2785
  706SOL    HW1 2928   6.990   5.436   2.075  0.0140  0.0192  0.8680
  706SOL    HW2 2929   7.055   5.337   1.982 -0.0731  1.2667 -0.5619
  707SOL     OW 2930   6.217   2.584   6.732  0.1705  0.3084 -0.8224
  707SOL    HW1 2931   6.130   2.623   6.724  0.0289  0.1106 -0.2996
  707SOL    HW2 2932   6.274   2.644   6.685  0.1632  1.8601  1.0706
  708SOL     OW 2933   4.249   4.393   2.444  0.1030 -0.0903  0.3860
  708SOL    HW1 2934   4.239   4.341   2.524 -0.8604  0.9057  0.9481
  708SOL    HW2 2935   4.328   4.359   2.403 -0.3380 -1.7913  0.8663
  709SOL     OW 2936   0.260   4.132   0.300  0.2448  0.3466 -0.2646
  709SOL    HW1 2937   0.291   4.058   0.352 -0.1593 -0.3758 -1.0155
  709SOL    HW2 2938   0.329   4.197   0.307  0.5659 -0.0702  0.4939
  710SOL     OW 2939   2.144   3.184   0.528  0.5828 -0.4574 -0.0160
  710SOL    HW1 2940   2.173   3.260   0.477  1.5746 -0.7941  0.0197
  710SOL    HW2 2941   2.223   3.130   0.537  0.2915 -0.6979  1.3704
  711SOL     OW 2942   3.579   6.982   7.431 -0.5179  0.1460 -0.4663
  711SOL    HW1 2943   3.659   6.945   7.470  0.3159  1.1644 -1.1583
  711SOL    HW2 2944   3.509   6.952   7.488  0.5620  0.8260  1.3106
  712SOL     OW 2945   2.532   4.137   6.742  0.0340  0.8684  0.0456
  712SOL    HW1 2946   2.452   4.096   6.774 -0.8136  2.3733 -0.0794
  712SOL    HW2 2947   2.573   4.069   6.688 -0.8460 -0.1271  0.5984
  713SOL     OW 2948   6.077   4.979   2.882  0.2596  0.1639 -0.1638
  713SOL    HW1 2949   6.101   4.992   2.790 -0.7013 -2.4630 -0.8763
  713SOL    HW2 2950   5.984   4.959   2.880  0.4633 -1.1371  1.2187
  714SOL     OW 2951   7.424   3.176   1.262  0.4005 -0.1820 -1.2999
  714SOL    HW1 2952   7.423   3.196   1.168  0.0914 -2.0852 -1.7331
  714SOL    HW2 2953   7.333   3.183   1.289  0.6810  2.0660 -0.6933
  715SOL     OW 2954   4.242   2.612   3.910  0.5445 -0.4989  1.1201
  715SOL    HW1 2955   4.300   2.686   3.895  0.8657 -0.6433  1.6569
  715SOL    HW2 2956   4.199   2.598   3.825  1.8139 -0.8398  0.5154
  716SOL     OW 2957   2.915   3.906   6.690 -0.4221 -0.3798  0.5645
  716SOL    HW1 2958   2.983   3.845   6.718 -0.1238 -0.5062 -0.4082
  716SOL    HW2 2959   2.854   3.852   6.640 -0.5963 -0.0384  0.4079
  717SOL     OW 2960   3.034   5.440   3.351 -0.7588  0.1180  0.4493
  717SOL    HW1 2961   3.006   5.531   3.348  1.3532  0.8612 -3.2825
  717SOL    HW2 2962   3.115   5.442   3.403 -0.9408  0.2971  0.7269
  718SOL     OW 2963   6.855   0.049   7.122  0.5196  0.2977  0.0666
  718SOL    HW1 2964   6.950   0.050   7.117  0.4906  0.2139 -0.6830
  718SOL    HW2 2965   6.835  -0.001   7.201  1.1121  1.9546  1.3096
  719SOL     OW 2966   7.419   4.478   0.344 -0.3056 -0.0259  0.8175
  719SOL    HW1 2967   7.491   4.538   0.362  1.2261 -1.4092 -0.3816
  719SOL    HW2 2968   7.442   4.398   0.391 -0.4911 -0.8377 -0.4269
  720SOL     OW 2969   1.205   6.993   6.927  0.4454  0.0745  0.5205
  720SOL    HW1 2970   1.185   7.087   6.935 -0.6304 -0.0273 -0.6432
  720SOL    HW2 2971   1.284   6.989   6.873 -1.3244  0.2763 -2.2855
  721SOL     OW 2972   4.931   2.960   6.672  0.0141  0.0571 -0.1603
  721SOL    HW1 2973   4.995   2.901   6.633 -0.6672  0.2819 -1.7275
  721SOL    HW2 2974   4.885   2.997   6.597 -1.4663  0.4396  0.8933
  722SOL     OW 2975   5.308   0.862   3.660  0.5125 -0.2904  0.0126
  722SOL    HW1 2976   5.383   0.898   3.614 -0.0413  0.6044 -0.2231
  722SOL    HW2 2977   5.335   0.774   3.686  0.8719 -0.8356 -1.9964
  723SOL     OW 2978   7.269   6.461   5.206  0.3872  0.6547  0.1613
  723SOL    HW1 2979   7.335   6.520   5.242  0.6421  1.3969 -1.4310
  723SOL    HW2 2980   7.235   6.506   5.129 -0.3840 -0.6906 -0.3292
  724SOL     OW 2981   0.005   5.863   6.075  0.0223 -0.1307  0.4539
  724SOL    HW1 2982  -0.032   5.776   6.084  0.3877 -0.3044  0.3091
  724SOL    HW2 2983  -0.059   5.921   6.116  0.5384 -0.6343  2.0410
  725SOL     OW 2984   6.449   1.468   7.509 -0.1514 -0.6215 -0.7014
  725SOL    HW1 2985   6.459   1.415   7.430 -0.4084 -1.5024 -0.1668
  725SOL    HW2 2986   6.421   1.554   7.478  3.6392  0.3788 -1.8853
  726SOL     OW 2987   0.768   2.249   5.035  0.0023  0.1183 -0.5403
  726SOL    HW1 2988   0.794   2.309   5.105  0.1234 -2.3582  1.6964
  726SOL    HW2 2989   0.677   2.271   5.017 -0.3734  0.1618  1.1986
  727SOL     OW 2990   1.404   2.252   2.375  0.3451  0.6815 -0.5337
  727SOL    HW1 2991   1.318   2.243   2.416  0.6987 -0.6005 -0.0436
  727SOL    HW2 2992   1.386   2.254   2.281 -0.0894 -1.6228 -0.5369
  728SOL     OW 2993   1.713   3.881   6.825  0.2364  0.4257  0.5784
  728SOL    HW1 2994   1.742   3.813   6.886  0.8795 -0.5015 -0.6966
  728SOL    HW2 2995   1.620   3.863   6.812  0.3310 -0.0242  0.4952
  729SOL     OW 2996   3.448   4.264   4.419  0.7734  0.0780 -0.2782
  729SOL    HW1 2997   3.515   4.303   4.476  0.0332 -0.3491  0.9193
  729SOL    HW2 2998   3.424   4.183   4.464 -0.8392  0.4233 -0.4756
  730SOL     OW 2999   3.241   2.254   2.812  0.8994 -0.1806 -0.2140
  730SOL    HW1 3000   3.318   2.205   2.784 -0.3413 -1.4568 -1.5758
  730SOL    HW2 3001   3.184   2.188   2.853 -0.0031  0.4641 -0.3916
  731SOL     OW 3002   2.612   6.558   2.606 -0.1387 -0.4237 -0.1043
  731SOL    HW1 3003   2.681   6.562   2.539 -1.0911 -0.3527 -1.1012
  731SOL    HW2 3004   2.656   6.583   2.687  1.3808 -1.8782 -0.4255
  732SOL     OW 3005   2.602   3.177   3.646 -0.2688  0.0996 -0.1479
  732SOL    HW1 3006   2.516   3.176   3.686 -0.2863  1.7543 -0.0757
  732SOL    HW2 3007   2.585   3.181   3.552 -0.2601 -0.6492 -0.1811
  733SOL     OW 3008   4.334   2.076   6.237  0.6215  0.5171 -0.3283
  733SOL    HW1 3009   4.247   2.050   6.206  0.3606 -0.2019  0.9398
  733SOL    HW2 3010   4.324   2.085   6.332  1.7678  1.1123 -0.2533
  734SOL     OW 3011   5.268   7.040   3.400 -0.0104 -0.4425  0.0417
  734SOL    HW1 3012   5.190   7.092   3.414 -0.0313 -0.2178 -0.8429
  734SOL    HW2 3013   5.237   6.949   3.399 -0.1656 -0.3915  0.3120
  735SOL     OW 3014   5.867   0.914   0.677 -0.7118 -0.1804 -0.0461
  735SOL    HW1 3015   5.854   0.994   0.727 -1.1761  0.3757 -1.0143
  735SOL    HW2 3016   5.923   0.859   0.732  2.0871  1.9786 -0.5564
  736SOL     OW 3017   4.908   6.041   0.513  0.2792 -0.1013  0.6938
  736SOL    HW1 3018   4.971   6.090   0.566 -0.1436  0.4182  0.7164
  736SOL    HW2 3019   4.959   5.967   0.479  0.7620  0.0059  1.1608
  737SOL     OW 3020   7.594   5.472   6.614  0.3058 -0.6935  0.6520
  737SOL    HW1 3021   7.548   5.484   6.697 -0.7906 -2.0194  0.2656
  737SOL    HW2 3022   7.649   5.550   6.606 -3.2829  2.0884  0.2228
  738SOL     OW 3023   2.545   6.008   0.348 -0.3766 -0.0101  1.0863
  738SOL    HW1 3024   2.455   6.025   0.323 -0.1234  0.0929  0.2208
  738SOL    HW2 3025   2.595   6.015   0.267  0.1478 -2.0646  1.1555
  739SOL     OW 3026   5.475   4.405   5.361 -1.1463  0.5341  0.0502
  739SOL    HW1 3027   5.507   4.412   5.451 -1.1617  1.2495  0.0047
  739SOL    HW2 3028   5.470   4.311   5.345 -1.8623  0.3871  1.0511
  740SOL     OW 3029   6.029   3.840   6.871  0.1772  0.0607  0.0205
  740SOL    HW1 3030   6.054   3.759   6.827 -3.2090 -1.6435  0.8830
  740SOL    HW2 3031   6.001   3.898   6.800 -0.5500 -0.8018 -0.4097
  741SOL     OW 3032   0.309   6.559   3.591  0.1459 -0.0401 -0.0236
  741SOL    HW1 3033   0.379   6.596   3.537 -0.0116  1.6303  0.8321
  741SOL    HW2 3034   0.243   6.530   3.529  0.1779  1.4090 -0.7718
  742SOL     OW 3035   2.834   3.621   2.718  0.8667  0.3086  0.3741
  742SOL    HW1 3036   2.872   3.704   2.691  1.8350 -0.0638  0.5776
  742SOL    HW2 3037   2.852   3.561   2.645  2.9102 -0.5295  1.5056
  743SOL     OW 3038   5.097   1.508   3.090 -0.0720 -0.8055 -0.0272
  743SOL    HW1 3039   5.175   1.559   3.114 -0.8479 -0.4955  2.0339
  743SOL    HW2 3040   5.026   1.572   3.091 -0.4076 -1.0930 -1.8507
  744SOL     OW 3041   3.175   0.318   0.466 -0.2857 -0.5768 -0.4751
  744SOL    HW1 3042   3.165   0.350   0.376  0.9107 -1.9282 -1.1358
  744SOL    HW2 3043   3.157   0.224   0.460 -0.1928 -0.6756  0.6925
  745SOL     OW 3044   7.430   3.930   2.872 -0.1720  0.0800 -0.7544
  745SOL    HW1 3045   7.510   3.949   2.823  0.2852 -1.0658 -0.5009
  745SOL    HW2 3046   7.400   4.015   2.904  0.2104  0.6914 -1.9600
  746SOL     OW 3047   0.816   2.828   5.405  0.2834 -0.0952 -0.0431
  746SOL    HW1 3048   0.873   2.858   5.475 -1.4559 -0.9135  1.8199
  746SOL    HW2 3049   0.833   2.889   5.333  1.2629  1.5250  1.4686
  747SOL     OW 3050   7.154   3.808   4.737 -0.4789 -0.0483  0.2164
  747SOL    HW1 3051   7.111   3.893   4.743 -1.9177 -0.7291  0.1024
  747SOL    HW2 3052   7.089   3.746   4.770 -0.0450 -1.2627 -1.0903
  748SOL     OW 3053   4.056   1.224   6.655  0.0486 -0.0023 -0.2953
  748SOL    HW1 3054   4.088   1.245   6.567 -0.5138 -0.2932 -0.5728
  748SOL    HW2 3055   4.136   1.217   6.708  0.7996 -3.8236 -1.5966
  749SOL     OW 3056   6.851   6.526   3.187  0.2533 -0.0240 -0.3888
  749SOL    HW1 3057   6.834   6.598   3.125 -1.1978 -1.2052 -1.4485
  749SOL    HW2 3058   6.863   6.449   3.131 -1.1764 -1.1489  0.7588
  750SOL     OW 3059   6.257   3.710   2.011  0.0662  0.4038  0.2808
  750SOL    HW1 3060   6.273   3.616   2.001  1.6247  0.6565  0.1496
  750SOL    HW2 3061   6.163   3.719   2.000 -0.3768 -1.3508  1.9691
  751SOL     OW 3062   7.444   4.276   7.037 -0.2544  0.6635  0.1076
  751SOL    HW1 3063   7.471   4.210   6.973 -1.1382  0.7633 -0.3768
  751SOL    HW2 3064   7.355   4.298   7.012 -0.2569  1.4324  0.7829
  752SOL     OW 3065   3.501   7.234   2.208  0.3318  0.5538  0.5088
  752SOL    HW1 3066   3.480   7.291   2.134  0.2698  1.2428  1.0600
  752SOL    HW2 3067   3.479   7.146   2.176 -1.6597  1.0460  0.4107
  753SOL     OW 3068   0.962   7.723   3.832 -0.1954  0.6198 -0.1562
  753SOL    HW1 3069   0.986   7.782   3.761 -1.4118  0.5982 -0.6086
  753SOL    HW2 3070   0.870   7.744   3.851 -1.2320 -2.1827 -1.4629
  754SOL     OW 3071   1.124   6.314   2.833 -0.1254 -0.0893 -0.2501
  754SOL    HW1 3072   1.099   6.287   2.922  0.0209  0.8594  0.0872
  754SOL    HW2 3073   1.100   6.239   2.778  1.2117 -1.3378  0.7768
  755SOL     OW 3074   4.819   6.286   1.513 -0.6453 -0.5434  0.3339
  755SOL    HW1 3075   4.748   6.269   1.575 -0.9611  2.5877  0.9745
  755SOL    HW2 3076   4.775   6.317   1.434 -0.0645 -0.0934  0.1822
  756SOL     OW 3077   7.286   4.799   7.695  0.7467  0.4095 -0.2510
  756SOL    HW1 3078   7.296   4.760   7.608 -3.1604 -0.1315 -0.6177
  756SOL    HW2 3079   7.216   4.749   7.736  0.2094  2.7542  1.9214
  757SOL     OW 3080   4.691   0.777   5.942  0.2519 -0.3698 -0.3905
  757SOL    HW1 3081   4.615   0.740   5.986 -0.4483 -0.3233 -1.5081
  757SOL    HW2 3082   4.675   0.760   5.849  0.1947  2.1779 -0.9268
  758SOL     OW 3083   3.945   7.331   4.889 -0.6036 -0.4119  0.7925
  758SOL    HW1 3084   3.973   7.407   4.837  0.1123 -1.8089 -1.0069
  758SOL    HW2 3085   4.026   7.284   4.909 -1.2129 -2.5806 -1.3057
  759SOL     OW 3086   2.272   4.429   4.621  0.4950  0.3800  0.4001
  759SOL    HW1 3087   2.274   4.430   4.716 -0.6912 -0.6013  0.4574
  759SOL    HW2 3088   2.363   4.447   4.595  0.7351  1.1317  1.6853
  760SOL     OW 3089   3.255   1.231   2.692  0.7464 -0.2880 -0.0718
  760SOL    HW1 3090   3.300   1.316   2.693 -1.3275  0.9048  1.6282
  760SOL    HW2 3091   3.297   1.180   2.761 -0.1903  0.6992  1.2892
  761SOL     OW 3092   0.925   5.805   3.381 -0.0697  0.0525 -0.2860
  761SOL    HW1 3093   0.960   5.790   3.469 -1.1393 -0.6897  0.0301
  761SOL    HW2 3094   0.928   5.720   3.339 -2.6747 -0.3694  0.2146
  762SOL     OW 3095   0.315   6.589   7.111 -0.0439  0.2237  0.1380
  762SOL    HW1 3096   0.349   6.595   7.200  1.6226 -0.3842 -0.4087
  762SOL    HW2 3097   0.294   6.496   7.100 -1.7042  0.5478  0.3724
  763SOL     OW 3098   5.229   6.240   1.566 -0.0997  0.1145 -0.3017
  763SOL    HW1 3099   5.170   6.292   1.622  0.3355  1.0288 -0.6664
  763SOL    HW2 3100   5.219   6.279   1.479 -1.6107 -2.0014 -1.1413
  764SOL     OW 3101   4.337   7.547   2.409 -0.1375  0.1354  0.0838
  764SOL    HW1 3102   4.290   7.494   2.345 -0.7630  0.0949  0.5643
  764SOL    HW2 3103   4.343   7.634   2.368  2.1558 -0.6019 -1.3302
  765SOL     OW 3104   3.889   3.062   0.811  0.3937  0.0106  0.2291
  765SOL    HW1 3105   3.801   3.029   0.830  0.0186  0.6990 -0.2765
  765SOL    HW2 3106   3.900   3.136   0.870 -0.1945  1.2300 -1.1414
  766SOL     OW 3107   2.036   0.905   6.301 -0.4624 -0.1771  0.2561
  766SOL    HW1 3108   2.044   0.962   6.377 -0.5172  0.6256 -0.3234
  766SOL    HW2 3109   1.942   0.888   6.294 -0.4138 -0.6181  0.6217
  767SOL     OW 3110   6.681   7.704   5.659  0.4451  0.0422 -0.4859
  767SOL    HW1 3111   6.673   7.613   5.631 -0.0465  0.6621 -2.4985
  767SOL    HW2 3112   6.632   7.754   5.593  0.4642  1.7486  0.7215
  768SOL     OW 3113   2.211   2.736   2.119 -0.4463 -0.8913  0.0361
  768SOL    HW1 3114   2.147   2.678   2.160 -0.4825  0.4576  2.0576
  768SOL    HW2 3115   2.294   2.715   2.162 -0.4728  0.5326  0.8726
  769SOL     OW 3116   5.791   2.807   2.649 -0.0755  0.3766  0.0661
  769SOL    HW1 3117   5.745   2.861   2.713 -0.2104 -0.7406  0.9342
  769SOL    HW2 3118   5.721   2.766   2.597  0.0095  0.4665 -0.1222
  770SOL     OW 3119   5.306   4.114   0.518 -0.3139  0.3527  0.2183
  770SOL    HW1 3120   5.224   4.065   0.520  0.1059 -0.4187 -0.6940
  770SOL    HW2 3121   5.352   4.082   0.441  1.5388 -0.3743  1.5358
  771SOL     OW 3122   0.560   2.186   4.247  0.2629  0.6354  0.6664
  771SOL    HW1 3123   0.612   2.230   4.313 -1.4264 -0.3373  2.7884
  771SOL    HW2 3124   0.615   2.113   4.218  0.6261  0.4031  1.8658
  772SOL     OW 3125   3.794   2.508   2.878  0.0450  0.8115 -0.2664
  772SOL    HW1 3126   3.851   2.527   2.953 -0.6743 -2.8680  1.4413
  772SOL    HW2 3127   3.707   2.532   2.909 -0.0338  1.1296 -0.7279
  773SOL     OW 3128   1.916   5.309   3.479 -0.2926  0.1803  0.6569
  773SOL    HW1 3129   1.994   5.288   3.427 -1.7493 -0.1610 -1.5478
  773SOL    HW2 3130   1.891   5.227   3.521 -1.1744 -0.5666 -1.1766
  774SOL     OW 3131   0.641   2.177   5.800 -0.4195 -0.5960 -0.2462
  774SOL    HW1 3132   0.563   2.208   5.846 -0.7846 -0.0989 -1.1848
  774SOL    HW2 3133   0.632   2.210   5.711 -0.6111 -2.9935 -1.2065
  775SOL     OW 3134   3.983   2.437   6.902  0.0156 -0.0440 -0.1894
  775SOL    HW1 3135   3.952   2.464   6.816  0.0803 -0.8383 -0.4652
  775SOL    HW2 3136   3.991   2.519   6.951  0.2437  0.4385 -1.0184
  776SOL     OW 3137   4.235   2.915   5.093 -0.2680  0.3486 -0.1798
  776SOL    HW1 3138   4.220   2.835   5.041 -2.0825  0.4394  0.1293
  776SOL    HW2 3139   4.189   2.983   5.045 -2.2736  0.3778  1.6427
  777SOL     OW 3140   5.271   4.884   6.040  0.3327 -0.2360 -0.4921
  777SOL    HW1 3141   5.186   4.884   5.996  0.4308  1.3718 -0.7376
  777SOL    HW2 3142   5.328   4.835   5.982  0.1552  0.7996 -1.5781
  778SOL     OW 3143   0.682   2.507   3.870  0.2241  0.3533  0.2169
  778SOL    HW1 3144   0.665   2.420   3.832 -1.7675  0.9926 -0.4864
  778SOL    HW2 3145   0.639   2.503   3.956 -1.5242  1.2058 -0.5762
  779SOL     OW 3146   7.651   0.031   6.600 -0.1200 -0.1293  0.2528
  779SOL    HW1 3147   7.661   0.072   6.686 -0.2801  0.7612 -0.1402
  779SOL    HW2 3148   7.692   0.093   6.540 -2.4879  0.6317 -0.6603
  780SOL     OW 3149   2.886   4.769   0.237 -0.3769 -0.0866 -0.4296
  780SOL    HW1 3150   2.806   4.730   0.271 -0.1155 -0.1202  0.1607
  780SOL    HW2 3151   2.856   4.838   0.178 -0.8438 -0.1046 -0.2150
  781SOL     OW 3152   5.115   1.964   7.883  0.1671  0.5502  0.3552
  781SOL    HW1 3153   5.086   2.044   7.927 -0.4007  0.3919  0.2763
  781SOL    HW2 3154   5.057   1.895   7.916 -2.9093  1.0213 -3.3360
  782SOL     OW 3155   2.070   4.550   3.793  0.3991  0.6265 -0.5120
  782SOL    HW1 3156   2.101   4.480   3.735  1.6406  0.9170 -0.2153
  782SOL    HW2 3157   2.087   4.631   3.745 -0.3405  0.7798 -0.5349
  783SOL     OW 3158   7.030   7.189   0.601  0.3391 -0.0905  0.0134
  783SOL    HW1 3159   6.935   7.178   0.601  0.0389  2.0026  1.0856
  783SOL    HW2 3160   7.051   7.214   0.691  1.9309 -0.6677 -0.1686
  784SOL     OW 3161   1.784   7.190   6.029 -0.2975  0.2692  0.4064
  784SOL    HW1 3162   1.813   7.199   6.120 -1.3311  1.4061  0.6508
  784SOL    HW2 3163   1.863   7.205   5.977  0.1488  0.3924  1.1073
  785SOL     OW 3164   4.558   4.516   3.707 -0.0197  0.0952  0.4906
  785SOL    HW1 3165   4.592   4.482   3.790  0.6713 -0.1547  0.1100
  785SOL    HW2 3166   4.572   4.610   3.713  2.4788 -0.1442 -0.3970
  786SOL     OW 3167   4.554   2.215   4.943 -0.5511  0.6535 -0.4728
  786SOL    HW1 3168   4.539   2.235   4.851 -1.4606  0.4347 -0.3841
  786SOL    HW2 3169   4.466   2.210   4.981 -0.4294 -2.6359 -0.3252
  787SOL     OW 3170   2.035   5.088   7.368 -0.1478  0.1772  0.1554
  787SOL    HW1 3171   2.036   5.122   7.279  0.7132  2.3132  0.8984
  787SOL    HW2 3172   2.095   5.014   7.366 -0.2182  0.1290 -1.0588
  788SOL     OW 3173   5.846   3.054   0.281  0.2265  0.2287 -0.4512
  788SOL    HW1 3174   5.856   3.079   0.189 -0.7516  1.2554 -0.3071
  788SOL    HW2 3175   5.826   2.961   0.279  1.8682 -0.1533 -1.1590
  789SOL     OW 3176   0.082   0.655   3.722 -0.1059  0.3995  0.0386
  789SOL    HW1 3177  -0.007   0.682   3.744 -0.5728 -1.5308  0.7714
  789SOL    HW2 3178   0.114   0.723   3.663 -1.6987  1.6462  0.5268
  790SOL     OW 3179   4.386   3.732   5.728 -0.1653 -0.0767 -0.7979
  790SOL    HW1 3180   4.431   3.763   5.806 -0.5462 -0.8327 -0.2724
  790SOL    HW2 3181   4.324   3.803   5.707  1.1388  0.9164 -1.4611
  791SOL     OW 3182   5.695   6.794   5.787 -0.0582 -1.0039  0.2683
  791SOL    HW1 3183   5.627   6.861   5.787  0.2601 -0.6710  1.1962
  791SOL    HW2 3184   5.688   6.753   5.700 -0.0391  0.4444 -0.4479
  792SOL     OW 3185   6.725   4.588   6.431 -0.4040 -0.5148  0.6783
  792SOL    HW1 3186   6.655   4.523   6.418 -0.8859  0.0571  0.3623
  792SOL    HW2 3187   6.802   4.549   6.390 -0.7821 -0.7277  0.1687
  793SOL     OW 3188   6.760   4.486   3.687 -0.7626 -0.1089  0.2519
  793SOL    HW1 3189   6.768   4.467   3.594  2.2643  0.5561  0.2560
  793SOL    HW2 3190   6.844   4.459   3.724 -0.8418  2.1078  2.2830
  794SOL     OW 3191   3.633   6.029   7.132 -0.1927  0.1785 -0.2174
  794SOL    HW1 3192   3.626   6.068   7.044 -1.9620  0.2663 -0.0868
  794SOL    HW2 3193   3.554   6.060   7.177 -0.0344 -1.0218  0.9315
  795SOL     OW 3194   5.874   3.718   6.547  0.4593 -0.5872 -0.4924
  795SOL    HW1 3195   5.836   3.655   6.608 -0.3087 -0.1288 -0.4938
  795SOL    HW2 3196   5.829   3.800   6.565  1.9447  0.1650  0.0061
  796SOL     OW 3197   4.923   4.658   5.968 -0.2338 -0.6160  0.7416
  796SOL    HW1 3198   4.828   4.672   5.968 -0.0474  1.0438 -1.1919
  796SOL    HW2 3199   4.960   4.746   5.964  1.3055 -1.2891 -1.5809
  797SOL     OW 3200   3.623   7.911   2.176  0.7417  0.8899  0.0880
  797SOL    HW1 3201   3.712   7.941   2.193  1.0785 -0.8593  1.8068
  797SOL    HW2 3202   3.585   7.899   2.263 -1.0717  1.2517 -0.6152
  798SOL     OW 3203   2.012   6.632   2.429 -1.1632 -0.0863  0.1391
  798SOL    HW1 3204   2.004   6.725   2.407 -1.0634  0.1697  1.1323
  798SOL    HW2 3205   2.079   6.599   2.370 -1.2794  0.4426 -0.3003
  799SOL     OW 3206   3.645   6.547   4.839 -0.0433  0.5701  0.2232
  799SOL    HW1 3207   3.606   6.478   4.894 -1.0286 -0.6103 -1.8326
  799SOL    HW2 3208   3.643   6.625   4.894 -0.9377 -0.5428  1.8817
  800SOL     OW 3209   0.906   4.260   0.659  0.1213  0.2825  0.0906
  800SOL    HW1 3210   0.853   4.180   0.659  1.4371 -0.6262  0.5281
  800SOL    HW2 3211   0.866   4.315   0.592 -0.4484 -1.0069 -0.6765
  801SOL     OW 3212   2.634   3.297   0.944  0.0518  0.5891 -0.3135
  801SOL    HW1 3213   2.707   3.260   0.994  0.7517  1.6552 -0.5173
  801SOL    HW2 3214   2.556   3.255   0.981  0.4211  2.0278  2.3467
  802SOL     OW 3215   6.496   0.091   7.811  0.2980  0.2517  0.2332
  802SOL    HW1 3216   6.478   0.079   7.904 -0.0883  1.1409  0.2829
  802SOL    HW2 3217   6.538   0.177   7.806  0.5882  0.0824 -0.3863
  803SOL     OW 3218   7.889   2.532   5.444 -0.5473  0.3634 -0.8589
  803SOL    HW1 3219   7.836   2.562   5.517 -0.9283 -0.6874 -0.6764
  803SOL    HW2 3220   7.875   2.437   5.443  0.3825  0.2244 -1.5592
  804SOL     OW 3221   3.051   5.373   7.003 -0.0051  0.0924  0.7827
  804SOL    HW1 3222   2.984   5.435   6.972 -1.5270 -0.7534  2.2048
  804SOL    HW2 3223   3.090   5.417   7.080  1.1163  0.5768 -0.0328
  805SOL     OW 3224   3.246   0.735   0.633  0.1192 -0.6568  0.3016
  805SOL    HW1 3225   3.192   0.679   0.688 -0.8682 -1.4893 -1.4071
  805SOL    HW2 3226   3.324   0.683   0.615 -0.5734 -1.3571 -0.8712
  806SOL     OW 3227   6.341   1.419   2.311 -0.0203  0.2661  0.1351
  806SOL    HW1 3228   6.381   1.351   2.258  0.6506 -0.5738  1.6385
  806SOL    HW2 3229   6.413   1.456   2.362 -0.1909  2.8292 -1.3271
  807SOL     OW 3230   7.714   0.384   1.657  0.1815 -0.7555  0.1062
  807SOL    HW1 3231   7.786   0.382   1.720 -0.8266 -0.8691  1.2984
  807SOL    HW2 3232   7.753   0.352   1.575  1.0809 -2.4782  1.1432
  808SOL     OW 3233   2.062   6.063   5.892  0.0370 -0.0368 -0.1575
  808SOL    HW1 3234   2.143   6.112   5.878 -0.0300 -0.4034 -2.2652
  808SOL    HW2 3235   2.059   6.000   5.820 -0.5427 -2.2832  1.6946
  809SOL     OW 3236   3.555   2.910   0.149  0.1286  0.2867  0.4140
  809SOL    HW1 3237   3.489   2.971   0.182 -0.0648  0.0554  0.4635
  809SOL    HW2 3238   3.600   2.879   0.227  1.1141  1.3512  0.2931
  810SOL     OW 3239   7.422   6.659   6.448 -0.0571  0.0292  0.2970
  810SOL    HW1 3240   7.487   6.596   6.414 -1.3409 -1.0284 -0.3229
  810SOL    HW2 3241   7.461   6.745   6.433  1.6627 -0.5952  0.9616
  811SOL     OW 3242   3.915   5.612   7.236  0.1815 -0.3853 -0.3572
  811SOL    HW1 3243   3.823   5.597   7.258 -0.0091 -0.1682 -0.9868
  811SOL    HW2 3244   3.921   5.592   7.143  0.0692  2.6393 -1.0954
  812SOL     OW 3245   7.351   5.687   1.622 -0.2824 -0.1315 -0.1705
  812SOL    HW1 3246   7.306   5.639   1.692  2.6127 -1.1068  1.1626
  812SOL    HW2 3247   7.333   5.636   1.543 -1.7773 -0.2682  0.2245
  813SOL     OW 3248   6.684   5.384   0.787  0.1464  0.1641 -0.2229
  813SOL    HW1 3249   6.595   5.350   0.799  0.4736 -0.2833  1.1186
  813SOL    HW2 3250   6.677   5.441   0.710 -1.6090  1.1738  0.6202
  814SOL     OW 3251   5.314   6.694   5.674 -0.2240 -0.4946 -0.3651
  814SOL    HW1 3252   5.288   6.733   5.590  0.5989 -1.4883 -1.1040
  814SOL    HW2 3253   5.234   6.653   5.707 -0.6158  0.1168 -0.5384
  815SOL     OW 3254   2.825   3.595   2.024  0.2811 -0.1470  0.6764
  815SOL    HW1 3255   2.912   3.628   1.999 -0.3997  0.8636 -0.4648
  815SOL    HW2 3256   2.822   3.507   1.988 -0.3910  1.0093 -2.3930
  816SOL     OW 3257   1.594   6.033   4.096 -0.3100  0.0725 -0.1996
  816SOL    HW1 3258   1.517   5.979   4.079 -0.2706 -0.0826  0.0979
  816SOL    HW2 3259   1.667   5.985   4.056 -0.1033 -0.6590  0.9901
  817SOL     OW 3260   7.574   1.950   4.961  1.0125  0.1096 -0.1216
  817SOL    HW1 3261   7.582   1.862   4.996  1.4788 -0.1020 -0.7489
  817SOL    HW2 3262   7.521   1.940   4.882 -0.6434  0.6817  0.8483
  818SOL     OW 3263   1.963   1.449   4.518  0.7853 -0.0138  0.1011
  818SOL    HW1 3264   1.886   1.501   4.539 -0.0114 -1.1493  0.0465
  818SOL    HW2 3265   1.957   1.433   4.424  1.6781  0.7931 -0.1171
  819SOL     OW 3266   2.776   5.626   0.756 -0.3453  0.4283  0.1433
  819SOL    HW1 3267   2.712   5.579   0.703  0.5005  0.6456 -1.1250
  819SOL    HW2 3268   2.857   5.576   0.745  0.6545  2.2754 -1.4832
  820SOL     OW 3269   0.665   4.095   0.460  0.4364  0.3588  0.3730
  820SOL    HW1 3270   0.644   4.003   0.445  0.1428  0.6158 -0.8926
  820SOL    HW2 3271   0.580   4.136   0.478  0.4736  0.5194  0.1822
  821SOL     OW 3272   2.086   1.359   2.629 -0.7279 -0.0203  0.6994
  821SOL    HW1 3273   2.001   1.397   2.608 -0.3175  0.9613  0.7780
  821SOL    HW2 3274   2.104   1.298   2.557 -1.4080 -0.1016  0.5928
  822SOL     OW 3275   5.536   5.627   3.986 -0.0317 -0.2908  0.2272
  822SOL    HW1 3276   5.511   5.648   4.076 -0.7426  0.4597 -0.1359
  822SOL    HW2 3277   5.486   5.548   3.965  0.3194 -0.6046  0.5695
  823SOL     OW 3278   7.940   6.181   2.908 -0.4766  0.2039 -0.2374
  823SOL    HW1 3279   7.866   6.165   2.966  0.6302 -0.3425  1.0712
  823SOL    HW2 3280   8.015   6.141   2.952  0.5613  0.4809 -1.6610
  824SOL     OW 3281   0.236   4.541   0.529 -0.1710  0.2365 -0.1484
  824SOL    HW1 3282   0.162   4.504   0.479 -0.2727  1.6101 -1.0628
  824SOL    HW2 3283   0.299   4.568   0.462  0.0729  1.3359  0.5002
  825SOL     OW 3284   0.072   4.740   7.363  0.3374 -0.2962  0.0102
  825SOL    HW1 3285  -0.018   4.728   7.331  1.2593 -0.6713 -2.7082
  825SOL    HW2 3286   0.079   4.680   7.438 -1.8798  0.3774  0.8500
  826SOL     OW 3287   7.515   0.542   7.801 -0.3123  0.5354  0.4622
  826SOL    HW1 3288   7.599   0.586   7.784  0.9939 -2.1230 -0.5693
  826SOL    HW2 3289   7.449   0.607   7.778  1.4429  1.1457 -3.8598
  827SOL     OW 3290   0.018   0.122   4.685  0.1757 -0.3147  0.4384
  827SOL    HW1 3291   0.061   0.042   4.716  1.5220  1.0024  2.1337
  827SOL    HW2 3292   0.030   0.120   4.590  3.6503 -0.2662  0.7476
  828SOL     OW 3293   2.769   3.993   7.831  0.0371 -0.4387 -0.0747
  828SOL    HW1 3294   2.703   4.063   7.835 -1.3602 -1.7479  1.3011
  828SOL    HW2 3295   2.777   3.973   7.738 -1.6238 -0.3033 -0.2800
  829SOL     OW 3296   7.740   0.916   3.623 -0.1260 -0.3106  0.2849
  829SOL    HW1 3297   7.776   0.941   3.538 -0.6932  0.2972  0.2130
  829SOL    HW2 3298   7.710   0.998   3.661 -0.8481 -0.7136  0.6087
  830SOL     OW 3299   4.846   0.527   3.174 -0.2886  0.4634 -0.3874
  830SOL    HW1 3300   4.772   0.518   3.233 -0.8966  3.7086 -0.4913
  830SOL    HW2 3301   4.806   0.544   3.089  0.5851  1.0970 -0.6750
  831SOL     OW 3302   2.489   7.139   1.628  0.0919  0.3013  0.7986
  831SOL    HW1 3303   2.430   7.081   1.580  0.4548  0.5371  0.0410
  831SOL    HW2 3304   2.454   7.141   1.717 -0.8644  0.2080  0.4391
  832SOL     OW 3305   3.780   1.253   0.695  0.3327  0.4927 -0.4256
  832SOL    HW1 3306   3.875   1.243   0.690  0.1445 -1.1171 -1.4810
  832SOL    HW2 3307   3.761   1.330   0.641  1.0191  0.8000 -0.2382
  833SOL     OW 3308   4.696   1.909   2.357  0.3266  0.5591 -0.0417
  833SOL    HW1 3309   4.612   1.877   2.324 -0.8111  1.2027  2.0382
  833SOL    HW2 3310   4.762   1.854   2.314 -1.2351 -0.8768 -0.6910
  834SOL     OW 3311   2.066   3.293   1.420 -0.0667  0.1403 -0.2508
  834SOL    HW1 3312   2.018   3.323   1.497 -0.9687 -0.4544 -0.5752
  834SOL    HW2 3313   2.009   3.314   1.346  0.1398 -0.6041 -0.6359
  835SOL     OW 3314   7.528   1.000   4.222 -0.0322 -0.1009  0.2103
  835SOL    HW1 3315   7.595   0.946   4.263  0.1394  0.3662  0.5523
  835SOL    HW2 3316   7.575   1.051   4.155 -0.2975 -0.8091 -0.5338
  836SOL     OW 3317   2.490   2.724   7.627  0.0685  0.0957 -0.3735
  836SOL    HW1 3318   2.558   2.788   7.646 -1.3627  1.2960  1.1292
  836SOL    HW2 3319   2.438   2.765   7.557  0.9618 -0.9114 -1.6698
  837SOL     OW 3320   2.604   0.292   5.663  0.5415 -0.0538 -0.5119
  837SOL    HW1 3321   2.555   0.221   5.706  2.1788  0.3197  2.2178
  837SOL    HW2 3322   2.550   0.370   5.678  1.4585  0.2185  1.7746
  838SOL     OW 3323   1.947   3.407   4.599  0.3560  1.3001 -0.0839
  838SOL    HW1 3324   1.909   3.430   4.684 -0.8420  3.4724 -1.1218
  838SOL    HW2 3325   2.003   3.482   4.578 -0.2795  1.3464 -1.7170
  839SOL     OW 3326   5.900   1.771   1.504  0.5229  0.1506  0.0429
  839SOL    HW1 3327   5.955   1.760   1.582  1.1595 -0.9571 -0.5377
  839SOL    HW2 3328   5.867   1.684   1.484 -1.0245  0.7096  0.0464
  840SOL     OW 3329   6.712   2.568   7.091  0.0226  0.2243  0.5810
  840SOL    HW1 3330   6.672   2.557   7.177 -2.1817 -0.7621 -0.4692
  840SOL    HW2 3331   6.697   2.660   7.069  0.6214  0.4863  1.2626
  841SOL     OW 3332   1.926   2.178   3.484  0.3684 -0.3872 -0.6004
  841SOL    HW1 3333   1.996   2.234   3.452  1.0018  0.1973  1.6294
  841SOL    HW2 3334   1.895   2.221   3.564 -1.7668 -1.2395 -0.9111
  842SOL     OW 3335   4.550   4.177   1.875 -0.0990  0.2475  0.1893
  842SOL    HW1 3336   4.581   4.160   1.964  0.7151  1.8054  0.2469
  842SOL    HW2 3337   4.459   4.207   1.886 -0.7248 -1.5802  0.2762
  843SOL     OW 3338   0.320   4.902   5.321  0.4179  0.0233 -0.2219
  843SOL    HW1 3339   0.377   4.972   5.290  1.3202 -0.8007 -0.5154
  843SOL    HW2 3340   0.320   4.911   5.416 -0.6938  1.3165 -0.3273
  844SOL     OW 3341   2.060   4.661   7.625  0.3296 -0.2519 -0.5658
  844SOL    HW1 3342   1.993   4.728   7.610  1.2871  0.4894 -1.6924
  844SOL    HW2 3343   2.026   4.584   7.580  0.6578  0.4068 -1.9962
  845SOL     OW 3344   6.465   4.868   0.734 -0.7121 -0.1196 -0.3527
  845SOL    HW1 3345   6.462   4.883   0.829 -0.8873 -0.5919 -0.2808
  845SOL    HW2 3346   6.514   4.787   0.724 -1.4322 -0.5271 -0.6133
  846SOL     OW 3347   3.036   0.861   5.915  0.0922 -0.1680 -0.0972
  846SOL    HW1 3348   3.070   0.950   5.926  0.5657 -0.4334  0.6448
  846SOL    HW2 3349   3.087   0.808   5.975 -0.9514 -0.7546  0.3055
  847SOL     OW 3350   5.073   0.530   7.052  0.2110 -0.0542 -0.1457
  847SOL    HW1 3351   5.084   0.522   6.957 -3.9816 -1.2082 -0.7463
  847SOL    HW2 3352   5.092   0.622   7.071 -0.6617  0.6643 -2.4692
  848SOL     OW 3353   5.008   5.605   6.974 -0.4685  0.8337 -0.6014
  848SOL    HW1 3354   5.007   5.655   7.056  0.5309 -0.4992  0.2817
  848SOL    HW2 3355   4.918   5.574   6.964 -0.2138 -0.6197  1.1034
  849SOL     OW 3356   7.696   0.178   4.172 -0.3817 -0.1759 -0.8746
  849SOL    HW1 3357   7.666   0.112   4.109  0.3431 -0.0453 -1.3785
  849SOL    HW2 3358   7.784   0.202   4.140  0.1078 -0.3025  0.3358
  850SOL     OW 3359   2.721   2.953   2.457 -0.1848 -0.2352 -0.6297
  850SOL    HW1 3360   2.764   2.912   2.532 -0.0518 -0.3853 -0.7880
  850SOL    HW2 3361   2.760   2.911   2.381  2.0369  2.0987 -0.9316
  851SOL     OW 3362   6.654   0.770   7.429 -0.1650 -0.2764 -0.0749
  851SOL    HW1 3363   6.597   0.804   7.497  0.5011  1.5600 -0.3586
  851SOL    HW2 3364   6.613   0.688   7.401 -0.1016 -1.4268  2.9295
  852SOL     OW 3365   6.363   4.480   4.144 -0.3521 -0.3426 -0.0804
  852SOL    HW1 3366   6.411   4.549   4.190 -0.4473 -0.9048  0.8939
  852SOL    HW2 3367   6.363   4.507   4.053  0.8350  0.2367  0.0798
  853SOL     OW 3368   5.999   3.973   0.447 -0.4873  0.2314 -0.1036
  853SOL    HW1 3369   5.920   4.014   0.482 -1.2067 -0.8938 -0.3635
  853SOL    HW2 3370   6.037   3.926   0.522  0.9994  2.2685  0.5095
  854SOL     OW 3371   7.263   3.413   3.632  0.3505  0.2484 -0.3940
  854SOL    HW1 3372   7.253   3.318   3.635  0.9395  0.1142 -1.9890
  854SOL    HW2 3373   7.286   3.433   3.542  0.6851  1.8722  0.0043
  855SOL     OW 3374   5.020   1.300   3.231  0.4614 -0.6777 -0.2973
  855SOL    HW1 3375   4.990   1.321   3.319  1.0846 -1.4337  0.1045
  855SOL    HW2 3376   5.022   1.384   3.186 -0.8861 -0.4149  0.0769
  856SOL     OW 3377   6.823   5.169   7.405  0.2881 -0.4433  0.1761
  856SOL    HW1 3378   6.780   5.107   7.465 -2.2809  0.4839 -0.5684
  856SOL    HW2 3379   6.818   5.253   7.450  2.0998 -0.4205  0.3911
  857SOL     OW 3380   7.645   3.511   3.627  0.2306  0.2657  0.4993
  857SOL    HW1 3381   7.699   3.566   3.684  1.2063 -0.4862  0.3223
  857SOL    HW2 3382   7.624   3.566   3.552 -2.0883  1.6977  2.0589
  858SOL     OW 3383   7.668   6.792   6.730 -0.2312  0.0558 -0.4495
  858SOL    HW1 3384   7.577   6.799   6.760  0.6102 -1.5320  3.0072
  858SOL    HW2 3385   7.667   6.720   6.667 -1.5318  0.8301 -1.3357
  859SOL     OW 3386   0.262   3.812   4.753 -0.5037  0.0105 -0.1957
  859SOL    HW1 3387   0.223   3.753   4.688 -0.8523 -1.4424  1.2290
  859SOL    HW2 3388   0.261   3.760   4.834  1.4957  1.1114  0.5932
  860SOL     OW 3389   4.504   6.399   4.628 -0.0239  0.1626 -0.6361
  860SOL    HW1 3390   4.464   6.430   4.710  0.1943 -0.5735 -0.2475
  860SOL    HW2 3391   4.443   6.429   4.560 -0.4496  0.3815 -0.1713
  861SOL     OW 3392   3.786   0.714   1.418  0.1076 -0.3419 -0.2927
  861SOL    HW1 3393   3.811   0.652   1.487 -1.3294  0.1341  0.7041
  861SOL    HW2 3394   3.780   0.662   1.339  1.8374 -0.9031 -0.1086
  862SOL     OW 3395   3.571   5.975   4.870  0.4282  0.3836 -0.6961
  862SOL    HW1 3396   3.558   5.887   4.906  1.5093 -1.0928 -3.5492
  862SOL    HW2 3397   3.665   5.990   4.878 -0.0177  2.4968  2.0419
  863SOL     OW 3398   0.540   0.661   5.890 -0.2823 -0.5540 -0.1449
  863SOL    HW1 3399   0.448   0.653   5.915 -0.4504 -0.4434 -0.7099
  863SOL    HW2 3400   0.589   0.640   5.969 -0.8089  2.2800  1.0763
  864SOL     OW 3401   4.315   0.313   1.703 -0.1690  0.0384  0.4591
  864SOL    HW1 3402   4.300   0.377   1.634 -0.6991  1.1435  1.5557
  864SOL    HW2 3403   4.227   0.278   1.722  0.0346 -0.5795  0.2823
  865SOL     OW 3404   4.911   2.499   3.434 -0.8151 -0.2977 -0.2953
  865SOL    HW1 3405   4.887   2.421   3.384 -0.1175 -0.3050 -0.6285
  865SOL    HW2 3406   4.834   2.555   3.431 -1.2292 -0.8605 -0.2787
  866SOL     OW 3407   2.333   5.267   1.197  0.4527  0.3401 -0.8016
  866SOL    HW1 3408   2.389   5.314   1.136  0.3493 -1.2730 -2.2105
  866SOL    HW2 3409   2.296   5.195   1.146 -1.5008  0.2965  0.5642
  867SOL     OW 3410   3.939   2.067   6.688 -0.2863  0.2949 -0.0729
  867SOL    HW1 3411   3.970   2.086   6.777  1.3441  0.8818 -0.7259
  867SOL    HW2 3412   3.928   2.153   6.648  2.7751  0.1018 -1.6267
  868SOL     OW 3413   7.262   6.311   7.768 -0.0760 -0.5341  0.1184
  868SOL    HW1 3414   7.285   6.379   7.705  0.0610  1.2997  2.0225
  868SOL    HW2 3415   7.183   6.345   7.811  1.0508 -0.6162  2.3954
  869SOL     OW 3416   7.571   3.968   6.264 -0.0514  0.3109 -0.1416
  869SOL    HW1 3417   7.626   3.993   6.190 -0.8930 -1.1506 -1.3321
  869SOL    HW2 3418   7.546   3.877   6.245 -1.6648  0.4553  1.0828
  870SOL     OW 3419   2.287   2.450   0.515 -0.2687 -0.4587 -0.2461
  870SOL    HW1 3420   2.263   2.513   0.583  0.5624 -0.8842  0.4565
  870SOL    HW2 3421   2.324   2.504   0.445  1.9023 -0.2217  0.9820
  871SOL     OW 3422   2.494   6.908   6.164 -0.3458 -0.1188  0.3878
  871SOL    HW1 3423   2.586   6.908   6.136 -0.6442 -0.7187 -0.6573
  871SOL    HW2 3424   2.448   6.864   6.093 -1.3988 -0.1584  1.0783
  872SOL     OW 3425   1.742   3.202   3.654 -0.4303 -0.6726  0.1733
  872SOL    HW1 3426   1.774   3.191   3.564 -0.0383  0.9645  0.0689
  872SOL    HW2 3427   1.767   3.292   3.676 -0.9376 -0.9046  1.7603
  873SOL     OW 3428   7.950   0.356   7.181  0.5149 -0.1421 -0.6789
  873SOL    HW1 3429   7.876   0.303   7.211 -0.0771  1.1262  0.2117
  873SOL    HW2 3430   8.008   0.360   7.257  0.2060  1.0405 -0.4815
  874SOL     OW 3431   1.176   4.848   4.294 -0.1334  0.3005 -0.0726
  874SOL    HW1 3432   1.088   4.809   4.296  0.8925 -2.2440 -0.6353
  874SOL    HW2 3433   1.168   4.920   4.231 -1.8045  0.1619 -0.0855
  875SOL     OW 3434   2.142   4.772   5.441 -0.2656  0.0063 -0.2699
  875SOL    HW1 3435   2.197   4.833   5.492  0.1376 -0.8070  0.2964
  875SOL    HW2 3436   2.084   4.733   5.506  1.6088 -2.5646  0.0173
  876SOL     OW 3437   2.436   6.770   3.662 -0.3533 -0.1972 -0.1501
  876SOL    HW1 3438   2.491   6.838   3.702  0.3905 -1.3303  0.8297
  876SOL    HW2 3439   2.464   6.767   3.571  0.9193 -0.4289  0.2264
  877SOL     OW 3440   5.704   2.671   4.995 -0.0212  0.8628 -0.0033
  877SOL    HW1 3441   5.671   2.600   4.939  1.4201 -1.3929  1.7997
  877SOL    HW2 3442   5.636   2.683   5.061 -0.4115  1.4197 -0.4982
  878SOL     OW 3443   2.034   6.196   4.617 -0.2578 -0.2491 -0.2679
  878SOL    HW1 3444   1.995   6.108   4.614 -1.8619  0.4490 -0.8327
  878SOL    HW2 3445   2.097   6.197   4.544 -1.6921 -0.2917 -1.5488
  879SOL     OW 3446   0.661   1.610   2.194  0.5796 -0.8634  0.3546
  879SOL    HW1 3447   0.683   1.671   2.123  1.3373 -0.0547  1.2596
  879SOL    HW2 3448   0.739   1.609   2.250  0.8292 -3.1583  0.0577
  880SOL     OW 3449   3.971   0.319   6.392 -0.1414 -0.2781  0.0043
  880SOL    HW1 3450   3.951   0.374   6.468  0.5415  0.3293 -0.2429
  880SOL    HW2 3451   3.894   0.326   6.336  0.3785  1.4217 -0.5876
  881SOL     OW 3452   3.804   4.467   2.547  0.1205  0.1942 -0.3617
  881SOL    HW1 3453   3.850   4.410   2.485 -0.5526  0.8615 -1.5334
  881SOL    HW2 3454   3.873   4.510   2.597  0.7053 -0.0444 -0.9453
  882SOL     OW 3455   7.639   3.544   5.984 -0.1718  0.0694 -0.3202
  882SOL    HW1 3456   7.610   3.465   5.939 -0.5192  0.5467 -0.9382
  882SOL    HW2 3457   7.721   3.567   5.941  0.6060 -0.6626  0.7076
  883SOL     OW 3458   5.538   4.414   2.435 -0.8593 -0.2755  0.5442
  883SOL    HW1 3459   5.448   4.423   2.467 -0.7715 -1.3411  1.1309
  883SOL    HW2 3460   5.592   4.449   2.506 -0.8353  1.7479 -0.3991
  884SOL     OW 3461   1.040   4.342   4.420  0.7801 -0.2290 -0.4241
  884SOL    HW1 3462   1.054   4.389   4.338 -0.3392  0.8287 -0.0344
  884SOL    HW2 3463   1.002   4.259   4.394 -0.8729  0.6504 -0.9247
  885SOL     OW 3464   5.073   3.378   5.265 -0.2346 -0.2757  0.1703
  885SOL    HW1 3465   5.140   3.445   5.249 -0.1799 -0.6079 -1.0692
  885SOL    HW2 3466   5.082   3.317   5.192 -2.7457  0.3795 -0.7960
  886SOL     OW 3467   1.309   0.914   1.309  1.0711  0.5115 -0.5158
  886SOL    HW1 3468   1.402   0.909   1.287  0.9379  1.5866 -1.4597
  886SOL    HW2 3469   1.280   0.823   1.313  2.2518  0.1369  0.2688
  887SOL     OW 3470   4.648   6.442   3.439 -0.2147  0.4711  0.1912
  887SOL    HW1 3471   4.641   6.372   3.503 -1.6944 -0.2039 -0.6594
  887SOL    HW2 3472   4.595   6.513   3.476  0.7538  0.9146  0.7472
  888SOL     OW 3473   7.481   0.900   3.461  0.2915 -0.1430  0.1268
  888SOL    HW1 3474   7.493   0.809   3.433  1.7911 -0.6894  2.3272
  888SOL    HW2 3475   7.559   0.945   3.429 -0.6309  0.5149 -1.2972
  889SOL     OW 3476   6.983   1.441   4.653  0.1747 -0.5398  0.0790
  889SOL    HW1 3477   6.951   1.376   4.590  1.4890 -2.2334  1.0667
  889SOL    HW2 3478   6.924   1.516   4.642 -1.1635 -1.7263 -1.3924
  890SOL     OW 3479   7.939   2.432   3.668  0.5197 -0.3674  0.5964
  890SOL    HW1 3480   8.023   2.412   3.625  0.9601  0.7004  0.9119
  890SOL    HW2 3481   7.947   2.395   3.756  0.8151  0.0435  0.7471
  891SOL     OW 3482   6.411   0.826   6.575  0.0776  0.1167  0.2641
  891SOL    HW1 3483   6.421   0.744   6.624 -1.2363 -1.2496 -1.6291
  891SOL    HW2 3484   6.323   0.822   6.538  0.5891  1.6139 -1.2766
  892SOL     OW 3485   3.939   6.186   1.007  0.7932 -0.2423  0.6550
  892SOL    HW1 3486   3.875   6.117   1.024 -1.4256  1.9850  1.9352
  892SOL    HW2 3487   3.922   6.213   0.917 -0.4586  0.6364  1.1264
  893SOL     OW 3488   7.889   6.508   4.061 -1.1771 -0.5879 -0.7789
  893SOL    HW1 3489   7.978   6.482   4.082 -0.5403  0.2887 -2.2589
  893SOL    HW2 3490   7.841   6.425   4.055 -0.2462 -1.1348 -0.8898
  894SOL     OW 3491   3.791   2.038   4.234 -0.0278 -0.2777 -0.3392
  894SOL    HW1 3492   3.874   2.075   4.265 -0.8435  0.9675  0.4959
  894SOL    HW2 3493   3.803   1.944   4.240  1.5916 -0.1464 -0.9845
  895SOL     OW 3494   5.739   0.921   7.121 -0.0889 -0.5889  1.0061
  895SOL    HW1 3495   5.733   0.882   7.208 -0.5676 -0.5369  0.9989
  895SOL    HW2 3496   5.820   0.971   7.123 -0.2353 -0.3624  1.5207
  896SOL     OW 3497   5.070   7.171   1.191 -0.0425 -0.5017  0.0205
  896SOL    HW1 3498   5.042   7.246   1.244 -0.0358 -1.2741  1.1287
  896SOL    HW2 3499   5.080   7.099   1.253  0.6626 -1.2475 -0.9214
  897SOL     OW 3500   3.456   5.329   1.596  0.0574  0.1568 -0.1461
  897SOL    HW1 3501   3.448   5.337   1.501  0.2522 -0.4573 -0.2161
  897SOL    HW2 3502   3.381   5.378   1.631 -1.0706 -1.1691 -0.6501
  898SOL     OW 3503   3.810   5.308   4.265  0.5052  0.2056  0.4575
  898SOL    HW1 3504   3.854   5.245   4.207 -1.4196 -0.3831 -0.4619
  898SOL    HW2 3505   3.871   5.381   4.271  0.9052  0.2049 -2.1888
  899SOL     OW 3506   0.966   5.967   4.697 -0.4603 -0.4089  0.5487
  899SOL    HW1 3507   0.926   5.954   4.782 -0.8004  0.2342  0.4882
  899SOL    HW2 3508   0.893   5.964   4.635 -0.5854  1.7976  0.5309
  900SOL     OW 3509   5.434   0.066   5.424 -0.4390 -0.4050 -0.0081
  900SOL    HW1 3510   5.506   0.082   5.485  1.7354  1.5363 -2.8335
  900SOL    HW2 3511   5.397   0.154   5.408 -1.6804 -1.0195 -0.6711
  901SOL     OW 3512   2.378   0.283   0.273  0.4076 -0.0605  0.4179
  901SOL    HW1 3513   2.462   0.282   0.319 -0.3643 -0.6070  1.8941
  901SOL    HW2 3514   2.380   0.362   0.219  2.3943 -0.7595 -0.6494
  902SOL     OW 3515   5.303   0.192   3.161 -0.6823  0.3106 -0.0109
  902SOL    HW1 3516   5.367   0.238   3.215  0.6416 -0.3362 -0.9821
  902SOL    HW2 3517   5.343   0.106   3.144 -0.0650  1.1932 -3.6784
  903SOL     OW 3518   7.879   1.901   7.881 -0.5395 -0.0571  0.1170
  903SOL    HW1 3519   7.926   1.830   7.925  1.3950  0.0266 -1.6562
  903SOL    HW2 3520   7.789   1.893   7.912  0.3713 -0.9182  2.8279
  904SOL     OW 3521   6.698   0.642   3.668 -0.4463  0.1160  0.8220
  904SOL    HW1 3522   6.767   0.704   3.641 -0.6220 -0.4948 -1.2225
  904SOL    HW2 3523   6.746   0.561   3.689 -0.4932 -0.2863 -0.5295
  905SOL     OW 3524   6.395   2.279   5.243  0.5046 -0.1925 -0.7342
  905SOL    HW1 3525   6.489   2.298   5.243  0.5826 -0.2665  1.8783
  905SOL    HW2 3526   6.354   2.365   5.251  0.4507 -0.2924  0.1589
  906SOL     OW 3527   5.974   5.398   7.480  0.0993  0.3718 -0.1407
  906SOL    HW1 3528   6.000   5.481   7.520 -2.9143  0.9074  0.9581
  906SOL    HW2 3529   5.959   5.339   7.554 -0.2231 -0.3804 -0.7874
  907SOL     OW 3530   1.296   2.189   2.808 -0.4739 -0.1099 -0.4732
  907SOL    HW1 3531   1.220   2.246   2.820  0.4874  1.0048  0.5860
  907SOL    HW2 3532   1.300   2.175   2.713 -0.3878  2.1558 -0.8758
  908SOL     OW 3533   5.125   0.262   3.576 -0.5543  0.0445  0.0469
  908SOL    HW1 3534   5.123   0.266   3.480  2.5675 -0.0766 -0.1195
  908SOL    HW2 3535   5.141   0.170   3.596 -0.2496  0.2218  0.6460
  909SOL     OW 3536   5.183   7.725   7.949  0.6377 -0.2220  0.0963
  909SOL    HW1 3537   5.099   7.762   7.922 -1.0094 -3.4146  0.4009
  909SOL    HW2 3538   5.246   7.759   7.886 -0.8755  2.1383 -0.2404
  910SOL     OW 3539   7.678   2.811   0.389  0.0730  0.4383  0.2073
  910SOL    HW1 3540   7.594   2.767   0.377 -0.1402  0.3377  1.8604
  910SOL    HW2 3541   7.665   2.866   0.466  1.5778  0.2434  0.6248
  911SOL     OW 3542   7.776   7.988   0.655  0.5426  0.1401 -0.3042
  911SOL    HW1 3543   7.688   7.953   0.644  0.0177  1.5032 -0.6110
  911SOL    HW2 3544   7.774   8.030   0.741  0.7275  0.6492 -0.5481
  912SOL     OW 3545   5.871   7.874   3.246 -0.2798 -0.4965 -0.6444
  912SOL    HW1 3546   5.814   7.872   3.323  0.9704  0.1110  0.3302
  912SOL    HW2 3547   5.924   7.795   3.253 -0.2267 -0.4890 -0.9333
  913SOL     OW 3548   1.906   6.883   7.265  0.2129 -0.2068  0.3135
  913SOL    HW1 3549   1.909   6.958   7.323 -0.8396  1.2536 -1.4240
  913SOL    HW2 3550   1.850   6.910   7.192 -0.0404 -2.6025 -0.4867
  914SOL     OW 3551   4.481   7.223   6.099 -0.1209 -0.2371  0.6297
  914SOL    HW1 3552   4.398   7.248   6.058  0.2631  0.5941  0.3378
  914SOL    HW2 3553   4.548   7.247   6.034  0.3097 -1.6597  0.5048
  915SOL     OW 3554   0.272   1.665   4.820 -0.1778  0.1131 -0.3845
  915SOL    HW1 3555   0.363   1.688   4.803 -0.2482  0.1006 -0.7889
  915SOL    HW2 3556   0.259   1.581   4.776 -0.1260 -0.3513  0.4719
  916SOL     OW 3557   4.734   1.419   0.184 -0.0439  0.0129 -0.2778
  916SOL    HW1 3558   4.646   1.387   0.201  0.1255 -2.5143 -3.2238
  916SOL    HW2 3559   4.785   1.389   0.259 -1.5603  1.2450  1.3133
  917SOL     OW 3560   5.311   4.403   5.606 -0.1948  0.2437 -0.0077
  917SOL    HW1 3561   5.248   4.388   5.676  1.0060  0.8438  1.2492
  917SOL    HW2 3562   5.301   4.496   5.586  0.2979  0.3409  0.2035
  918SOL     OW 3563   1.870   2.145   4.213 -0.1916 -0.4757 -0.0352
  918SOL    HW1 3564   1.947   2.088   4.218 -0.6413 -1.2862 -1.5798
  918SOL    HW2 3565   1.802   2.096   4.258 -0.6342 -1.3078 -1.5496
  919SOL     OW 3566   7.003   1.777   2.748 -0.0875 -0.3947  0.2400
  919SOL    HW1 3567   7.095   1.793   2.768  0.3653 -1.3302 -0.9463
  919SOL    HW2 3568   6.982   1.840   2.679 -0.0875 -0.7514 -0.0871
  920SOL     OW 3569   1.896   3.887   0.752  0.1787  0.0127 -0.0494
  920SOL    HW1 3570   1.928   3.921   0.836  1.0142 -1.5799  0.3084
  920SOL    HW2 3571   1.969   3.834   0.718 -0.6113 -0.3791 -1.1803
  921SOL     OW 3572   4.696   7.794   0.672  0.2201  0.6785  0.8114
  921SOL    HW1 3573   4.652   7.819   0.590  0.6595  0.4164  0.4968
  921SOL    HW2 3574   4.675   7.866   0.732  2.6996  2.6594 -0.5116
  922SOL     OW 3575   7.090   7.977   6.257  0.2644  0.0461  0.2975
  922SOL    HW1 3576   7.134   8.060   6.235  0.3247  0.3905  1.6057
  922SOL    HW2 3577   7.157   7.910   6.242  0.5544  0.3445  0.2301
  923SOL     OW 3578   0.410   5.959   7.984  0.2461  0.6231  0.7369
  923SOL    HW1 3579   0.347   5.913   7.928 -0.2980  0.6164  1.3400
  923SOL    HW2 3580   0.370   6.045   7.999  0.8470  0.9791  0.3298
  924SOL     OW 3581   3.527   0.157   0.050 -0.7473  0.1249  0.5599
  924SOL    HW1 3582   3.433   0.149   0.037 -0.2978 -1.5552 -2.5093
  924SOL    HW2 3583   3.558   0.067   0.059  0.5868  0.6608  1.8473
  925SOL     OW 3584   7.269   7.449   3.306  0.1834 -0.6436  0.0779
  925SOL    HW1 3585   7.255   7.451   3.212  0.7686 -1.1154 -0.0287
  925SOL    HW2 3586   7.185   7.476   3.344  0.7733  2.5436 -0.6059
  926SOL     OW 3587   6.142   5.440   2.306  0.6084 -0.0724 -0.5539
  926SOL    HW1 3588   6.173   5.352   2.284  1.6308  0.3474 -0.8481
  926SOL    HW2 3589   6.053   5.443   2.272  1.3229 -0.2397 -2.5937
  927SOL     OW 3590   4.697   6.690   1.739 -0.2136 -0.3077 -0.4090
  927SOL    HW1 3591   4.696   6.696   1.643 -1.5408  0.5284 -0.3708
  927SOL    HW2 3592   4.788   6.670   1.761 -0.0595 -1.4712 -1.8884
  928SOL     OW 3593   0.543   3.511   6.725  0.0588 -0.1256 -0.4067
  928SOL    HW1 3594   0.531   3.592   6.675  0.3704  0.1905  0.0207
  928SOL    HW2 3595   0.463   3.503   6.777  1.3015  1.6670  1.9953
  929SOL     OW 3596   7.769   7.132   7.729  0.3539  0.1069 -0.2180
  929SOL    HW1 3597   7.683   7.158   7.694  0.8825  2.0156 -0.2012
  929SOL    HW2 3598   7.818   7.102   7.652  0.6006  1.7195 -0.7279
  930SOL     OW 3599   2.991   6.152   6.022 -0.2564  0.4580  0.6444
  930SOL    HW1 3600   2.925   6.084   6.007  0.8103 -0.5705  0.5198
  930SOL    HW2 3601   3.073   6.113   5.991  0.6904  1.1437  2.2102
  931SOL     OW 3602   5.945   1.699   2.956 -0.5640 -0.1111  0.1158
  931SOL    HW1 3603   5.941   1.773   3.017 -0.3019  0.9202 -1.0733
  931SOL    HW2 3604   5.880   1.719   2.890 -0.6009 -1.0447 -0.1382
  932SOL     OW 3605   7.718   1.674   2.783 -0.4421  0.0093  0.0779
  932SOL    HW1 3606   7.733   1.709   2.871  0.3356 -0.9736  0.3441
  932SOL    HW2 3607   7.751   1.742   2.725  0.0823  0.1782  0.5693
  933SOL     OW 3608   0.851   3.824   0.655 -0.3039 -0.0110 -0.2134
  933SOL    HW1 3609   0.927   3.775   0.686 -1.9200 -2.8151 -0.3595
  933SOL    HW2 3610   0.847   3.805   0.561 -1.3446 -0.1855 -0.1482
  934SOL     OW 3611   7.797   3.703   2.484  0.4109 -0.1494 -0.2714
  934SOL    HW1 3612   7.761   3.633   2.538 -0.5711 -0.0858 -0.8174
  934SOL    HW2 3613   7.733   3.774   2.488  1.0985  0.4941 -0.2170
  935SOL     OW 3614   0.984   2.101   1.646 -0.3781 -0.0683  0.5292
  935SOL    HW1 3615   1.046   2.068   1.711 -0.1952  0.5070  0.6544
  935SOL    HW2 3616   1.024   2.078   1.562  0.2668  0.7536  0.6038
  936SOL     OW 3617   2.999   3.087   0.311  0.2032 -0.4093  0.0570
  936SOL    HW1 3618   3.076   3.079   0.367  0.5503 -2.3315 -0.6001
  936SOL    HW2 3619   2.944   3.013   0.337 -1.7423  1.2430  0.9078
  937SOL     OW 3620   2.320   5.183   5.375  0.1042  0.6067  0.2353
  937SOL    HW1 3621   2.341   5.151   5.462 -0.6691 -0.9647 -0.1140
  937SOL    HW2 3622   2.402   5.220   5.342  1.6978 -2.8706 -0.0786
  938SOL     OW 3623   3.509   5.301   6.451  0.3883 -0.5844 -0.0765
  938SOL    HW1 3624   3.484   5.393   6.460  1.2835 -0.3039 -0.3428
  938SOL    HW2 3625   3.554   5.297   6.367  1.6102 -0.9739  0.5733
  939SOL     OW 3626   3.248   1.734   3.229  0.0286  0.0904  0.5101
  939SOL    HW1 3627   3.290   1.745   3.314 -0.2691  0.6788  0.5872
  939SOL    HW2 3628   3.260   1.818   3.186 -0.2118 -0.0618  0.1446
  940SOL     OW 3629   5.797   7.050   0.341 -0.6912  0.5308 -0.5039
  940SOL    HW1 3630   5.832   7.137   0.363 -1.9485  0.7651  0.6607
  940SOL    HW2 3631   5.875   6.997   0.327  0.1303  1.4515  0.3840
  941SOL     OW 3632   3.767   1.423   3.556 -0.0722 -0.2732 -0.3558
  941SOL    HW1 3633   3.690   1.452   3.604  0.7999  0.3433  0.7346
  941SOL    HW2 3634   3.755   1.457   3.468 -0.4333  0.9817  0.1485
  942SOL     OW 3635   2.894   5.261   5.102 -0.0107  0.4016  0.4911
  942SOL    HW1 3636   2.932   5.338   5.061  1.4561 -0.6658 -0.2489
  942SOL    HW2 3637   2.920   5.266   5.194  0.4691  0.5599  0.3485
  943SOL     OW 3638   5.524   6.088   7.432  0.4058  0.1779  0.1269
  943SOL    HW1 3639   5.501   6.178   7.411 -1.4141  0.1112  1.6320
  943SOL    HW2 3640   5.451   6.036   7.398  0.9532 -0.6464  0.1653
  944SOL     OW 3641   5.320   5.054   6.266 -0.0007 -0.0161 -0.2883
  944SOL    HW1 3642   5.231   5.080   6.286  0.1566  0.6970 -0.5074
  944SOL    HW2 3643   5.317   5.018   6.178 -0.0412  0.1458 -0.3517
  945SOL     OW 3644   2.427   5.222   3.002  0.5748  0.1318 -0.3078
  945SOL    HW1 3645   2.364   5.156   3.032  0.4031  0.6046  0.3933
  945SOL    HW2 3646   2.408   5.300   3.055  1.0936  0.5964 -0.7846
  946SOL     OW 3647   1.927   5.860   1.209 -0.3776 -0.3474  0.2519
  946SOL    HW1 3648   1.855   5.810   1.172  0.3364 -0.6223 -0.8222
  946SOL    HW2 3649   1.936   5.828   1.298 -1.5524 -0.3223  0.3957
  947SOL     OW 3650   2.292   2.735   0.952 -0.1579 -0.1134 -0.3693
  947SOL    HW1 3651   2.324   2.822   0.928 -0.9230  0.4027  0.4236
  947SOL    HW2 3652   2.277   2.740   1.046  0.0688 -1.2068 -0.2598
  948SOL     OW 3653   5.447   3.139   4.975 -0.3805  0.1705  0.0367
  948SOL    HW1 3654   5.420   3.229   4.993  0.4562  0.4538 -0.0622
  948SOL    HW2 3655   5.513   3.147   4.905 -2.1606 -0.7258 -1.8686
  949SOL     OW 3656   3.454   3.294   4.122 -0.2690 -0.1462  0.0718
  949SOL    HW1 3657   3.375   3.268   4.073  0.1056  1.6398 -1.5815
  949SOL    HW2 3658   3.493   3.211   4.149 -2.4194 -1.0915  0.4848
  950SOL     OW 3659   4.071   1.896   1.731  0.0801  0.2236 -0.1074
  950SOL    HW1 3660   3.984   1.890   1.771  0.1186 -1.6456 -0.2232
  950SOL    HW2 3661   4.068   1.976   1.678 -1.7536 -0.0858 -0.5368
  951SOL     OW 3662   6.441   0.927   6.095 -0.0778  0.7975 -0.5596
  951SOL    HW1 3663   6.490   0.976   6.161 -0.1549  0.6734 -0.4095
  951SOL    HW2 3664   6.466   0.967   6.011 -1.4899  2.3030 -0.3195
  952SOL     OW 3665   7.392   1.579   0.009  0.2688 -0.2142  0.1412
  952SOL    HW1 3666   7.357   1.491   0.018 -0.1040 -0.1239 -0.4272
  952SOL    HW2 3667   7.467   1.570  -0.049  0.1428 -0.1320 -0.0334
  953SOL     OW 3668   3.129   7.000   6.774  0.2218 -0.5226 -0.1963
  953SOL    HW1 3669   3.144   6.907   6.759  2.3849 -0.5740  1.8329
  953SOL    HW2 3670   3.097   7.005   6.864  0.2235  0.7237 -0.2495
  954SOL     OW 3671   7.566   0.179   4.590  0.0709 -0.3789 -0.2270
  954SOL    HW1 3672   7.561   0.098   4.640  1.1761  0.5228  1.4583
  954SOL    HW2 3673   7.541   0.247   4.653  2.0639  0.8704 -0.7138
  955SOL     OW 3674   1.655   7.940   5.087  0.2438  0.1777  0.0788
  955SOL    HW1 3675   1.629   8.031   5.069 -1.2278  0.0135  1.2165
  955SOL    HW2 3676   1.589   7.887   5.043  0.1105 -0.3035  0.8513
  956SOL     OW 3677   5.196   3.444   6.076 -0.0434 -0.5366 -0.1973
  956SOL    HW1 3678   5.208   3.487   6.161  0.7034  1.1903 -1.1324
  956SOL    HW2 3679   5.138   3.503   6.028 -1.0612 -1.8713 -0.6556
  957SOL     OW 3680   3.185   6.806   2.351  0.0213  0.3412  0.2957
  957SOL    HW1 3681   3.275   6.798   2.383  0.4372 -0.7715 -1.0633
  957SOL    HW2 3682   3.130   6.788   2.428  0.9686 -0.1976  0.8619
  958SOL     OW 3683   7.504   0.242   3.203 -0.4318 -0.3451 -0.3074
  958SOL    HW1 3684   7.455   0.255   3.284 -1.3820 -0.2441 -0.8873
  958SOL    HW2 3685   7.593   0.222   3.232  0.3572  3.8352  0.7762
  959SOL     OW 3686   7.694   6.205   7.682 -0.0036 -0.1527  0.1548
  959SOL    HW1 3687   7.615   6.153   7.672 -0.3205  0.6446 -2.1003
  959SOL    HW2 3688   7.677   6.261   7.758 -1.8409  0.3407 -0.5678
  960SOL     OW 3689   0.970   6.974   7.779  0.4509  0.6951  0.7225
  960SOL    HW1 3690   0.965   7.070   7.782 -2.2510  0.6195  1.0278
  960SOL    HW2 3691   0.997   6.949   7.868 -0.6690  1.1233  1.1922
  961SOL     OW 3692   3.967   6.676   0.799 -0.2429  0.1657 -0.4652
  961SOL    HW1 3693   4.056   6.676   0.834 -0.6605  0.6486  0.6168
  961SOL    HW2 3694   3.960   6.757   0.748 -0.5742  0.9603  0.8116
  962SOL     OW 3695   3.442   3.056   7.371 -0.0787 -0.2917 -0.5081
  962SOL    HW1 3696   3.404   3.107   7.443  1.3506 -0.5834  0.4925
  962SOL    HW2 3697   3.384   3.073   7.297 -0.3351  1.8524  0.0977
  963SOL     OW 3698   7.502   7.620   1.624  0.2504 -0.2402  0.4027
  963SOL    HW1 3699   7.437   7.606   1.692 -0.0658  0.9807  0.3781
  963SOL    HW2 3700   7.532   7.710   1.637  1.4631 -0.5626  0.0092
  964SOL     OW 3701   0.390   4.482   2.859 -0.1918 -0.4547 -0.5020
  964SOL    HW1 3702   0.392   4.386   2.852  1.7386 -0.3898 -1.3199
  964SOL    HW2 3703   0.425   4.513   2.775 -3.5124  1.0884 -1.4951
  965SOL     OW 3704   1.040   0.490   5.703 -0.2875 -0.3936  0.3031
  965SOL    HW1 3705   0.975   0.423   5.726  1.1074 -2.2077 -0.7519
  965SOL    HW2 3706   1.052   0.540   5.784 -1.7241 -1.1095  1.0032
  966SOL     OW 3707   3.143   0.727   1.654 -0.2964  0.2503 -0.4770
  966SOL    HW1 3708   3.211   0.666   1.625  1.1964  1.3686  0.5356
  966SOL    HW2 3709   3.108   0.688   1.734 -0.1419  0.1645 -0.4512
  967SOL     OW 3710   2.935   6.052   1.110 -0.0195  0.2076 -0.2023
  967SOL    HW1 3711   2.989   6.036   1.033  1.0783 -0.9028  0.7501
  967SOL    HW2 3712   2.860   5.993   1.101  0.0867  0.1116 -0.4327
  968SOL     OW 3713   0.744   5.829   5.206  0.7997  0.1250 -0.0200
  968SOL    HW1 3714   0.738   5.801   5.115  1.8579  0.2918 -0.1457
  968SOL    HW2 3715   0.803   5.766   5.247  0.9688  0.5226  0.3585
  969SOL     OW 3716   2.034   7.335   3.786  0.0452  0.2545  0.0720
  969SOL    HW1 3717   1.957   7.346   3.841 -1.4553 -0.3261 -1.7797
  969SOL    HW2 3718   2.000   7.343   3.696  1.9302 -1.1279 -0.8319
  970SOL     OW 3719   3.833   6.905   3.902  0.2063  0.4565 -0.2587
  970SOL    HW1 3720   3.911   6.915   3.956  0.7721 -1.5538 -0.6190
  970SOL    HW2 3721   3.782   6.837   3.947 -0.4228  0.4006 -1.0399
  971SOL     OW 3722   4.694   2.913   1.782  0.4768 -0.0163 -0.2649
  971SOL    HW1 3723   4.775   2.962   1.795 -0.1600  1.2908 -1.0401
  971SOL    HW2 3724   4.723   2.826   1.753  1.5878  0.6062 -1.1085
  972SOL     OW 3725   7.070   2.565   5.069  0.4005 -0.0357 -0.2963
  972SOL    HW1 3726   7.005   2.514   5.023  0.1863 -0.8198  0.8293
  972SOL    HW2 3727   7.098   2.631   5.006 -2.9353  1.6680 -0.2177
  973SOL     OW 3728   5.133   6.323   2.417  0.3505 -0.3757  0.0351
  973SOL    HW1 3729   5.113   6.282   2.333  1.8110  0.7748 -0.9242
  973SOL    HW2 3730   5.226   6.305   2.432  1.0158  2.2753 -0.3277
  974SOL     OW 3731   5.507   3.778   6.667  0.0778  0.8066 -0.0809
  974SOL    HW1 3732   5.576   3.800   6.605  1.1786 -2.0459 -0.0265
  974SOL    HW2 3733   5.461   3.705   6.626  1.0150 -1.3624  2.4417
  975SOL     OW 3734   0.983   1.661   4.334  0.3665 -0.0531  0.4132
  975SOL    HW1 3735   0.902   1.666   4.283 -0.2441  0.5591  1.4299
  975SOL    HW2 3736   1.051   1.689   4.272  0.0276 -1.7488 -0.8377
  976SOL     OW 3737   7.901   0.338   1.868 -0.2289  0.0466 -0.3518
  976SOL    HW1 3738   7.872   0.357   1.957  0.8612  1.5104 -0.2714
  976SOL    HW2 3739   7.961   0.265   1.878  0.8945  1.0205  0.3330
  977SOL     OW 3740   5.515   5.861   0.883 -0.9738 -0.2470 -0.2253
  977SOL    HW1 3741   5.543   5.798   0.950  0.7828  0.7589  0.0456
  977SOL    HW2 3742   5.444   5.817   0.837 -2.1096 -1.0613  2.1620
  978SOL     OW 3743   6.898   6.098   0.187 -0.2500  0.2176 -0.1199
  978SOL    HW1 3744   6.921   6.152   0.112  0.6237  2.6510  1.7376
  978SOL    HW2 3745   6.982   6.068   0.222 -0.6404 -0.9160 -0.1186
  979SOL     OW 3746   2.010   3.115   7.410  0.2514 -0.0130 -0.3587
  979SOL    HW1 3747   1.967   3.050   7.466 -1.1517  1.0826 -0.1045
  979SOL    HW2 3748   2.098   3.123   7.445 -0.0098 -0.7396  0.5009
  980SOL     OW 3749   5.062   2.314   7.085  0.2632  0.0502 -0.3879
  980SOL    HW1 3750   5.145   2.304   7.038  0.1495 -0.4190 -0.4921
  980SOL    HW2 3751   5.042   2.408   7.079  0.7207  0.1434 -0.4708
  981SOL     OW 3752   6.161   5.331   0.776 -0.3274 -0.7919  0.1035
  981SOL    HW1 3753   6.066   5.330   0.772 -0.3042 -1.4823 -0.7033
  981SOL    HW2 3754   6.189   5.353   0.687  0.2713 -0.1015  0.4488
  982SOL     OW 3755   6.948   5.613   7.079 -0.1177 -0.7910  0.6082
  982SOL    HW1 3756   6.990   5.695   7.105 -0.6743 -1.1691  3.0177
  982SOL    HW2 3757   7.006   5.576   7.013  1.2418  0.5730  0.9752
  983SOL     OW 3758   4.077   1.344   4.842 -0.8674  0.1166  0.0819
  983SOL    HW1 3759   4.066   1.280   4.772 -2.2169  1.6054 -1.1495
  983SOL    HW2 3760   4.040   1.425   4.806 -1.6975  0.9225  2.5535
  984SOL     OW 3761   3.575   1.601   2.888 -0.0040 -0.3355 -0.7623
  984SOL    HW1 3762   3.534   1.607   2.802 -1.3158 -0.1560 -0.1439
  984SOL    HW2 3763   3.660   1.561   2.870 -0.1404 -0.0582 -2.1710
  985SOL     OW 3764   3.547   3.049   7.646 -0.3036 -0.1740 -0.1069
  985SOL    HW1 3765   3.641   3.063   7.631 -0.1433  0.1397  1.1051
  985SOL    HW2 3766   3.516   3.009   7.564  1.0915 -1.2449 -0.1633
  986SOL     OW 3767   7.179   0.976   2.064 -0.0717  0.5659 -0.1701
  986SOL    HW1 3768   7.119   0.965   1.990  1.7150 -2.0855 -1.4159
  986SOL    HW2 3769   7.164   0.898   2.118 -0.4825  1.8636  1.6455
  987SOL     OW 3770   2.798   2.737   6.784  0.0938  0.3697 -0.2002
  987SOL    HW1 3771   2.749   2.763   6.862  0.9735 -0.8571  0.8034
  987SOL    HW2 3772   2.731   2.714   6.720 -0.6458  0.1434  0.6399
  988SOL     OW 3773   1.554   2.242   1.852 -0.2077  0.4494  0.5563
  988SOL    HW1 3774   1.636   2.193   1.846 -0.3154  0.2879  0.3459
  988SOL    HW2 3775   1.576   2.331   1.824 -0.3893  0.0607 -0.8986
  989SOL     OW 3776   0.201   6.411   1.974 -0.1961  0.4672 -0.4489
  989SOL    HW1 3777   0.222   6.477   2.040  0.1183  0.2461 -0.3232
  989SOL    HW2 3778   0.109   6.426   1.953 -0.4596  0.1627  0.4630
  990SOL     OW 3779   0.589   3.229   2.173 -0.5149 -0.3347  0.1745
  990SOL    HW1 3780   0.596   3.185   2.089 -2.5916 -1.3757  0.4813
  990SOL    HW2 3781   0.678   3.259   2.192 -0.5380  3.5063 -4.1646
  991SOL     OW 3782   2.370   7.948   1.878  0.2777  0.1644 -0.8235
  991SOL    HW1 3783   2.367   7.991   1.793  0.4071 -0.1955 -1.0098
  991SOL    HW2 3784   2.418   8.010   1.934 -0.5689  0.7957 -0.7767
  992SOL     OW 3785   7.272   7.871   3.478  0.6847 -0.1982  0.6806
  992SOL    HW1 3786   7.227   7.824   3.407  1.7106 -1.0000  0.5247
  992SOL    HW2 3787   7.203   7.892   3.540 -0.3602  1.0787 -0.8120
  993SOL     OW 3788   5.511   7.181   0.118  0.4524  0.4242 -0.5002
  993SOL    HW1 3789   5.606   7.191   0.110  0.5092  0.9395  0.5932
  993SOL    HW2 3790   5.479   7.269   0.138 -0.1629  0.1270 -0.1392
  994SOL     OW 3791   2.693   7.511   1.517  0.6788  0.5460 -0.7392
  994SOL    HW1 3792   2.714   7.603   1.504  0.9884  0.7379  0.8868
  994SOL    HW2 3793   2.774   7.465   1.499  0.6730  0.6411 -1.0129
  995SOL     OW 3794   4.854   3.461   3.340  0.2482 -0.4035  0.0170
  995SOL    HW1 3795   4.851   3.416   3.256  0.4672 -0.8729  0.2553
  995SOL    HW2 3796   4.762   3.478   3.361  0.1448 -0.9258  0.0148
  996SOL     OW 3797   5.707   2.994   2.207 -0.1988  0.0509  0.4493
  996SOL    HW1 3798   5.694   3.079   2.248 -2.6394  0.3559 -0.7261
  996SOL    HW2 3799   5.785   3.004   2.153 -0.6420  1.6860  0.0591
  997SOL     OW 3800   1.887   6.310   4.796  0.6686 -0.0717 -0.1995
  997SOL    HW1 3801   1.798   6.292   4.766  1.0043 -2.7793  0.2372
  997SOL    HW2 3802   1.944   6.268   4.731  1.6825  1.5406 -0.4223
  998SOL     OW 3803   2.429   2.198   2.360  0.1018 -0.0134 -0.4260
  998SOL    HW1 3804   2.460   2.246   2.438  0.2827  1.2237 -1.2391
  998SOL    HW2 3805   2.471   2.112   2.368  0.8248  0.3916  0.3942
  999SOL     OW 3806   6.018   4.527   1.513  0.6787  0.1465  0.5452
  999SOL    HW1 3807   5.931   4.566   1.519  1.7605  2.7179  0.7321
  999SOL    HW2 3808   6.020   4.489   1.425 -0.0739  1.5995 -0.1470
 1000SOL     OW 3809   5.856   5.078   1.192 -0.0778 -0.5312  0.3781
 1000SOL    HW1 3810   5.851   5.173   1.200  0.9394 -0.3903 -0.4840
 1000SOL    HW2 3811   5.778   5.046   1.238 -1.7762  0.8189 -1.3944
 1001SOL     OW 3812   0.880   3.491   6.567 -0.4773  0.0634 -0.0744
 1001SOL    HW1 3813   0.912   3.407   6.599  1.1342  0.5471 -0.2922
 1001SOL    HW2 3814   0.915   3.555   6.629 -0.4155  0.6899 -0.7417
 1002SOL     OW 3815   6.006   0.338   3.849 -0.3345  0.1315 -0.1027
 1002SOL    HW1 3816   6.057   0.268   3.810 -0.3830 -1.1808  2.0615
 1002SOL    HW2 3817   6.068   0.384   3.906 -0.6853  0.8574 -0.2964
 1003SOL     OW 3818   4.456   1.114   2.267 -0.4198 -0.4756 -0.0929
 1003SOL    HW1 3819   4.501   1.061   2.200 -0.4011 -0.3663 -0.1674
 1003SOL    HW2 3820   4.526   1.141   2.326 -0.2621  0.3093 -0.6165
 1004SOL     OW 3821   4.364   7.290   6.989 -0.5278 -0.3554 -0.0467
 1004SOL    HW1 3822   4.313   7.347   6.931 -0.8400 -1.4362 -0.8475
 1004SOL    HW2 3823   4.420   7.240   6.930 -0.0571 -0.6953  0.6770
 1005SOL     OW 3824   4.219   6.479   0.154  0.1288  0.5709  0.6600
 1005SOL    HW1 3825   4.252   6.513   0.071 -1.4405  1.3746  0.3373
 1005SOL    HW2 3826   4.231   6.384   0.147 -2.1427  0.3247 -1.5585
 1006SOL     OW 3827   0.883   7.494   7.885 -0.2880 -0.0924 -0.0053
 1006SOL    HW1 3828   0.921   7.581   7.899 -0.5289 -0.0744  0.5480
 1006SOL    HW2 3829   0.802   7.494   7.936 -0.5073 -0.4948 -0.3437
 1007SOL     OW 3830   2.811   5.012   7.011  0.2909 -0.1555 -0.4154
 1007SOL    HW1 3831   2.808   5.035   7.104 -0.3340 -0.3935 -0.3663
 1007SOL    HW2 3832   2.767   4.927   7.006 -0.6014  0.3234 -1.0598
 1008SOL     OW 3833   3.036   3.592   2.238  0.4138  0.2886 -0.1466
 1008SOL    HW1 3834   2.951   3.630   2.258 -0.2925 -0.9514 -0.7344
 1008SOL    HW2 3835   3.021   3.498   2.235  1.4012  0.1428 -2.0831
 1009SOL     OW 3836   7.802   7.450   2.131  0.5977  0.5235 -0.3870
 1009SOL    HW1 3837   7.753   7.377   2.093  0.3704  0.5600 -0.1591
 1009SOL    HW2 3838   7.748   7.527   2.114 -0.5512  0.2862  1.8655
 1010SOL     OW 3839   0.854   5.619   7.250  0.2287 -0.1399 -0.5940
 1010SOL    HW1 3840   0.801   5.546   7.220  0.1091 -0.4950  0.4441
 1010SOL    HW2 3841   0.806   5.697   7.222 -1.1182 -0.4516  0.7624
 1011SOL     OW 3842   5.924   6.205   7.969 -0.4872 -0.0207  0.1733
 1011SOL    HW1 3843   5.999   6.229   8.024 -0.0912  1.3759 -0.9104
 1011SOL    HW2 3844   5.937   6.112   7.949  0.2727 -0.1083  1.0268
 1012SOL     OW 3845   4.032   1.623   3.132 -0.4428 -0.0825  0.5740
 1012SOL    HW1 3846   3.957   1.681   3.120  0.3974  0.6295 -1.6678
 1012SOL    HW2 3847   4.030   1.565   3.056  0.1742 -1.3441  1.4911
 1013SOL     OW 3848   1.975   1.258   3.421  0.4721  0.5131  0.5940
 1013SOL    HW1 3849   1.990   1.213   3.504 -1.2154  0.3700  0.8484
 1013SOL    HW2 3850   2.022   1.205   3.356 -0.0780 -0.6664  1.1395
 1014SOL     OW 3851   1.808   5.098   6.303  0.2955 -0.3777 -0.6230
 1014SOL    HW1 3852   1.720   5.101   6.340 -0.4650 -0.4056 -2.2980
 1014SOL    HW2 3853   1.845   5.016   6.335 -0.2558 -0.3392  0.1476
 1015SOL     OW 3854   5.293   7.668   5.167  0.3127 -0.4177 -0.0577
 1015SOL    HW1 3855   5.310   7.754   5.206  1.6398 -0.4505 -0.5185
 1015SOL    HW2 3856   5.206   7.644   5.200  0.5438  0.4408  1.2620
 1016SOL     OW 3857   2.908   3.844   2.597 -0.1669  0.3845  0.0399
 1016SOL    HW1 3858   2.969   3.898   2.647 -0.4399  1.2202 -0.5181
 1016SOL    HW2 3859   2.894   3.892   2.515  1.3885 -1.6402 -1.5152
 1017SOL     OW 3860   3.184   4.502   7.304  0.7514 -0.4619  0.2889
 1017SOL    HW1 3861   3.249   4.462   7.246 -0.3053 -0.7253 -0.7346
 1017SOL    HW2 3862   3.100   4.475   7.269  0.0724 -0.2234  1.6788
 1018SOL     OW 3863   7.005   5.747   0.187  0.1596  0.2788 -0.1263
 1018SOL    HW1 3864   7.063   5.678   0.218 -0.2349  0.9548  2.3703
 1018SOL    HW2 3865   7.061   5.824   0.180 -0.1572  0.6535  1.1585
 1019SOL     OW 3866   7.782   6.581   5.462  0.1370  0.6709  0.0920
 1019SOL    HW1 3867   7.717   6.597   5.393 -0.2325  0.6289  0.4272
 1019SOL    HW2 3868   7.784   6.486   5.472  0.7813  0.6223 -0.4169
 1020SOL     OW 3869   5.555   7.913   7.263  0.4067 -0.5866  0.2755
 1020SOL    HW1 3870   5.563   7.991   7.317  1.7819 -1.2987  1.1697
 1020SOL    HW2 3871   5.543   7.947   7.174 -3.0546  0.6141  1.0596
 1021SOL     OW 3872   4.715   7.521   0.691  0.3855 -0.2962  0.4885
 1021SOL    HW1 3873   4.638   7.504   0.745  1.3538 -1.0019  1.6718
 1021SOL    HW2 3874   4.708   7.615   0.669 -1.5231 -0.6406 -0.6190
 1022SOL     OW 3875   5.842   3.422   2.305  0.0508 -0.3093 -0.2244
 1022SOL    HW1 3876   5.858   3.510   2.272  1.9108 -0.2338  0.7441
 1022SOL    HW2 3877   5.922   3.373   2.283  0.1933 -0.9958  1.6722
 1023SOL     OW 3878   6.572   6.734   5.598 -0.1551 -0.2454 -0.3388
 1023SOL    HW1 3879   6.548   6.646   5.570  0.5006 -0.0007 -1.7570
 1023SOL    HW2 3880   6.524   6.792   5.539 -0.1895  0.3490  0.2602
 1024SOL     OW 3881   1.675   5.864   6.020 -0.4256  0.2597  0.0503
 1024SOL    HW1 3882   1.646   5.775   6.040  1.3640 -0.3188  0.2644
 1024SOL    HW2 3883   1.732   5.888   6.094  1.8278  0.2367 -1.5553
 1025SOL     OW 3884   5.442   6.225   3.206 -0.2886  0.0247 -0.4484
 1025SOL    HW1 3885   5.507   6.279   3.162  1.5699 -0.6568  1.2630
 1025SOL    HW2 3886   5.413   6.278   3.281  1.1836 -1.0553  0.9592
 1026SOL     OW 3887   4.854   4.322   2.567  0.5413 -0.7276 -0.2946
 1026SOL    HW1 3888   4.872   4.290   2.655 -0.6871 -1.6630 -0.3551
 1026SOL    HW2 3889   4.771   4.368   2.575  1.5992  1.3246 -0.5051
 1027SOL     OW 3890   6.862   2.788   6.457 -0.0880 -0.0419  0.1270
 1027SOL    HW1 3891   6.784   2.733   6.457 -1.0761  1.2661  1.6547
 1027SOL    HW2 3892   6.930   2.733   6.496 -0.7119 -0.6110  0.4248
 1028SOL     OW 3893   1.973   4.555   0.084 -0.3138  0.4263  0.1647
 1028SOL    HW1 3894   1.902   4.559   0.148 -0.5616 -1.2464  0.0172
 1028SOL    HW2 3895   2.051   4.540   0.137 -0.4546 -0.4976  0.1110
 1029SOL     OW 3896   6.525   4.135   6.296  0.6222  0.4761  0.0956
 1029SOL    HW1 3897   6.575   4.067   6.251  1.9577  2.0506 -0.9179
 1029SOL    HW2 3898   6.454   4.156   6.235 -0.1382 -0.3650  0.6616
 1030SOL     OW 3899   7.401   3.008   4.427  0.0096 -1.0034  0.2202
 1030SOL    HW1 3900   7.317   2.963   4.421  0.2934 -1.3556 -1.4892
 1030SOL    HW2 3901   7.460   2.959   4.371  1.0877 -0.1392  0.5481
 1031SOL     OW 3902   1.790   2.064   1.642 -0.3619  0.3379  0.2195
 1031SOL    HW1 3903   1.731   2.025   1.706  0.2495 -1.3211 -0.1732
 1031SOL    HW2 3904   1.862   2.001   1.635  0.3446  1.2410 -0.9463
 1032SOL     OW 3905   4.662   1.367   4.376  0.1489 -1.0503 -0.3110
 1032SOL    HW1 3906   4.647   1.387   4.284  0.8424 -0.0939 -0.2283
 1032SOL    HW2 3907   4.747   1.323   4.378  1.6594  1.6845  0.1500
 1033SOL     OW 3908   0.649   5.561   3.328  0.4830  0.0737 -0.5109
 1033SOL    HW1 3909   0.616   5.498   3.264  1.6471 -0.4254 -0.6384
 1033SOL    HW2 3910   0.733   5.526   3.355  1.5791  2.0001 -1.2432
 1034SOL     OW 3911   6.823   6.081   6.226 -0.7444 -0.2161 -0.3728
 1034SOL    HW1 3912   6.848   6.032   6.147 -0.2864 -0.9737  0.2342
 1034SOL    HW2 3913   6.740   6.123   6.203  0.0033  0.6085 -1.7024
 1035SOL     OW 3914   7.295   7.892   7.947  0.5912 -0.5246  0.2504
 1035SOL    HW1 3915   7.269   7.861   7.860 -0.7976 -1.4821  0.9574
 1035SOL    HW2 3916   7.269   7.984   7.949  0.5122 -0.5304 -0.3034
 1036SOL     OW 3917   1.811   2.556   2.503 -0.4019 -0.0845 -0.0500
 1036SOL    HW1 3918   1.735   2.613   2.501 -1.4666 -1.4428  0.2531
 1036SOL    HW2 3919   1.785   2.479   2.453  0.9617 -0.3715 -0.3751
 1037SOL     OW 3920   6.045   6.644   6.291  0.2624 -0.1125  0.0257
 1037SOL    HW1 3921   6.139   6.653   6.274  0.7440 -3.2969  0.4540
 1037SOL    HW2 3922   6.035   6.667   6.383  0.7892 -0.6419  0.2191
 1038SOL     OW 3923   4.763   0.660   6.236  0.5197  0.7001  0.1020
 1038SOL    HW1 3924   4.780   0.753   6.251  2.2569  0.5092 -0.5162
 1038SOL    HW2 3925   4.839   0.629   6.187 -0.3023 -0.9274 -0.2129
 1039SOL     OW 3926   2.770   4.485   6.272  0.8786 -0.0007  0.0665
 1039SOL    HW1 3927   2.853   4.496   6.319  0.0516 -2.0326  2.2337
 1039SOL    HW2 3928   2.706   4.530   6.326  0.1171 -1.1406  0.1528
 1040SOL     OW 3929   5.714   1.601   7.881 -0.0940  0.0631 -0.3514
 1040SOL    HW1 3930   5.742   1.617   7.791  0.7996 -0.8477 -0.2421
 1040SOL    HW2 3931   5.760   1.522   7.907 -0.7153  0.0498  0.7529
 1041SOL     OW 3932   5.320   1.614   7.783  0.0917 -0.0367 -0.3242
 1041SOL    HW1 3933   5.323   1.610   7.879 -0.5462  0.3573 -0.2863
 1041SOL    HW2 3934   5.408   1.587   7.756  0.2884 -0.1264  0.3713
 1042SOL     OW 3935   0.796   5.777   5.883  0.1043 -0.0300  0.4813
 1042SOL    HW1 3936   0.777   5.793   5.975  0.6667  3.2423  0.1639
 1042SOL    HW2 3937   0.818   5.684   5.879 -2.2676 -0.8415  3.1656
 1043SOL     OW 3938   5.859   3.076   0.899 -0.6438  0.6318 -0.0596
 1043SOL    HW1 3939   5.917   3.019   0.950 -1.0334  0.9375  0.7414
 1043SOL    HW2 3940   5.846   3.153   0.954  1.7826  2.6724 -2.0904
 1044SOL     OW 3941   0.385   1.068   3.067  0.2547  0.0655 -0.0300
 1044SOL    HW1 3942   0.430   0.993   3.027 -0.0603 -0.2015  0.1037
 1044SOL    HW2 3943   0.330   1.028   3.135  0.8799  0.5243  0.7622
 1045SOL     OW 3944   2.117   3.520   7.990  0.4364  0.2042 -0.1779
 1045SOL    HW1 3945   2.159   3.478   8.065  0.3549 -1.7610 -1.1797
 1045SOL    HW2 3946   2.100   3.610   8.019 -1.8544 -1.1138  3.0923
 1046SOL     OW 3947   6.256   4.627   6.844 -0.4204  0.4841 -0.1086
 1046SOL    HW1 3948   6.187   4.616   6.778  1.2498 -0.0631 -1.8587
 1046SOL    HW2 3949   6.320   4.685   6.802  0.0120  1.3611  1.6501
 1047SOL     OW 3950   5.484   1.842   5.729  0.5101 -0.2403  0.3827
 1047SOL    HW1 3951   5.490   1.752   5.698 -0.2065 -0.6672  1.4428
 1047SOL    HW2 3952   5.410   1.880   5.682  1.1589 -0.0237 -0.4773
 1048SOL     OW 3953   5.865   2.555   5.965 -0.2371 -0.3987 -0.4103
 1048SOL    HW1 3954   5.930   2.518   5.906  0.0291 -0.9833  0.2346
 1048SOL    HW2 3955   5.835   2.481   6.017 -0.7438  0.0358 -0.0720
 1049SOL     OW 3956   4.190   3.578   7.178 -0.1760  0.2501  0.1168
 1049SOL    HW1 3957   4.163   3.591   7.269 -1.4957 -0.2649 -0.1869
 1049SOL    HW2 3958   4.205   3.484   7.170  1.9797  0.5238  0.3169
 1050SOL     OW 3959   4.476   6.720   2.443 -0.3293 -0.6573 -0.3779
 1050SOL    HW1 3960   4.536   6.758   2.379 -0.0110 -1.9534 -0.8808
 1050SOL    HW2 3961   4.531   6.700   2.519 -0.6239  0.4769  0.1519
 1051SOL     OW 3962   2.543   2.647   2.718 -0.2270 -0.2775 -0.5094
 1051SOL    HW1 3963   2.493   2.612   2.644 -0.5957 -1.1396  0.1254
 1051SOL    HW2 3964   2.484   2.638   2.793  0.9063 -1.4570  0.2942
 1052SOL     OW 3965   3.991   5.752   3.678 -0.6167 -0.3042  0.0749
 1052SOL    HW1 3966   4.036   5.820   3.728 -1.6654  0.1420  0.4484
 1052SOL    HW2 3967   4.053   5.679   3.675  0.6063  0.7339 -0.5080
 1053SOL     OW 3968   4.483   2.191   4.039  0.4487 -0.0701 -0.3478
 1053SOL    HW1 3969   4.456   2.282   4.031  2.0553  0.3006 -3.4042
 1053SOL    HW2 3970   4.568   2.188   3.994  0.9298 -2.8841  0.5679
 1054SOL     OW 3971   1.568   4.125   5.367  0.2277  0.4885  0.0779
 1054SOL    HW1 3972   1.622   4.179   5.310 -1.0342  0.4993 -1.1397
 1054SOL    HW2 3973   1.491   4.105   5.315  0.0238 -1.3119  1.0260
 1055SOL     OW 3974   2.207   0.139   3.857  0.3935  0.7189 -0.2801
 1055SOL    HW1 3975   2.244   0.188   3.783 -0.3430  2.1572  0.2719
 1055SOL    HW2 3976   2.162   0.205   3.909 -0.8307 -0.6057  0.3891
 1056SOL     OW 3977   4.100   4.466   2.209 -0.6088  0.3708  0.0229
 1056SOL    HW1 3978   4.030   4.410   2.243 -0.6176  0.9585  1.0323
 1056SOL    HW2 3979   4.147   4.495   2.288  1.5501 -0.9878 -0.7000
 1057SOL     OW 3980   2.071   1.685   1.811  0.0482 -0.2870  0.1112
 1057SOL    HW1 3981   2.013   1.732   1.750 -0.2925  1.9904  2.0355
 1057SOL    HW2 3982   2.159   1.712   1.785 -0.1026  0.7859  0.6414
 1058SOL     OW 3983   6.515   5.545   4.523 -0.2436 -1.0510  0.1862
 1058SOL    HW1 3984   6.579   5.592   4.469 -2.4760  1.0693 -0.7986
 1058SOL    HW2 3985   6.568   5.498   4.588  2.3563 -0.9247 -1.6997
 1059SOL     OW 3986   2.401   7.148   5.895 -0.1028 -0.3223  0.2872
 1059SOL    HW1 3987   2.471   7.189   5.946 -0.1272 -0.7886  0.7047
 1059SOL    HW2 3988   2.324   7.154   5.951 -0.4175  0.2481 -0.2025
 1060SOL     OW 3989   0.468   4.900   1.701 -0.3767 -0.5058 -0.1282
 1060SOL    HW1 3990   0.545   4.935   1.747 -0.5919 -0.5395  0.2603
 1060SOL    HW2 3991   0.485   4.806   1.693 -0.3463 -0.5022 -0.1064
 1061SOL     OW 3992   3.327   7.563   7.700 -0.5507 -0.1375  0.3788
 1061SOL    HW1 3993   3.263   7.545   7.769 -0.8972 -2.6560 -0.4953
 1061SOL    HW2 3994   3.285   7.531   7.620  1.4615 -1.1324 -0.3320
 1062SOL     OW 3995   3.537   3.311   3.036  0.2151 -0.3038  0.5920
 1062SOL    HW1 3996   3.601   3.315   2.966 -0.4496 -1.0545 -0.0885
 1062SOL    HW2 3997   3.453   3.297   2.991 -0.1327 -1.5217  1.5496
 1063SOL     OW 3998   2.093   4.291   4.434 -0.2247  0.1294  0.1314
 1063SOL    HW1 3999   2.051   4.366   4.391 -0.5855  0.0122  0.2811
 1063SOL    HW2 4000   2.146   4.331   4.504  0.6509  0.3528 -0.6344
 1064SOL     OW 4001   0.961   1.016   3.002 -0.2369 -0.1101  0.2784
 1064SOL    HW1 4002   1.050   1.037   3.029 -0.3643  0.2314  0.4383
 1064SOL    HW2 4003   0.907   1.036   3.079 -0.1804 -2.6521  1.0629
 1065SOL     OW 4004   5.956   3.781   3.890 -0.3449 -0.0881 -0.6230
 1065SOL    HW1 4005   6.026   3.721   3.863 -1.6465 -1.7020 -0.5269
 1065SOL    HW2 4006   5.927   3.748   3.975 -0.2248  1.4757  0.0513
 1066SOL     OW 4007   3.908   6.333   3.861 -0.2140  0.0931 -0.0303
 1066SOL    HW1 4008   3.990   6.304   3.901 -0.8867  0.2017  1.4960
 1066SOL    HW2 4009   3.912   6.429   3.864 -0.4278  0.0981  0.1089
 1067SOL     OW 4010   1.423   2.611   6.997 -0.7280 -0.3102 -0.2815
 1067SOL    HW1 4011   1.498   2.664   6.972 -1.0818  0.5052  0.3410
 1067SOL    HW2 4012   1.364   2.615   6.921 -0.6455 -0.0058 -0.3298
 1068SOL     OW 4013   3.961   1.289   5.963 -0.1044  0.0851  0.3423
 1068SOL    HW1 4014   3.888   1.305   6.023 -0.1171  0.6647  0.1779
 1068SOL    HW2 4015   4.037   1.276   6.020  0.1494  1.9578  0.4827
 1069SOL     OW 4016   2.350   5.730   0.271  0.7410 -0.3515 -0.0045
 1069SOL    HW1 4017   2.333   5.816   0.309 -1.1764 -0.3554 -0.7333
 1069SOL    HW2 4018   2.383   5.749   0.183  1.8864 -0.3798  0.3976
 1070SOL     OW 4019   4.227   5.684   3.345 -0.4488  0.9238  0.0528
 1070SOL    HW1 4020   4.213   5.604   3.295  0.6831  0.6427  0.1726
 1070SOL    HW2 4021   4.140   5.725   3.347 -1.1837 -0.5448  0.4360
 1071SOL     OW 4022   1.487   5.814   3.299  0.0169 -0.1201 -0.1981
 1071SOL    HW1 4023   1.398   5.794   3.329 -0.2700 -0.0943 -1.0051
 1071SOL    HW2 4024   1.512   5.893   3.347 -0.3817 -0.1471  0.0574
 1072SOL     OW 4025   6.258   7.822   5.061  0.0747 -0.2022  0.2289
 1072SOL    HW1 4026   6.183   7.832   5.003 -0.3631  0.8050  0.9339
 1072SOL    HW2 4027   6.235   7.748   5.118 -1.3058  1.3161  1.7401
 1073SOL     OW 4028   1.697   1.856   2.343  0.0351 -0.6794  0.3991
 1073SOL    HW1 4029   1.636   1.881   2.274 -1.3538 -0.7972  1.5329
 1073SOL    HW2 4030   1.715   1.763   2.327 -1.7030 -1.1816  1.2041
 1074SOL     OW 4031   5.266   6.046   3.061  0.9462 -0.5231 -0.0034
 1074SOL    HW1 4032   5.243   6.041   2.968 -0.4637 -1.5759  0.3909
 1074SOL    HW2 4033   5.321   6.125   3.067 -2.7333  2.3718 -0.9658
 1075SOL     OW 4034   1.749   3.212   6.338  0.0833 -0.1028 -0.0306
 1075SOL    HW1 4035   1.709   3.277   6.280  0.3900  0.5025  0.4227
 1075SOL    HW2 4036   1.713   3.128   6.308 -0.6313  0.3105 -0.3662
 1076SOL     OW 4037   4.146   0.921   4.963  0.2556  0.7167 -0.0632
 1076SOL    HW1 4038   4.073   0.860   4.961  1.0392 -0.5678  3.3395
 1076SOL    HW2 4039   4.114   0.996   5.013  0.9725  0.5052  0.7367
 1077SOL     OW 4040   7.222   2.786   5.955 -0.3507  0.1240  0.3452
 1077SOL    HW1 4041   7.161   2.747   6.018 -0.8589  0.3975  0.0362
 1077SOL    HW2 4042   7.198   2.745   5.872 -2.2826  2.4889 -0.4014
 1078SOL     OW 4043   2.872   7.464   5.781 -0.3861  0.4844 -0.4965
 1078SOL    HW1 4044   2.865   7.376   5.745 -1.5398 -1.2545  3.4465
 1078SOL    HW2 4045   2.783   7.485   5.811  0.6023  1.0993  2.3566
 1079SOL     OW 4046   4.356   6.807   2.682  0.4440  0.0010 -0.1676
 1079SOL    HW1 4047   4.263   6.784   2.681  0.5891 -0.8348  1.5460
 1079SOL    HW2 4048   4.388   6.782   2.595 -0.8445 -0.0033 -0.6658
 1080SOL     OW 4049   3.097   0.079   5.485 -0.4042  0.1114  0.5241
 1080SOL    HW1 4050   3.124   0.035   5.566 -0.8976  2.5326  2.0934
 1080SOL    HW2 4051   3.009   0.113   5.505 -0.4962  0.8324 -1.0105
 1081SOL     OW 4052   1.551   4.290   5.814 -0.1679 -0.1478 -0.0332
 1081SOL    HW1 4053   1.491   4.318   5.884 -1.8514 -2.8287 -0.2605
 1081SOL    HW2 4054   1.508   4.316   5.733  1.2216  1.8909 -0.2001
 1082SOL     OW 4055   7.308   0.577   3.744  0.2232 -0.1433  0.4908
 1082SOL    HW1 4056   7.382   0.516   3.748 -0.3836 -0.9727 -0.2993
 1082SOL    HW2 4057   7.347   0.663   3.753  1.5346 -0.4461 -1.5369
 1083SOL     OW 4058   2.110   5.055   2.151  0.0345 -0.0646 -0.1728
 1083SOL    HW1 4059   2.083   4.968   2.120  1.6081 -0.7328  0.2287
 1083SOL    HW2 4060   2.194   5.070   2.108 -0.0458  1.0996  0.0602
 1084SOL     OW 4061   1.925   0.248   1.396 -0.2575 -0.4367  0.3432
 1084SOL    HW1 4062   1.920   0.340   1.422  0.3207 -0.7043  1.4470
 1084SOL    HW2 4063   2.018   0.234   1.377 -0.2749 -0.9095  0.6129
 1085SOL     OW 4064   7.582   5.305   3.065 -0.0210  0.1818 -0.4398
 1085SOL    HW1 4065   7.508   5.245   3.061  0.4677 -0.4265 -0.4664
 1085SOL    HW2 4066   7.574   5.348   3.150 -0.5946  0.3733 -0.5860
 1086SOL     OW 4067   4.035   1.771   4.050 -0.3924 -0.6070  0.3488
 1086SOL    HW1 4068   3.977   1.814   3.987 -1.3132 -2.9844 -0.5669
 1086SOL    HW2 4069   4.096   1.722   3.996  1.0427  0.0204  1.3379
 1087SOL     OW 4070   0.635   0.272   2.065  0.4250  0.5861 -0.0904
 1087SOL    HW1 4071   0.586   0.354   2.070  2.0716  1.6732 -0.9258
 1087SOL    HW2 4072   0.672   0.261   2.152  0.4016  0.8864 -0.0402
 1088SOL     OW 4073   6.238   4.794   3.055  0.2172 -0.1561 -0.0033
 1088SOL    HW1 4074   6.185   4.852   3.000  0.1072 -1.1167 -0.9447
 1088SOL    HW2 4075   6.318   4.779   3.004  1.7679  1.8258  1.6936
 1089SOL     OW 4076   4.653   3.690   5.576 -0.0838 -0.1160 -0.1286
 1089SOL    HW1 4077   4.576   3.665   5.627  1.3754 -2.3899  1.1937
 1089SOL    HW2 4078   4.670   3.781   5.600 -2.0084  0.2486 -0.0324
 1090SOL     OW 4079   6.588   4.089   5.374 -0.0064  0.6098 -0.5876
 1090SOL    HW1 4080   6.532   4.012   5.386  1.5103 -0.3582  0.5179
 1090SOL    HW2 4081   6.671   4.054   5.341  0.4445  1.8747 -0.8615
 1091SOL     OW 4082   6.750   6.222   3.205 -0.0166  0.5656 -0.5192
 1091SOL    HW1 4083   6.844   6.241   3.206 -0.0970  0.9790 -0.6902
 1091SOL    HW2 4084   6.734   6.187   3.117  0.1989 -0.6810 -0.0889
 1092SOL     OW 4085   2.232   2.680   3.918  0.0831 -0.4701 -0.0429
 1092SOL    HW1 4086   2.159   2.634   3.876 -0.2750  1.0497 -1.1807
 1092SOL    HW2 4087   2.310   2.640   3.880 -0.2359  0.7303 -2.0950
 1093SOL     OW 4088   5.293   1.245   5.479 -0.0536  0.2331  0.2658
 1093SOL    HW1 4089   5.306   1.339   5.480 -0.4620  0.3792 -1.9669
 1093SOL    HW2 4090   5.362   1.211   5.422  0.1250 -0.8196  1.0772
 1094SOL     OW 4091   2.187   0.214   1.281  0.3307  0.3298 -0.4629
 1094SOL    HW1 4092   2.281   0.231   1.287  0.0435  1.7767  0.3145
 1094SOL    HW2 4093   2.166   0.231   1.189  0.7144  0.6625 -0.4939
 1095SOL     OW 4094   0.035   3.877   7.850 -0.4547 -0.0092 -0.0265
 1095SOL    HW1 4095   0.087   3.901   7.927 -1.0414  1.3743 -0.0237
 1095SOL    HW2 4096  -0.055   3.887   7.879 -0.6939  1.5685 -1.1446
 1096SOL     OW 4097   3.443   6.778   3.682 -0.4226 -0.3612 -0.1053
 1096SOL    HW1 4098   3.409   6.718   3.748 -0.4877  0.8614  1.0235
 1096SOL    HW2 4099   3.416   6.865   3.713  1.8296  0.4764 -0.3323
 1097SOL     OW 4100   7.763   6.054   6.873  0.3261  0.0544 -0.0498
 1097SOL    HW1 4101   7.758   5.959   6.867 -1.1446 -0.2502  3.5249
 1097SOL    HW2 4102   7.679   6.081   6.910  1.1041  2.6311  0.1019
 1098SOL     OW 4103   4.247   6.490   7.512 -0.2431  0.4681 -0.0197
 1098SOL    HW1 4104   4.197   6.571   7.510  1.0915  1.3401  0.2677
 1098SOL    HW2 4105   4.328   6.511   7.466 -0.3170 -1.0337 -0.8825
 1099SOL     OW 4106   4.507   7.260   3.820  0.1646  0.8894  0.7955
 1099SOL    HW1 4107   4.495   7.210   3.901 -0.9823  0.8379  0.6178
 1099SOL    HW2 4108   4.573   7.326   3.842  1.0100 -0.0885  1.3057
 1100SOL     OW 4109   4.560   6.726   4.636 -0.2232 -0.2060 -0.1900
 1100SOL    HW1 4110   4.545   6.663   4.706  0.1205  0.1280  0.1907
 1100SOL    HW2 4111   4.490   6.790   4.647 -0.4591 -0.4173 -0.4576
 1101SOL     OW 4112   5.049   0.121   7.194 -0.0982 -0.3540  0.1132
 1101SOL    HW1 4113   5.080   0.045   7.243 -1.0658 -0.5732  0.4144
 1101SOL    HW2 4114   4.984   0.086   7.133  0.6036  0.0184 -0.8542
 1102SOL     OW 4115   4.773   1.978   0.416 -0.0675  0.4829  0.4024
 1102SOL    HW1 4116   4.781   1.992   0.322  0.3946  0.6881  0.4719
 1102SOL    HW2 4117   4.820   2.051   0.456  0.8023 -0.2719  0.7870
 1103SOL     OW 4118   0.549   1.780   4.739  0.7147 -0.2727  0.4419
 1103SOL    HW1 4119   0.633   1.742   4.714  0.2076 -0.8686 -0.4001
 1103SOL    HW2 4120   0.537   1.854   4.679 -0.0928 -1.1668 -0.5367
 1104SOL     OW 4121   6.757   3.201   3.517 -0.1755 -0.0602 -0.0725
 1104SOL    HW1 4122   6.741   3.164   3.430  0.5881 -1.0862  0.1901
 1104SOL    HW2 4123   6.795   3.287   3.501 -1.3983  0.3707 -0.7249
 1105SOL     OW 4124   0.769   6.212   2.176  0.1767 -0.1367 -0.2715
 1105SOL    HW1 4125   0.774   6.116   2.178  0.6508 -0.1686 -1.6563
 1105SOL    HW2 4126   0.675   6.230   2.177  0.0907 -0.5540  1.0738
 1106SOL     OW 4127   1.082   4.771   1.392  0.0339  0.3848  0.5148
 1106SOL    HW1 4128   1.138   4.742   1.464 -0.6601  0.4693  1.0990
 1106SOL    HW2 4129   1.040   4.691   1.360  0.0268  0.4042  0.4744
 1107SOL     OW 4130   7.750   0.662   5.628  0.4946  0.0162 -0.7497
 1107SOL    HW1 4131   7.769   0.577   5.665 -1.0758 -0.2446 -0.4668
 1107SOL    HW2 4132   7.698   0.643   5.549  0.5728  0.6928 -0.9759
 1108SOL     OW 4133   0.665   5.913   2.722 -0.2536 -0.0489 -0.8369
 1108SOL    HW1 4134   0.646   5.956   2.805  0.9392  2.8760 -1.9637
 1108SOL    HW2 4135   0.760   5.911   2.716 -0.3017 -1.2951 -1.6331
 1109SOL     OW 4136   1.298   1.317   6.645 -0.0760 -0.2907  0.1079
 1109SOL    HW1 4137   1.367   1.283   6.703 -0.7869 -0.5207  0.8408
 1109SOL    HW2 4138   1.287   1.408   6.672 -0.1764 -0.3051  0.1168
 1110SOL     OW 4139   7.843   1.928   7.217 -0.3018  0.4519  0.4273
 1110SOL    HW1 4140   7.835   1.839   7.251  0.6535 -1.1315 -3.0480
 1110SOL    HW2 4141   7.917   1.966   7.264  1.4436 -1.8603 -0.2894
 1111SOL     OW 4142   3.086   3.679   6.362 -0.1032 -0.5442  0.4794
 1111SOL    HW1 4143   3.038   3.759   6.380 -2.1759 -2.0015  1.7918
 1111SOL    HW2 4144   3.176   3.708   6.348 -0.7644  1.9801  0.9696
 1112SOL     OW 4145   0.382   4.412   3.854  0.7418  0.2907  0.4929
 1112SOL    HW1 4146   0.425   4.468   3.919  2.4025  0.5060 -0.7083
 1112SOL    HW2 4147   0.442   4.339   3.843  1.1295  0.8758 -1.6592
 1113SOL     OW 4148   1.533   7.872   7.594 -0.6026 -0.5030 -0.2619
 1113SOL    HW1 4149   1.551   7.784   7.561  1.2270 -0.6671  0.9529
 1113SOL    HW2 4150   1.604   7.926   7.558  0.4490 -0.3473  1.8246
 1114SOL     OW 4151   3.195   5.527   2.342 -0.5623  0.0570  0.1846
 1114SOL    HW1 4152   3.214   5.446   2.388  2.1702  0.3403 -0.2907
 1114SOL    HW2 4153   3.174   5.590   2.412  2.1570  0.1234  1.0695
 1115SOL     OW 4154   5.520   4.423   0.375 -0.0793  0.0893 -0.0193
 1115SOL    HW1 4155   5.528   4.518   0.365  0.2406  0.0241 -0.3757
 1115SOL    HW2 4156   5.426   4.408   0.386 -0.0015  0.5905  1.5553
 1116SOL     OW 4157   3.184   5.107   7.032  0.0803 -0.1268  0.3844
 1116SOL    HW1 4158   3.116   5.174   7.020 -1.6428 -1.9060 -0.3044
 1116SOL    HW2 4159   3.232   5.107   6.950 -1.1629 -1.0119 -0.3747
 1117SOL     OW 4160   0.695   3.298   7.606 -0.2794  0.2570 -0.4563
 1117SOL    HW1 4161   0.761   3.354   7.648 -1.2414  0.8308  0.3427
 1117SOL    HW2 4162   0.708   3.212   7.647 -0.2314  0.4442 -0.0689
 1118SOL     OW 4163   0.670   1.345   4.421 -0.4084  0.1415 -0.7149
 1118SOL    HW1 4164   0.685   1.401   4.345 -2.2634 -0.0621 -1.2634
 1118SOL    HW2 4165   0.754   1.346   4.468  0.5495  0.8386 -2.3613
 1119SOL     OW 4166   7.295   7.699   2.445  0.1680  0.4666  0.1585
 1119SOL    HW1 4167   7.209   7.686   2.485  0.2963  0.7545  0.5451
 1119SOL    HW2 4168   7.288   7.659   2.359  0.6066 -2.3122  1.3107
 1120SOL     OW 4169   4.427   3.856   3.559 -0.4356  0.6560 -0.3451
 1120SOL    HW1 4170   4.480   3.811   3.625 -1.7283  0.8696  0.8603
 1120SOL    HW2 4171   4.428   3.948   3.586 -1.3395  0.6734 -0.3725
 1121SOL     OW 4172   2.157   6.695   5.976 -0.2659  0.0281 -0.4497
 1121SOL    HW1 4173   2.103   6.685   5.897 -0.9534  1.1683 -0.1486
 1121SOL    HW2 4174   2.120   6.771   6.021 -0.7758 -1.3873  1.6860
 1122SOL     OW 4175   0.920   5.891   1.988 -0.1301 -0.3416 -0.5175
 1122SOL    HW1 4176   0.880   5.900   2.075 -0.0679 -1.3373 -0.3741
 1122SOL    HW2 4177   0.899   5.973   1.943  0.6430  0.6010  0.7607
 1123SOL     OW 4178   1.041   4.344   5.219 -0.2817 -0.2135 -0.2905
 1123SOL    HW1 4179   1.030   4.391   5.136 -0.3155 -2.2071 -1.4936
 1123SOL    HW2 4180   1.024   4.252   5.196  0.4239 -0.9080  1.7873
 1124SOL     OW 4181   7.260   5.765   4.066  0.3095  0.2023  0.2399
 1124SOL    HW1 4182   7.248   5.860   4.061  0.7830  0.3325  1.3143
 1124SOL    HW2 4183   7.343   5.754   4.114  0.8334 -0.7441 -0.8337
 1125SOL     OW 4184   0.468   7.717   5.121 -0.3544  0.7870  0.5368
 1125SOL    HW1 4185   0.506   7.629   5.124 -0.1119  0.8484 -0.4360
 1125SOL    HW2 4186   0.438   7.733   5.210 -2.3654 -1.1535  0.2865
 1126SOL     OW 4187   3.173   3.860   0.231 -0.1543 -0.0019  0.0430
 1126SOL    HW1 4188   3.214   3.927   0.286 -1.2452 -0.1769  1.0923
 1126SOL    HW2 4189   3.079   3.875   0.239 -0.4255 -1.6012  0.2393
 1127SOL     OW 4190   2.635   5.822   3.049 -0.0732  0.2139  0.4057
 1127SOL    HW1 4191   2.649   5.728   3.040 -1.9315  0.0389 -1.4219
 1127SOL    HW2 4192   2.613   5.851   2.960 -1.3058  2.0455  1.2654
 1128SOL     OW 4193   5.754   5.045   6.105  0.3768 -0.0705  0.0122
 1128SOL    HW1 4194   5.686   4.996   6.059  0.9050 -1.3524  0.5597
 1128SOL    HW2 4195   5.707   5.118   6.146 -0.3167  0.2991 -1.3658
 1129SOL     OW 4196   6.301   3.479   6.213  0.0971 -0.0676 -0.2950
 1129SOL    HW1 4197   6.321   3.523   6.130 -0.5545 -1.5782 -1.3189
 1129SOL    HW2 4198   6.386   3.455   6.249  0.5037  2.3808  0.5603
 1130SOL     OW 4199   3.565   6.580   6.277 -0.2817 -0.5675 -0.3900
 1130SOL    HW1 4200   3.528   6.668   6.274  1.9499  0.4870  1.0360
 1130SOL    HW2 4201   3.490   6.523   6.293 -1.5699  1.2364  0.2742
 1131SOL     OW 4202   0.029   7.888   2.936 -0.0461  0.1185 -0.0994
 1131SOL    HW1 4203   0.027   7.835   2.857 -0.8256 -0.0873  0.0576
 1131SOL    HW2 4204  -0.062   7.911   2.953  0.3864  4.3507 -2.0739
 1132SOL     OW 4205   7.117   6.435   3.728 -0.6215 -0.2068  0.6173
 1132SOL    HW1 4206   7.111   6.530   3.718 -0.1963 -0.0886  1.3741
 1132SOL    HW2 4207   7.067   6.400   3.655  1.5901  0.5645 -1.3901
 1133SOL     OW 4208   2.467   4.895   6.997  0.2132  0.1164 -0.5729
 1133SOL    HW1 4209   2.391   4.936   7.038 -0.6998  0.1888 -2.2436
 1133SOL    HW2 4210   2.481   4.814   7.047 -0.9838  0.0943 -0.2487
 1134SOL     OW 4211   6.375   5.943   2.609 -0.1673  1.1217  0.3789
 1134SOL    HW1 4212   6.284   5.964   2.587 -0.3882 -1.0824 -1.0505
 1134SOL    HW2 4213   6.372   5.852   2.638  1.6082  0.9562  0.1242
 1135SOL     OW 4214   0.057   0.689   1.008  0.1484  0.1128 -0.5768
 1135SOL    HW1 4215   0.036   0.609   1.057  1.6912 -0.7894 -1.2902
 1135SOL    HW2 4216  -0.020   0.745   1.017 -1.2402 -1.7211 -0.5769
 1136SOL     OW 4217   4.227   0.358   6.273  0.8225  0.3649  0.3645
 1136SOL    HW1 4218   4.245   0.452   6.273 -0.4720  0.6319 -0.5699
 1136SOL    HW2 4219   4.138   0.351   6.309 -0.2796 -0.2171 -2.2973
 1137SOL     OW 4220   0.623   3.201   5.556 -0.0190  0.3014 -0.2187
 1137SOL    HW1 4221   0.606   3.115   5.518 -1.6074  0.8484 -0.8364
 1137SOL    HW2 4222   0.705   3.230   5.514  0.1526 -0.6013 -0.5211
 1138SOL     OW 4223   6.715   2.082   2.448 -0.3254 -0.2064 -0.0587
 1138SOL    HW1 4224   6.638   2.028   2.430 -0.8594  0.2849  0.7225
 1138SOL    HW2 4225   6.694   2.168   2.411  0.6541 -0.5867 -1.5932
 1139SOL     OW 4226   3.740   0.510   6.809  0.9673 -0.3078 -0.3587
 1139SOL    HW1 4227   3.665   0.461   6.777 -0.6998  0.5812  1.8635
 1139SOL    HW2 4228   3.734   0.502   6.905  2.6398  1.3176 -0.0595
 1140SOL     OW 4229   0.537   7.633   2.064 -0.2734 -0.2658 -0.2068
 1140SOL    HW1 4230   0.605   7.659   2.003 -0.5798 -0.7633 -0.7723
 1140SOL    HW2 4231   0.492   7.560   2.020 -0.9253 -0.1886  0.3196
 1141SOL     OW 4232   4.383   7.373   6.430 -0.4809  0.0424 -0.3496
 1141SOL    HW1 4233   4.435   7.301   6.395 -0.1480 -0.4163  1.0155
 1141SOL    HW2 4234   4.381   7.438   6.359 -0.1398 -0.9751 -1.3160
 1142SOL     OW 4235   5.875   7.199   6.171 -0.0547  0.5669  0.2422
 1142SOL    HW1 4236   5.954   7.160   6.209 -0.1524  0.7807  0.6705
 1142SOL    HW2 4237   5.902   7.226   6.083  0.5483  1.2737  0.6357
 1143SOL     OW 4238   6.794   7.495   7.354  0.0645  0.2900 -0.3581
 1143SOL    HW1 4239   6.752   7.580   7.370 -0.2639 -0.0494  0.6205
 1143SOL    HW2 4240   6.745   7.433   7.408  0.2030 -0.5606 -1.1793
 1144SOL     OW 4241   1.340   7.181   1.949 -0.6082  0.1857 -0.3469
 1144SOL    HW1 4242   1.432   7.157   1.961 -0.6694  0.4420  0.7516
 1144SOL    HW2 4243   1.293   7.097   1.952 -0.8045  0.2407  3.3461
 1145SOL     OW 4244   1.693   2.307   0.506 -0.1972  0.6867  0.4816
 1145SOL    HW1 4245   1.668   2.302   0.414 -1.5076 -0.1986  0.8474
 1145SOL    HW2 4246   1.775   2.258   0.512 -1.0785 -0.9088  0.0739
 1146SOL     OW 4247   1.551   7.272   2.217 -0.1781  0.3525 -0.1945
 1146SOL    HW1 4248   1.569   7.364   2.201 -0.7327  0.6140  0.6141
 1146SOL    HW2 4249   1.492   7.272   2.293  1.2115 -0.7221  0.9440
 1147SOL     OW 4250   4.106   7.281   5.336 -0.1106  0.0268 -0.4191
 1147SOL    HW1 4251   4.105   7.200   5.386 -0.1369  0.9499  1.1617
 1147SOL    HW2 4252   4.020   7.285   5.294  0.1194 -1.0425 -1.0205
 1148SOL     OW 4253   5.437   3.500   3.132  0.0380 -0.2305  0.0844
 1148SOL    HW1 4254   5.404   3.471   3.216 -1.4889 -0.3409 -0.5118
 1148SOL    HW2 4255   5.358   3.512   3.078  0.7050  2.7125 -0.4240
 1149SOL     OW 4256   1.913   1.223   0.710  0.2537 -0.4320  0.1560
 1149SOL    HW1 4257   1.922   1.214   0.615 -0.3575  0.9276 -0.0517
 1149SOL    HW2 4258   2.003   1.223   0.743  0.4731 -0.7006 -0.4289
 1150SOL     OW 4259   5.481   1.370   3.196 -0.1439 -0.1755 -0.1726
 1150SOL    HW1 4260   5.406   1.317   3.224 -0.3499  0.1000 -0.2015
 1150SOL    HW2 4261   5.512   1.327   3.116 -0.1983 -0.3592 -0.0950
 1151SOL     OW 4262   4.965   6.095   3.590  0.4505 -0.2637  0.9240
 1151SOL    HW1 4263   5.050   6.112   3.550  1.7757 -2.9773  2.3210
 1151SOL    HW2 4264   4.923   6.031   3.532  0.0771 -0.1914  1.1096
 1152SOL     OW 4265   2.065   0.985   7.549 -0.5165  0.0250  0.6804
 1152SOL    HW1 4266   2.049   0.942   7.465  0.9405  1.6194 -0.4806
 1152SOL    HW2 4267   1.998   1.053   7.555  0.8093  1.5135 -0.4244
 1153SOL     OW 4268   0.046   3.740   1.228 -0.2455  0.7228 -0.4709
 1153SOL    HW1 4269   0.041   3.686   1.306 -0.8505  1.0145 -0.3025
 1153SOL    HW2 4270   0.139   3.754   1.214 -0.1580  1.4710  0.7590
 1154SOL     OW 4271   0.766   1.430   7.952  0.1615 -0.4180  0.0715
 1154SOL    HW1 4272   0.721   1.352   7.984  0.0041  0.1465  1.3336
 1154SOL    HW2 4273   0.856   1.419   7.980 -0.1080  0.3780  1.3756
 1155SOL     OW 4274   7.128   0.222   6.090  0.1967 -0.3591 -0.1612
 1155SOL    HW1 4275   7.063   0.238   6.021  0.2483  1.8820  0.2541
 1155SOL    HW2 4276   7.194   0.167   6.048 -0.0399  0.5253 -1.7739
 1156SOL     OW 4277   2.180   2.323   0.864  0.3327  0.7404  0.0991
 1156SOL    HW1 4278   2.198   2.356   0.952 -2.1113  0.9072  0.6202
 1156SOL    HW2 4279   2.201   2.396   0.806 -0.6957  1.6505  0.8375
 1157SOL     OW 4280   7.216   4.999   0.929  0.1716 -0.3761  0.5057
 1157SOL    HW1 4281   7.219   5.031   1.019 -0.7080  1.2188 -0.0014
 1157SOL    HW2 4282   7.225   4.904   0.937 -0.7692 -0.3482  2.3293
 1158SOL     OW 4283   4.033   5.635   1.741 -0.3348 -0.1908  0.4882
 1158SOL    HW1 4284   4.049   5.641   1.647 -2.2829 -1.2801  0.0434
 1158SOL    HW2 4285   4.072   5.716   1.777  2.8451 -0.9847 -0.8147
 1159SOL     OW 4286   0.736   6.307   1.212  0.2979  0.0616  0.0676
 1159SOL    HW1 4287   0.674   6.360   1.261 -0.2150  1.9475 -2.4086
 1159SOL    HW2 4288   0.711   6.217   1.231 -2.5627  0.7389 -0.0123
 1160SOL     OW 4289   2.536   7.225   5.667  0.2528  0.3877 -0.2077
 1160SOL    HW1 4290   2.618   7.237   5.714  0.2477 -1.6666  0.4182
 1160SOL    HW2 4291   2.471   7.209   5.735 -0.3104  0.1928 -0.7777
 1161SOL     OW 4292   5.673   5.928   6.650 -0.0176 -0.4605 -0.2635
 1161SOL    HW1 4293   5.610   5.876   6.700 -0.2439 -0.2435 -0.3217
 1161SOL    HW2 4294   5.717   5.865   6.593 -0.0840 -0.6344 -0.1210
 1162SOL     OW 4295   7.524   2.993   0.768  0.4518 -0.1620 -0.3226
 1162SOL    HW1 4296   7.479   3.015   0.687  0.3562 -1.2100 -0.5614
 1162SOL    HW2 4297   7.598   2.939   0.740 -0.4234 -1.7846  0.4000
 1163SOL     OW 4298   1.959   1.745   2.031 -0.0545  0.7981 -0.3261
 1163SOL    HW1 4299   1.985   1.712   1.946  1.1045  1.9647 -0.4428
 1163SOL    HW2 4300   2.041   1.756   2.080 -0.6961  0.0481  0.9936
 1164SOL     OW 4301   6.101   2.228   1.702  0.4381  0.2707 -0.1603
 1164SOL    HW1 4302   6.071   2.179   1.626 -0.2122  1.7577 -0.9150
 1164SOL    HW2 4303   6.095   2.166   1.775 -0.9580 -0.5855 -0.9494
 1165SOL     OW 4304   7.037   7.987   6.778  0.1658  0.1353  0.5234
 1165SOL    HW1 4305   6.956   7.960   6.735  1.8545 -0.9482 -2.2518
 1165SOL    HW2 4306   7.029   7.953   6.867 -2.3073 -0.0958  0.2859
 1166SOL     OW 4307   5.079   3.234   6.211  0.0238 -0.4205 -0.5524
 1166SOL    HW1 4308   5.115   3.318   6.183  1.1633 -0.5585  0.3836
 1166SOL    HW2 4309   5.149   3.171   6.193  0.1110 -0.7771  0.8951
 1167SOL     OW 4310   0.455   7.155   0.185 -0.0344 -0.0696 -0.0521
 1167SOL    HW1 4311   0.438   7.109   0.103  0.5608 -1.9073  0.7941
 1167SOL    HW2 4312   0.371   7.193   0.209 -0.8288 -1.5695 -0.3134
 1168SOL     OW 4313   6.462   2.648   4.902 -0.1525 -0.3391 -0.5549
 1168SOL    HW1 4314   6.409   2.610   4.972 -0.4096 -0.0771 -0.6051
 1168SOL    HW2 4315   6.434   2.603   4.823 -0.2070 -0.2893 -0.5634
 1169SOL     OW 4316   5.028   7.561   6.220  0.3853  0.1833  0.1831
 1169SOL    HW1 4317   4.965   7.621   6.261  0.6171 -0.3704  1.4010
 1169SOL    HW2 4318   5.024   7.583   6.127  0.1179  1.7636  0.5239
 1170SOL     OW 4319   0.666   7.618   6.328  0.2098  0.1572 -0.1124
 1170SOL    HW1 4320   0.735   7.663   6.376  0.1303 -0.0276  0.1765
 1170SOL    HW2 4321   0.672   7.653   6.239 -0.1872  1.1228  0.2255
 1171SOL     OW 4322   1.863   2.796   7.116  0.0868 -0.2398  0.0229
 1171SOL    HW1 4323   1.933   2.853   7.146 -0.7062  0.7822 -0.0037
 1171SOL    HW2 4324   1.894   2.707   7.133  0.3915  0.2480  2.2158
 1172SOL     OW 4325   1.118   0.337   3.890 -0.0846  0.3843  0.5114
 1172SOL    HW1 4326   1.159   0.421   3.869  2.5951 -0.3714  2.2731
 1172SOL    HW2 4327   1.124   0.286   3.809  2.8106  0.2262  0.7401
 1173SOL     OW 4328   1.624   2.081   7.842 -0.1043  0.0610  0.1892
 1173SOL    HW1 4329   1.718   2.070   7.827 -0.0189  1.4269 -0.3759
 1173SOL    HW2 4330   1.604   2.019   7.913  1.1338 -0.5229  0.0580
 1174SOL     OW 4331   1.071   2.511   2.557  0.4145 -0.1615  0.1161
 1174SOL    HW1 4332   1.096   2.589   2.606 -0.3959  0.5182 -0.5093
 1174SOL    HW2 4333   1.127   2.513   2.480  0.6055 -0.3654  0.2502
 1175SOL     OW 4334   1.180   4.370   0.553 -0.2129 -0.4322  0.1952
 1175SOL    HW1 4335   1.272   4.386   0.534 -0.2643 -0.9709 -0.5572
 1175SOL    HW2 4336   1.164   4.415   0.636  0.4360  0.6688 -0.2590
 1176SOL     OW 4337   0.089   5.621   7.491  0.1743  0.3226 -0.2910
 1176SOL    HW1 4338   0.175   5.599   7.455  0.1096  1.0318 -0.8966
 1176SOL    HW2 4339   0.079   5.714   7.475 -0.5309  0.3380  0.1689
 1177SOL     OW 4340   6.713   3.517   4.535  0.1832 -0.2206  0.0765
 1177SOL    HW1 4341   6.773   3.592   4.529  0.0065 -0.1271 -0.5399
 1177SOL    HW2 4342   6.740   3.459   4.463  0.3159 -0.7517  0.5455
 1178SOL     OW 4343   5.552   0.849   2.564 -0.0980 -0.2585  0.2858
 1178SOL    HW1 4344   5.511   0.789   2.627 -0.1257 -1.5531 -0.9095
 1178SOL    HW2 4345   5.546   0.803   2.480  2.0290  0.3786 -0.2656
 1179SOL     OW 4346   6.777   4.697   2.045  0.1366 -0.1155 -0.1747
 1179SOL    HW1 4347   6.840   4.719   1.976 -1.0541  0.0287 -1.2590
 1179SOL    HW2 4348   6.831   4.658   2.115  1.4185  0.0128 -1.0438
 1180SOL     OW 4349   4.035   3.480   5.228  0.2777 -0.4023 -0.1693
 1180SOL    HW1 4350   4.032   3.554   5.289 -0.2122 -0.6460  0.1062
 1180SOL    HW2 4351   4.026   3.402   5.283 -0.8716 -0.5955 -0.6069
 1181SOL     OW 4352   0.688   7.785   4.974 -0.0745 -0.7450  0.0662
 1181SOL    HW1 4353   0.748   7.808   5.045  0.1932 -0.1250 -0.3615
 1181SOL    HW2 4354   0.607   7.761   5.019 -0.4179  1.1444  0.5346
 1182SOL     OW 4355   4.282   5.041   2.020 -0.1424  0.2373 -0.0236
 1182SOL    HW1 4356   4.304   4.949   2.004 -1.0213 -0.1113  0.6886
 1182SOL    HW2 4357   4.239   5.041   2.105 -2.4941  0.9148 -1.1188
 1183SOL     OW 4358   4.406   2.518   7.749  0.0892 -0.4198  0.2848
 1183SOL    HW1 4359   4.340   2.467   7.703  2.2471 -1.1519 -2.2779
 1183SOL    HW2 4360   4.368   2.606   7.755 -1.1750 -0.8306 -0.9954
 1184SOL     OW 4361   6.111   5.773   4.686 -0.0260 -0.0689 -0.1049
 1184SOL    HW1 4362   6.086   5.694   4.638  0.3806  0.4980 -1.2894
 1184SOL    HW2 4363   6.201   5.789   4.659  0.1320  0.3861  0.6954
 1185SOL     OW 4364   6.307   2.052   4.792 -0.0988  0.2775 -0.0413
 1185SOL    HW1 4365   6.259   2.088   4.866 -1.0312 -0.8328 -0.0647
 1185SOL    HW2 4366   6.279   1.960   4.788  2.0317 -0.4166 -0.0883
 1186SOL     OW 4367   2.858   1.609   6.079  0.1693 -1.1143  0.0349
 1186SOL    HW1 4368   2.824   1.692   6.112  1.5380 -0.3573 -0.3929
 1186SOL    HW2 4369   2.787   1.574   6.025 -0.5030 -0.3323  0.3851
 1187SOL     OW 4370   7.942   6.116   6.646 -0.6828  0.1603  0.1904
 1187SOL    HW1 4371   7.958   6.022   6.657  1.6297  0.5408  0.5748
 1187SOL    HW2 4372   7.863   6.133   6.697 -1.8750 -1.7669 -0.8979
 1188SOL     OW 4373   6.600   2.862   6.119 -0.1499  0.2133 -0.4788
 1188SOL    HW1 4374   6.526   2.853   6.178  0.3051  2.1219  0.4489
 1188SOL    HW2 4375   6.595   2.952   6.087  0.9335 -0.0786 -1.5554
 1189SOL     OW 4376   4.036   2.918   2.384  0.3988  0.3769  0.3278
 1189SOL    HW1 4377   4.032   3.000   2.434 -2.4410  0.3812  0.2593
 1189SOL    HW2 4378   4.085   2.941   2.304  0.8397  1.6117  0.9235
 1190SOL     OW 4379   4.680   1.655   6.099  0.5209  0.2595 -0.2744
 1190SOL    HW1 4380   4.701   1.738   6.057 -0.1429  0.0603 -1.0177
 1190SOL    HW2 4381   4.692   1.671   6.192  0.1536  1.2657 -0.3935
 1191SOL     OW 4382   4.511   0.738   5.733  0.2332  0.2318 -0.2407
 1191SOL    HW1 4383   4.484   0.652   5.765  0.9955  0.0157 -0.1573
 1191SOL    HW2 4384   4.544   0.722   5.645  0.8440  0.3480 -0.0402
 1192SOL     OW 4385   4.701   2.230   6.083  0.1455 -0.4150  0.7604
 1192SOL    HW1 4386   4.790   2.254   6.058 -0.6120  0.3261 -1.4814
 1192SOL    HW2 4387   4.647   2.304   6.053 -1.2516 -0.9049  1.9358
 1193SOL     OW 4388   5.475   4.649   3.245  1.0741  0.0170 -0.4085
 1193SOL    HW1 4389   5.470   4.587   3.317  0.9327 -0.7711 -1.0861
 1193SOL    HW2 4390   5.455   4.597   3.167  2.9455  0.4645 -1.2422
 1194SOL     OW 4391   4.260   7.717   6.679 -0.1726  0.0786 -0.5161
 1194SOL    HW1 4392   4.335   7.776   6.690  1.0774 -1.8712  3.0126
 1194SOL    HW2 4393   4.187   7.764   6.718  0.2085  0.2943 -0.0549
 1195SOL     OW 4394   0.474   7.262   0.596  0.7049  0.0413 -0.5571
 1195SOL    HW1 4395   0.551   7.216   0.563  0.4501  1.2567 -3.0219
 1195SOL    HW2 4396   0.404   7.239   0.534 -0.3512  0.7992  0.3170
 1196SOL     OW 4397   7.722   5.968   4.471  0.3682  0.1717 -0.4588
 1196SOL    HW1 4398   7.760   6.044   4.428  0.9637 -0.5544 -1.2594
 1196SOL    HW2 4399   7.628   5.975   4.456  0.4663  0.4974 -0.9268
 1197SOL     OW 4400   6.390   3.422   5.135 -0.2426  0.0763 -0.6135
 1197SOL    HW1 4401   6.482   3.447   5.142  0.0049 -0.7049 -0.9946
 1197SOL    HW2 4402   6.383   3.378   5.050 -1.0835  0.6012 -0.8281
 1198SOL     OW 4403   5.160   5.249   4.894  1.2690  0.4812 -0.2400
 1198SOL    HW1 4404   5.187   5.180   4.833  4.1781  1.4193 -0.1910
 1198SOL    HW2 4405   5.199   5.224   4.977  0.5262  1.1282  0.3153
 1199SOL     OW 4406   2.576   5.639   6.494 -0.3040  0.3290  0.1133
 1199SOL    HW1 4407   2.546   5.727   6.518 -0.5443 -0.2678  2.1470
 1199SOL    HW2 4408   2.528   5.580   6.552  1.0724 -1.0213 -0.0580
 1200SOL     OW 4409   5.082   4.406   7.939 -0.4276  0.2530  0.3715
 1200SOL    HW1 4410   5.170   4.440   7.920 -0.3653  1.8607  2.9812
 1200SOL    HW2 4411   5.091   4.311   7.934  1.2626  0.4053 -0.1190
 1201SOL     OW 4412   3.665   2.944   1.942  0.2193 -0.0434 -0.3412
 1201SOL    HW1 4413   3.592   2.889   1.913  1.1674 -1.6561  0.1945
 1201SOL    HW2 4414   3.730   2.935   1.872 -0.5035  2.3708 -1.4221
 1202SOL     OW 4415   0.974   4.630   5.521 -0.0434  0.5449  0.3768
 1202SOL    HW1 4416   1.062   4.602   5.547  0.5232  0.4919 -1.4653
 1202SOL    HW2 4417   0.984   4.660   5.431 -2.1790 -0.8780 -0.4197
 1203SOL     OW 4418   3.498   0.787   3.807 -0.2613 -0.3928  0.0037
 1203SOL    HW1 4419   3.471   0.726   3.876 -1.7450  1.3219  1.0403
 1203SOL    HW2 4420   3.593   0.780   3.805 -0.2155 -0.9605  1.8347
 1204SOL     OW 4421   4.444   2.788   2.153  0.6918  0.1494 -0.1810
 1204SOL    HW1 4422   4.479   2.719   2.097  0.9022  1.0479 -1.1766
 1204SOL    HW2 4423   4.520   2.838   2.181  0.5181  0.1183  0.3553
 1205SOL     OW 4424   6.338   5.999   5.295 -0.7287  0.3674 -0.0468
 1205SOL    HW1 4425   6.349   5.907   5.275  0.1100  0.8250 -1.8685
 1205SOL    HW2 4426   6.391   6.013   5.374 -2.3792 -1.0458  1.3944
 1206SOL     OW 4427   7.433   1.519   6.709  0.3114 -0.2666  0.2145
 1206SOL    HW1 4428   7.503   1.582   6.694  1.4474 -1.5664 -0.1299
 1206SOL    HW2 4429   7.352   1.568   6.692  1.1187  1.2827  0.7053
 1207SOL     OW 4430   0.921   0.393   6.450  0.2886 -0.1535 -0.0437
 1207SOL    HW1 4431   1.009   0.388   6.415  0.1992  0.4125 -0.3606
 1207SOL    HW2 4432   0.872   0.445   6.386 -0.9053 -2.4738 -1.1480
 1208SOL     OW 4433   7.433   0.495   1.900 -0.0158 -0.2632  0.3449
 1208SOL    HW1 4434   7.446   0.584   1.931  1.2676 -0.4815  0.4725
 1208SOL    HW2 4435   7.460   0.497   1.808 -1.1726 -0.2538 -0.0147
 1209SOL     OW 4436   3.770   6.967   1.243  1.1545 -0.3558 -0.3220
 1209SOL    HW1 4437   3.701   7.029   1.269  0.4317 -1.4879  0.5990
 1209SOL    HW2 4438   3.767   6.966   1.148  0.3248  0.0953 -0.3129
 1210SOL     OW 4439   3.302   3.787   6.843 -0.5300  0.5175 -0.0762
 1210SOL    HW1 4440   3.215   3.749   6.831 -0.7164  0.9020  0.0458
 1210SOL    HW2 4441   3.326   3.764   6.933 -0.5826  0.5682 -0.0494
 1211SOL     OW 4442   4.782   1.234   5.308 -0.2223 -0.3616  0.0576
 1211SOL    HW1 4443   4.792   1.321   5.270  2.8717 -1.3370 -1.7183
 1211SOL    HW2 4444   4.865   1.218   5.355 -1.5106 -1.6295  2.0916
 1212SOL     OW 4445   1.662   0.422   0.090 -0.0819 -0.2478 -0.0067
 1212SOL    HW1 4446   1.602   0.464   0.152  0.3199 -0.0513  0.2576
 1212SOL    HW2 4447   1.607   0.364   0.038 -0.2928 -1.1042  1.1445
 1213SOL     OW 4448   1.042   0.984   1.243 -0.3175 -0.4664  0.0985
 1213SOL    HW1 4449   1.135   0.986   1.266 -0.6789  0.3270  1.6433
 1213SOL    HW2 4450   1.002   1.047   1.302 -1.5145  1.0637 -2.2459
 1214SOL     OW 4451   1.558   6.140   6.024  0.4605  0.4348 -0.1169
 1214SOL    HW1 4452   1.603   6.060   6.051  0.0415  0.6703  1.3814
 1214SOL    HW2 4453   1.626   6.193   5.983  1.1524  0.0495  0.4983
 1215SOL     OW 4454   1.591   3.893   7.114  0.2855  0.7714  0.9647
 1215SOL    HW1 4455   1.584   3.989   7.120  0.4979  0.9175 -0.7540
 1215SOL    HW2 4456   1.533   3.869   7.042  2.4898 -0.0366 -0.6369
 1216SOL     OW 4457   5.802   3.341   3.769 -0.2545  0.1383  0.0743
 1216SOL    HW1 4458   5.720   3.376   3.732 -0.8827 -1.1188  0.2240
 1216SOL    HW2 4459   5.870   3.372   3.709 -1.1233 -0.8502 -1.5054
 1217SOL     OW 4460   2.571   2.451   7.042 -0.0622 -0.1263 -0.2144
 1217SOL    HW1 4461   2.599   2.543   7.044  0.5685 -0.3185 -0.0207
 1217SOL    HW2 4462   2.476   2.455   7.054  0.0047  0.4814  0.1554
 1218SOL     OW 4463   5.078   2.424   2.670  0.5439 -0.3463 -0.6160
 1218SOL    HW1 4464   5.144   2.464   2.613 -1.0185 -2.0496 -3.8476
 1218SOL    HW2 4465   5.033   2.498   2.710  2.0347  0.9066 -1.1647
 1219SOL     OW 4466   4.910   3.722   2.162  0.0682  0.3918  0.1639
 1219SOL    HW1 4467   4.954   3.767   2.091  0.7353 -0.3470  0.0934
 1219SOL    HW2 4468   4.833   3.681   2.122  1.9809 -2.5184 -0.8529
 1220SOL     OW 4469   6.393   7.632   3.120 -0.6234  0.0559  0.1635
 1220SOL    HW1 4470   6.453   7.654   3.191 -0.4998  1.1184 -0.2568
 1220SOL    HW2 4471   6.313   7.604   3.165 -0.2697 -0.0699  0.7226
 1221SOL     OW 4472   3.552   6.027   5.644  0.0675  0.2252  0.4735
 1221SOL    HW1 4473   3.617   6.016   5.575 -1.1467 -0.1770 -0.6453
 1221SOL    HW2 4474   3.562   5.950   5.699 -0.6390 -0.7363 -0.7126
 1222SOL     OW 4475   3.311   4.858   6.949  0.4610  0.2132  0.1267
 1222SOL    HW1 4476   3.278   4.768   6.954  1.9579 -0.3167  1.1229
 1222SOL    HW2 4477   3.253   4.909   7.006  0.5194 -0.4399  0.7836
 1223SOL     OW 4478   1.641   1.290   0.764  0.2367  0.4612  0.0086
 1223SOL    HW1 4479   1.732   1.262   0.757 -0.1507 -0.5946 -0.9502
 1223SOL    HW2 4480   1.644   1.365   0.824  1.7181  0.3992  0.0423
 1224SOL     OW 4481   2.618   4.968   2.607  0.1335  0.0367  0.4969
 1224SOL    HW1 4482   2.622   4.878   2.638  1.4140 -0.2319 -0.3613
 1224SOL    HW2 4483   2.559   4.966   2.532 -1.4224  0.3198  1.6703
 1225SOL     OW 4484   2.175   7.512   1.741 -0.4313  0.0942 -0.2692
 1225SOL    HW1 4485   2.188   7.595   1.787 -1.3310 -0.1645  0.4743
 1225SOL    HW2 4486   2.093   7.523   1.694 -1.4029 -0.9084  1.1111
 1226SOL     OW 4487   6.694   6.430   5.585  0.2317 -0.6011 -0.1099
 1226SOL    HW1 4488   6.686   6.362   5.518 -0.4551  0.5533 -1.2285
 1226SOL    HW2 4489   6.738   6.503   5.541  0.9045 -0.2648  1.0494
 1227SOL     OW 4490   1.127   2.839   4.166 -0.3045 -0.4690  0.3291
 1227SOL    HW1 4491   1.112   2.753   4.126 -1.1323 -0.2750  0.1978
 1227SOL    HW2 4492   1.220   2.840   4.187 -0.3557 -1.5389  0.6534
 1228SOL     OW 4493   1.841   6.655   3.972  0.5032 -0.4265  0.7112
 1228SOL    HW1 4494   1.873   6.744   3.988 -2.0788  0.6184  0.5444
 1228SOL    HW2 4495   1.794   6.632   4.052 -0.4852 -0.8492  0.0270
 1229SOL     OW 4496   3.174   5.043   1.071  0.3110 -0.2561  0.0293
 1229SOL    HW1 4497   3.103   4.979   1.068  0.9392 -1.0618  1.3191
 1229SOL    HW2 4498   3.132   5.124   1.102 -0.4776 -0.0188 -1.5585
 1230SOL     OW 4499   7.036   7.503   3.430  0.3415  0.3376 -0.7892
 1230SOL    HW1 4500   6.947   7.469   3.438  0.2811  0.1167 -2.1622
 1230SOL    HW2 4501   7.025   7.598   3.429  0.1810  0.3248 -0.3773
 1231SOL     OW 4502   7.796   5.654   6.598 -0.3857  0.5112  0.2802
 1231SOL    HW1 4503   7.843   5.571   6.600 -1.2313  0.0380  1.4192
 1231SOL    HW2 4504   7.837   5.703   6.527  3.0159  0.8334  2.2694
 1232SOL     OW 4505   3.291   2.095   0.205 -0.1935  0.1836 -0.4648
 1232SOL    HW1 4506   3.224   2.027   0.197  0.1038 -0.1915  0.1223
 1232SOL    HW2 4507   3.317   2.092   0.298  0.8944  0.0709 -0.7541
 1233SOL     OW 4508   6.722   2.447   2.521  0.0134  0.6789 -0.1654
 1233SOL    HW1 4509   6.779   2.517   2.490  0.6457  0.0510 -0.4493
 1233SOL    HW2 4510   6.703   2.468   2.612  0.4597  1.0446 -0.1604
 1234SOL     OW 4511   5.261   0.990   4.856 -0.4941 -0.4210  0.1511
 1234SOL    HW1 4512   5.264   0.994   4.760 -0.4657 -1.0520  0.1239
 1234SOL    HW2 4513   5.181   0.941   4.876 -0.3882 -0.4773  0.4471
 1235SOL     OW 4514   4.960   5.122   0.851  0.5224 -0.5755  0.0730
 1235SOL    HW1 4515   4.904   5.143   0.776  0.3957  0.5181  0.4580
 1235SOL    HW2 4516   4.977   5.207   0.893  0.5819 -1.1561  1.2780
 1236SOL     OW 4517   6.983   0.993   7.903 -0.0555 -0.7548  0.1902
 1236SOL    HW1 4518   6.981   0.962   7.813  1.8222  0.1295 -0.2105
 1236SOL    HW2 4519   6.973   1.088   7.896  1.3572 -0.5341  0.7751
 1237SOL     OW 4520   1.205   1.526   6.433  0.3569  0.2013  0.0021
 1237SOL    HW1 4521   1.200   1.452   6.493 -0.1478  0.1988 -0.0402
 1237SOL    HW2 4522   1.256   1.592   6.480  0.1116  0.1337  0.3632
 1238SOL     OW 4523   5.808   5.578   1.487 -0.1048  0.7790 -0.1428
 1238SOL    HW1 4524   5.891   5.549   1.448 -1.1735  1.4406 -3.2029
 1238SOL    HW2 4525   5.760   5.497   1.505 -0.4939  0.3801 -2.5893
 1239SOL     OW 4526   4.867   2.743   5.567  0.7336 -0.2278  0.0379
 1239SOL    HW1 4527   4.930   2.784   5.508 -0.2168 -0.5953 -1.2930
 1239SOL    HW2 4528   4.839   2.664   5.521 -1.5552  0.5166 -0.0018
 1240SOL     OW 4529   1.040   1.304   6.953  0.1449 -0.6406  0.0618
 1240SOL    HW1 4530   1.087   1.364   7.011  3.4835 -2.9056 -0.0075
 1240SOL    HW2 4531   0.983   1.254   7.012  0.5432 -0.2695  0.7816
 1241SOL     OW 4532   4.406   3.121   0.158 -0.0131  0.3542  0.4322
 1241SOL    HW1 4533   4.449   3.036   0.153 -0.6932  0.0726 -0.9761
 1241SOL    HW2 4534   4.319   3.106   0.121  0.1454  1.8362 -0.6193
 1242SOL     OW 4535   6.542   1.500   2.499 -0.2271 -0.5339 -0.1424
 1242SOL    HW1 4536   6.489   1.579   2.489 -0.6489 -0.6316  1.1429
 1242SOL    HW2 4537   6.488   1.441   2.551  0.8309 -0.9259  0.5504
 1243SOL     OW 4538   5.623   0.195   5.893  0.2676  0.0911  0.5085
 1243SOL    HW1 4539   5.604   0.256   5.823  1.1817 -1.3756 -1.0970
 1243SOL    HW2 4540   5.538   0.178   5.934 -1.1184 -1.8950 -2.7438
 1244SOL     OW 4541   5.814   3.721   6.252  0.1123  0.5885 -0.3973
 1244SOL    HW1 4542   5.874   3.673   6.194  0.6879  1.5950 -0.6593
 1244SOL    HW2 4543   5.839   3.693   6.340  2.5838  2.6482 -0.3143
 1245SOL     OW 4544   3.636   5.132   6.661  0.2405  0.1291 -0.2576
 1245SOL    HW1 4545   3.564   5.070   6.653  1.7199 -1.5505 -1.4151
 1245SOL    HW2 4546   3.610   5.206   6.607 -1.6338  0.6732  1.2852
 1246SOL     OW 4547   1.767   1.247   7.879 -0.9247 -0.0331  0.1541
 1246SOL    HW1 4548   1.782   1.196   7.958 -2.0369 -0.0075  0.3925
 1246SOL    HW2 4549   1.693   1.204   7.836 -0.6415  0.2428 -0.6226
 1247SOL     OW 4550   7.946   3.241   5.818 -0.0270  0.2237  0.1749
 1247SOL    HW1 4551   7.989   3.166   5.778  1.1907  0.9228  0.1088
 1247SOL    HW2 4552   7.896   3.281   5.746 -0.6238 -0.4655  0.1977
 1248SOL     OW 4553   1.973   1.452   0.422 -0.1559 -0.0899 -0.2735
 1248SOL    HW1 4554   1.942   1.457   0.332 -4.3887 -1.4639  0.8930
 1248SOL    HW2 4555   1.919   1.514   0.471 -0.9222 -2.3049  1.9067
 1249SOL     OW 4556   5.999   7.443   0.026  0.4081  0.2738 -0.6672
 1249SOL    HW1 4557   5.950   7.375   0.072  2.6847 -0.2373  1.2283
 1249SOL    HW2 4558   6.049   7.396  -0.040  0.4940  0.3859 -0.6828
 1250SOL     OW 4559   7.862   4.741   3.905  0.0704  0.5101 -0.1286
 1250SOL    HW1 4560   7.873   4.788   3.988 -0.7251  0.6476 -0.0987
 1250SOL    HW2 4561   7.894   4.652   3.924 -0.1717  0.5205  0.3471
 1251SOL     OW 4562   6.592   0.663   1.307 -0.0025  0.0072  0.1572
 1251SOL    HW1 4563   6.630   0.584   1.267  2.7953  1.6293 -0.6775
 1251SOL    HW2 4564   6.568   0.718   1.233 -2.1965 -0.0825  0.7334
 1252SOL     OW 4565   2.223   5.012   6.641  0.1331  0.2311 -0.0651
 1252SOL    HW1 4566   2.311   4.983   6.665  0.1942  1.2157  1.0230
 1252SOL    HW2 4567   2.232   5.040   6.549  1.0435  0.6128  0.1209
 1253SOL     OW 4568   0.782   3.967   5.249 -0.0636  0.0442 -0.1870
 1253SOL    HW1 4569   0.760   4.052   5.211  1.6708  0.6980  0.1654
 1253SOL    HW2 4570   0.756   3.975   5.341 -0.7170 -0.1333 -0.3553
 1254SOL     OW 4571   1.527   1.720   6.130 -0.3566  0.6497  0.0481
 1254SOL    HW1 4572   1.472   1.710   6.207  1.3412 -0.0329  1.2344
 1254SOL    HW2 4573   1.485   1.790   6.079 -2.8905 -0.5753  0.3085
 1255SOL     OW 4574   1.698   1.129   6.261  0.8223 -0.3112  0.0042
 1255SOL    HW1 4575   1.713   1.055   6.202 -0.3510  0.4283 -1.2784
 1255SOL    HW2 4576   1.650   1.193   6.208 -3.2037 -0.8841  2.5219
 1256SOL     OW 4577   0.328   1.859   4.345 -0.5177  0.3487 -0.5589
 1256SOL    HW1 4578   0.279   1.779   4.366 -0.6887  0.7421  0.6448
 1256SOL    HW2 4579   0.415   1.827   4.320  1.0084 -0.2142  4.3369
 1257SOL     OW 4580   5.978   2.351   5.038  0.2953 -0.2568 -0.3844
 1257SOL    HW1 4581   5.979   2.437   5.081  0.7563 -0.0892 -0.7258
 1257SOL    HW2 4582   5.891   2.346   4.999  0.2540  0.0428 -0.3369
 1258SOL     OW 4583   0.860   7.161   5.891  0.1159 -0.0061  0.3909
 1258SOL    HW1 4584   0.841   7.229   5.955 -0.3150  1.3033 -1.0498
 1258SOL    HW2 4585   0.953   7.172   5.870 -0.0704  0.4931 -0.2075
 1259SOL     OW 4586   1.407   4.640   0.078 -0.4390  0.1645 -0.3511
 1259SOL    HW1 4587   1.379   4.550   0.061  1.0312 -0.1955 -1.0553
 1259SOL    HW2 4588   1.439   4.672  -0.006 -2.2386  1.8779 -0.4517
 1260SOL     OW 4589   4.902   7.279   5.773 -0.6397 -0.0588 -0.3410
 1260SOL    HW1 4590   4.878   7.322   5.690 -0.0225  0.0350 -0.4720
 1260SOL    HW2 4591   4.887   7.185   5.756 -0.4678 -0.0442 -0.5716
 1261SOL     OW 4592   3.667   5.013   5.034  0.6190  0.1824  0.2574
 1261SOL    HW1 4593   3.741   4.959   5.008  0.9554  0.4574  0.6318
 1261SOL    HW2 4594   3.596   4.950   5.051 -0.0427  0.0454 -2.5653
 1262SOL     OW 4595   1.807   0.694   5.900  0.3404  0.0572 -0.2514
 1262SOL    HW1 4596   1.831   0.779   5.936  1.8701  0.0359 -1.1534
 1262SOL    HW2 4597   1.818   0.633   5.973  1.7089  0.2740 -0.2510
 1263SOL     OW 4598   3.581   3.135   0.549  0.1089 -0.1832  0.9522
 1263SOL    HW1 4599   3.491   3.167   0.540  0.8861  2.1977  0.8022
 1263SOL    HW2 4600   3.583   3.092   0.634 -1.3925 -1.1940  0.5153
 1264SOL     OW 4601   4.838   0.846   6.440  0.6189  0.3355  0.6333
 1264SOL    HW1 4602   4.763   0.821   6.494 -0.9342  3.2396  0.0436
 1264SOL    HW2 4603   4.904   0.779   6.457 -0.4088  0.1229  4.7313
 1265SOL     OW 4604   4.045   1.274   1.700  0.1350 -0.0946  0.3909
 1265SOL    HW1 4605   4.106   1.324   1.645  0.1479 -0.7835 -0.2285
 1265SOL    HW2 4606   3.985   1.341   1.736 -0.8186  0.2318 -1.6571
 1266SOL     OW 4607   4.243   6.015   6.514  0.2140 -0.0539  0.4055
 1266SOL    HW1 4608   4.200   6.003   6.430  1.0070  0.4904 -0.0882
 1266SOL    HW2 4609   4.173   6.042   6.574 -0.0304  1.5696 -0.5531
 1267SOL     OW 4610   7.074   1.928   1.609  0.2169 -0.3829 -0.6200
 1267SOL    HW1 4611   7.167   1.948   1.616 -0.0118  0.4616  0.2743
 1267SOL    HW2 4612   7.068   1.833   1.621  0.8879 -0.3243  0.2843
 1268SOL     OW 4613   2.072   5.412   6.603  0.3769 -0.2150  1.0240
 1268SOL    HW1 4614   1.976   5.416   6.603  0.3029 -1.4422  0.0674
 1268SOL    HW2 4615   2.094   5.361   6.525  1.8324  0.3815  1.0088
 1269SOL     OW 4616   0.491   4.584   5.571  0.3829 -0.4961  0.2363
 1269SOL    HW1 4617   0.534   4.652   5.519 -0.4844 -0.2578 -0.1882
 1269SOL    HW2 4618   0.473   4.627   5.655 -0.3450 -0.1221 -0.1000
 1270SOL     OW 4619   4.138   0.201   3.602 -0.0780  0.9152 -0.0583
 1270SOL    HW1 4620   4.057   0.223   3.556  0.0578  0.1910 -0.6759
 1270SOL    HW2 4621   4.111   0.136   3.668  0.0386  0.4261 -0.4825
 1271SOL     OW 4622   4.922   2.975   5.297 -0.6573 -0.2955 -0.0268
 1271SOL    HW1 4623   5.010   3.004   5.320 -0.4167 -0.9856 -0.0577
 1271SOL    HW2 4624   4.930   2.948   5.205 -0.5919 -1.5224  0.3189
 1272SOL     OW 4625   5.070   1.914   5.453 -0.0455 -0.1574 -0.9208
 1272SOL    HW1 4626   5.081   2.008   5.440  3.1400 -0.2162  0.3469
 1272SOL    HW2 4627   5.066   1.903   5.549 -0.0937 -1.2984 -1.0338
 1273SOL     OW 4628   7.201   5.120   4.521 -0.5441 -0.6034  0.3020
 1273SOL    HW1 4629   7.205   5.059   4.447  0.9993 -0.7302  0.4689
 1273SOL    HW2 4630   7.240   5.072   4.594 -0.2275  0.2343  0.6927
 1274SOL     OW 4631   1.641   4.927   4.233  0.1214  0.3024 -0.3970
 1274SOL    HW1 4632   1.635   4.855   4.170 -0.8280 -0.9421  1.0372
 1274SOL    HW2 4633   1.735   4.938   4.247  0.3543  0.7043 -2.1106
 1275SOL     OW 4634   4.886   4.021   0.608  0.3797  0.5406 -0.5603
 1275SOL    HW1 4635   4.857   3.995   0.696 -0.4743  1.5464 -0.5317
 1275SOL    HW2 4636   4.822   3.981   0.549  1.6270 -1.1507 -0.8506
 1276SOL     OW 4637   6.167   7.952   7.078 -0.3443  0.0205  0.3701
 1276SOL    HW1 4638   6.249   7.904   7.063 -1.1467 -0.6721 -2.3715
 1276SOL    HW2 4639   6.172   8.027   7.018 -0.9880  0.9690  1.4721
 1277SOL     OW 4640   7.941   1.700   0.991 -0.4624  0.4433 -0.2743
 1277SOL    HW1 4641   7.990   1.662   1.064  1.6610 -2.5780 -2.9655
 1277SOL    HW2 4642   7.851   1.671   1.005  0.3762 -2.4508 -0.1194
 1278SOL     OW 4643   0.734   2.641   6.959  0.2616  0.2801 -0.3876
 1278SOL    HW1 4644   0.816   2.592   6.949 -0.3961 -1.0547  0.4874
 1278SOL    HW2 4645   0.753   2.703   7.030  0.5690  0.0809 -0.2910
 1279SOL     OW 4646   4.354   5.255   7.571  0.2152 -0.3475 -0.2600
 1279SOL    HW1 4647   4.289   5.224   7.634 -0.0758 -0.2933 -0.5314
 1279SOL    HW2 4648   4.349   5.351   7.576 -2.0444 -0.2089 -2.5649
 1280SOL     OW 4649   5.961   0.532   1.043  0.6071 -0.2816 -0.0162
 1280SOL    HW1 4650   5.905   0.455   1.040 -0.5544  0.4893  0.9749
 1280SOL    HW2 4651   5.907   0.600   1.083  1.6108  1.0518 -0.8231
 1281SOL     OW 4652   1.228   5.124   0.361  0.2979 -0.1796  0.0572
 1281SOL    HW1 4653   1.218   5.128   0.456  0.0590 -1.2154  0.0919
 1281SOL    HW2 4654   1.246   5.214   0.334  0.5728  0.0851  1.1056
 1282SOL     OW 4655   0.024   6.190   4.884  0.4095 -0.1325  0.6223
 1282SOL    HW1 4656   0.063   6.201   4.971  1.9918  1.3454 -0.2187
 1282SOL    HW2 4657  -0.005   6.278   4.860 -0.9776 -0.7111  0.0410
 1283SOL     OW 4658   0.866   4.529   1.556  0.0631 -0.3780 -0.6803
 1283SOL    HW1 4659   0.869   4.605   1.615 -1.1570 -0.2493 -0.7504
 1283SOL    HW2 4660   0.935   4.471   1.589 -0.6329 -0.3499  0.9578
 1284SOL     OW 4661   0.711   5.216   2.893 -0.4780 -0.3667 -0.1978
 1284SOL    HW1 4662   0.663   5.138   2.865 -0.6689  0.1287 -1.2853
 1284SOL    HW2 4663   0.798   5.206   2.855 -0.5612  0.0421 -0.4962
 1285SOL     OW 4664   7.111   0.018   7.139 -0.0634  0.5945 -0.0636
 1285SOL    HW1 4665   7.168   0.008   7.062 -1.1594  0.1795 -0.8633
 1285SOL    HW2 4666   7.163   0.066   7.202  0.9059  0.8754 -1.0460
 1286SOL     OW 4667   2.174   5.798   7.082 -0.8069 -0.3667  0.4684
 1286SOL    HW1 4668   2.193   5.832   7.169 -1.3472 -0.0045  0.4507
 1286SOL    HW2 4669   2.178   5.703   7.091  0.6708 -0.3184  0.5301
 1287SOL     OW 4670   5.127   4.018   2.903 -0.5926 -0.3209 -0.1534
 1287SOL    HW1 4671   5.125   3.924   2.887 -0.6425 -0.5163  0.9023
 1287SOL    HW2 4672   5.189   4.029   2.976  2.4263  0.8692 -2.6368
 1288SOL     OW 4673   5.999   4.196   1.687 -0.1265  0.1480  0.3069
 1288SOL    HW1 4674   5.952   4.114   1.680 -0.8688  0.5659  0.3188
 1288SOL    HW2 4675   5.975   4.245   1.609  1.7401 -0.3505 -0.6363
 1289SOL     OW 4676   2.912   1.236   2.223 -0.1028 -0.9215 -0.3406
 1289SOL    HW1 4677   2.895   1.204   2.311  1.5849 -0.7944  0.0692
 1289SOL    HW2 4678   2.934   1.157   2.173  1.0165 -0.7868 -0.0955
 1290SOL     OW 4679   1.444   4.366   4.356  0.1091 -0.0453 -0.0087
 1290SOL    HW1 4680   1.531   4.335   4.381  0.4621 -0.9345 -2.1506
 1290SOL    HW2 4681   1.454   4.396   4.266 -1.8485 -0.3213 -0.3575
 1291SOL     OW 4682   7.483   6.191   5.858 -0.0215  0.9789 -1.4199
 1291SOL    HW1 4683   7.495   6.283   5.883  1.2361  0.6330 -0.6535
 1291SOL    HW2 4684   7.555   6.145   5.901 -0.9878 -0.4683 -1.2881
 1292SOL     OW 4685   7.004   3.742   1.785  0.2807 -0.0813 -0.4726
 1292SOL    HW1 4686   6.964   3.822   1.752 -1.3196 -1.5054 -2.2879
 1292SOL    HW2 4687   6.957   3.723   1.866 -0.3640  0.0850 -0.7978
 1293SOL     OW 4688   2.415   1.486   3.694 -0.1735 -0.1159  0.0166
 1293SOL    HW1 4689   2.377   1.538   3.624 -0.3031  0.5218  0.5535
 1293SOL    HW2 4690   2.450   1.550   3.756  1.3152 -0.6645 -0.1912
 1294SOL     OW 4691   2.759   0.568   3.711 -0.6169 -0.2076  0.4921
 1294SOL    HW1 4692   2.770   0.663   3.721 -0.9300 -0.1855  0.6576
 1294SOL    HW2 4693   2.665   0.555   3.716 -0.5136 -0.6355  1.4594
 1295SOL     OW 4694   5.550   3.422   6.845 -0.3043  0.4618  1.0049
 1295SOL    HW1 4695   5.598   3.399   6.924 -1.5040  2.2843  2.3421
 1295SOL    HW2 4696   5.473   3.366   6.847 -0.3922  0.5897  1.1847
 1296SOL     OW 4697   0.119   4.983   4.179  0.3269 -0.4293 -0.2739
 1296SOL    HW1 4698   0.184   5.001   4.247  1.0888 -1.9026 -0.5571
 1296SOL    HW2 4699   0.102   5.068   4.139  1.0860  0.2001  0.6786
 1297SOL     OW 4700   6.323   1.984   3.700 -0.3497  0.3444 -0.1176
 1297SOL    HW1 4701   6.345   2.071   3.732  1.2197 -0.4538  1.1185
 1297SOL    HW2 4702   6.255   1.999   3.634 -2.8401  2.1967  2.6033
 1298SOL     OW 4703   4.644   0.877   7.056  0.3611 -0.5663  0.6286
 1298SOL    HW1 4704   4.678   0.835   7.136  0.3641 -0.1627  0.8398
 1298SOL    HW2 4705   4.652   0.971   7.073 -0.3386 -0.4691  0.4541
 1299SOL     OW 4706   4.084   3.011   0.407 -0.0844  0.5303  0.6057
 1299SOL    HW1 4707   4.000   3.013   0.454 -0.0456 -0.3381  0.7332
 1299SOL    HW2 4708   4.084   3.091   0.354 -0.2311  1.4065  1.8948
 1300SOL     OW 4709   0.498   3.350   4.929  0.3372  0.0274 -0.0986
 1300SOL    HW1 4710   0.456   3.307   4.855  1.1843  0.1050 -0.6441
 1300SOL    HW2 4711   0.590   3.322   4.924  0.4782  0.3016  0.7239
 1301SOL     OW 4712   7.615   1.221   2.740  0.5286  0.5676 -0.0662
 1301SOL    HW1 4713   7.653   1.170   2.812  0.6435  1.7853  0.7677
 1301SOL    HW2 4714   7.690   1.265   2.700  0.4678 -0.1254 -0.9705
 1302SOL     OW 4715   1.358   4.928   3.730  0.2966  0.4709  0.3032
 1302SOL    HW1 4716   1.397   4.898   3.811  0.2365  1.7784  0.8489
 1302SOL    HW2 4717   1.346   5.022   3.742 -1.7616  0.3636 -0.3487
 1303SOL     OW 4718   3.296   4.599   6.288 -0.3125 -0.1311 -0.7178
 1303SOL    HW1 4719   3.356   4.553   6.231  0.1591 -0.5883  0.1261
 1303SOL    HW2 4720   3.339   4.683   6.307  1.3885 -1.5036  2.0236
 1304SOL     OW 4721   2.508   6.084   4.822  0.1283  0.3397 -0.5933
 1304SOL    HW1 4722   2.480   6.118   4.737 -0.0672 -1.4275 -1.2731
 1304SOL    HW2 4723   2.440   6.112   4.883  0.4609  1.9508 -0.9069
 1305SOL     OW 4724   5.745   2.281   6.334  0.3497 -0.0085 -0.6535
 1305SOL    HW1 4725   5.694   2.221   6.389  1.4260  0.0734  0.4875
 1305SOL    HW2 4726   5.836   2.257   6.351  0.8112  1.8431 -0.2674
 1306SOL     OW 4727   5.990   2.448   2.176 -0.1082 -0.2073 -0.2350
 1306SOL    HW1 4728   5.978   2.414   2.265 -0.4320 -1.3850 -0.6975
 1306SOL    HW2 4729   5.901   2.452   2.140  0.0213  0.2625 -0.5030
 1307SOL     OW 4730   1.698   5.535   1.288 -0.0910 -0.2840  0.3909
 1307SOL    HW1 4731   1.782   5.523   1.244 -0.9371  0.5737 -1.6181
 1307SOL    HW2 4732   1.684   5.454   1.337  1.3857 -0.8774 -0.1221
 1308SOL     OW 4733   4.424   4.503   7.349  0.5446  0.3495 -0.3292
 1308SOL    HW1 4734   4.394   4.555   7.423 -0.8634  0.0753 -0.6757
 1308SOL    HW2 4735   4.516   4.527   7.338  0.5795  0.9190  1.0431
 1309SOL     OW 4736   6.327   4.794   6.218  0.6172 -0.0976 -0.2777
 1309SOL    HW1 4737   6.273   4.717   6.233 -1.1339  1.2497  0.8312
 1309SOL    HW2 4738   6.389   4.794   6.291 -0.5843  0.4629  0.7953
 1310SOL     OW 4739   3.260   7.297   7.224  0.4012  0.5522 -0.3905
 1310SOL    HW1 4740   3.250   7.364   7.293 -0.3708  0.8673 -0.7922
 1310SOL    HW2 4741   3.268   7.348   7.143 -0.5472  0.1633 -0.7405
 1311SOL     OW 4742   4.714   4.602   4.809  0.1296  0.7623  0.2552
 1311SOL    HW1 4743   4.691   4.523   4.760  1.5927  0.2405  0.3721
 1311SOL    HW2 4744   4.783   4.574   4.870  1.3043  2.3045 -0.3016
 1312SOL     OW 4745   4.305   3.324   7.570  0.0193  0.0425  0.2869
 1312SOL    HW1 4746   4.368   3.298   7.637 -1.5975 -2.1562  1.0639
 1312SOL    HW2 4747   4.233   3.364   7.619 -0.5437 -0.2750 -0.2669
 1313SOL     OW 4748   4.976   6.893   1.643  0.3306  0.0636 -0.5211
 1313SOL    HW1 4749   4.930   6.833   1.584  0.7316 -0.7453 -0.0228
 1313SOL    HW2 4750   5.060   6.851   1.659  0.5064  0.6258  0.0659
 1314SOL     OW 4751   3.376   4.199   5.525 -0.1992  0.2210 -0.2811
 1314SOL    HW1 4752   3.447   4.233   5.579 -0.3091  0.6222 -0.3833
 1314SOL    HW2 4753   3.389   4.105   5.524 -0.1907  0.2066  0.4423
 1315SOL     OW 4754   3.331   5.650   0.676 -0.2934 -0.0257 -0.1491
 1315SOL    HW1 4755   3.288   5.576   0.719  2.7302  0.4635  4.4351
 1315SOL    HW2 4756   3.368   5.614   0.596  0.8165 -3.5424  1.7652
 1316SOL     OW 4757   0.033   2.127   1.094  0.8128  0.2236 -0.1263
 1316SOL    HW1 4758  -0.031   2.090   1.033  0.8002 -1.9338  1.0826
 1316SOL    HW2 4759   0.002   2.216   1.111 -0.5630  0.0098 -1.3232
 1317SOL     OW 4760   7.623   4.085   0.181 -0.2675 -0.1388  0.5287
 1317SOL    HW1 4761   7.543   4.077   0.233 -0.7907  0.1276 -0.2154
 1317SOL    HW2 4762   7.602   4.043   0.098  1.3332 -2.6803  1.3067
 1318SOL     OW 4763   7.082   4.421   7.369 -0.2615  0.0937  0.1380
 1318SOL    HW1 4764   7.156   4.468   7.332  0.8434 -0.7269  1.2489
 1318SOL    HW2 4765   7.019   4.415   7.297  0.3066  1.6944 -0.5205
 1319SOL     OW 4766   3.497   5.054   5.272  0.1585 -0.8654 -0.7677
 1319SOL    HW1 4767   3.499   5.132   5.216 -0.1056 -0.4693 -0.2398
 1319SOL    HW2 4768   3.570   5.067   5.333 -0.4531 -0.5642 -0.0800
 1320SOL     OW 4769   6.581   4.953   4.250 -0.2509  0.8140  0.7581
 1320SOL    HW1 4770   6.632   5.012   4.194  2.6181 -1.7183  0.4433
 1320SOL    HW2 4771   6.605   4.978   4.339  2.2816 -0.7431  0.6165
 1321SOL     OW 4772   5.476   6.134   6.752  0.3667 -0.7313  0.0438
 1321SOL    HW1 4773   5.543   6.068   6.769  0.8093 -0.5518 -0.9488
 1321SOL    HW2 4774   5.393   6.091   6.774  0.4488 -2.3701 -2.5007
 1322SOL     OW 4775   5.796   3.557   4.154 -0.0677 -0.3971 -0.3180
 1322SOL    HW1 4776   5.789   3.542   4.248 -0.4193  1.6152  0.0258
 1322SOL    HW2 4777   5.765   3.476   4.114 -0.5694 -1.0344  1.2802
 1323SOL     OW 4778   3.101   6.861   3.587  0.3607  0.5476 -0.3490
 1323SOL    HW1 4779   3.133   6.847   3.498  0.7373  1.7787 -0.4243
 1323SOL    HW2 4780   3.169   6.913   3.630 -1.3311  2.9854 -0.4200
 1324SOL     OW 4781   3.404   4.047   0.071  0.1653  0.0091 -0.3038
 1324SOL    HW1 4782   3.441   4.102   0.003  0.5368  0.5376  0.3125
 1324SOL    HW2 4783   3.330   4.098   0.106  0.1754 -0.1166 -0.0939
 1325SOL     OW 4784   2.737   6.743   3.314  0.5484  0.7121 -0.4105
 1325SOL    HW1 4785   2.759   6.823   3.266  0.8739 -0.0821 -1.6247
 1325SOL    HW2 4786   2.641   6.746   3.322  0.6956  2.1341  1.2313
 1326SOL     OW 4787   2.352   5.406   1.844  0.4280 -0.1366  0.4666
 1326SOL    HW1 4788   2.335   5.487   1.892  0.6490  0.4822 -0.4759
 1326SOL    HW2 4789   2.266   5.364   1.838  0.0307  0.7253 -0.2525
 1327SOL     OW 4790   0.380   6.962   1.526 -0.8529  0.5269  0.1672
 1327SOL    HW1 4791   0.357   7.052   1.503 -1.2699  0.1426 -0.9957
 1327SOL    HW2 4792   0.469   6.968   1.562 -1.2719  1.5250  1.0838
 1328SOL     OW 4793   7.565   4.795   4.861  0.0127 -0.4224  0.9982
 1328SOL    HW1 4794   7.515   4.877   4.865  0.2187 -0.3577  2.6690
 1328SOL    HW2 4795   7.603   4.795   4.773 -0.9369  0.7125  0.5655
 1329SOL     OW 4796   1.567   5.018   3.072 -0.3352 -0.1002  0.0111
 1329SOL    HW1 4797   1.657   5.033   3.101 -0.6797 -0.1500  1.1812
 1329SOL    HW2 4798   1.569   5.033   2.978  0.5186  1.7228  0.2785
 1330SOL     OW 4799   6.071   0.164   2.193  0.2019 -0.4950  0.0673
 1330SOL    HW1 4800   5.999   0.198   2.139 -0.4019  1.1630  1.7975
 1330SOL    HW2 4801   6.059   0.069   2.192 -1.2545 -0.3348 -0.7176
 1331SOL     OW 4802   7.633   4.179   6.432  0.4780  0.6377  0.4812
 1331SOL    HW1 4803   7.594   4.103   6.390 -1.7403  2.2256 -0.5529
 1331SOL    HW2 4804   7.713   4.195   6.382 -0.2078  0.2876 -0.7882
 1332SOL     OW 4805   4.044   0.904   4.430 -0.2940  0.2585 -0.1822
 1332SOL    HW1 4806   3.971   0.950   4.471  0.5048 -0.5858  2.4151
 1332SOL    HW2 4807   4.121   0.956   4.452  0.1420 -0.1088 -0.8179
 1333SOL     OW 4808   2.130   7.097   2.811  1.0147 -0.2313 -0.1284
 1333SOL    HW1 4809   2.053   7.140   2.849  0.2991 -1.4645 -0.0884
 1333SOL    HW2 4810   2.193   7.093   2.883  0.2537 -1.1698  0.5197
 1334SOL     OW 4811   0.357   4.912   5.613  0.4274  0.0577  0.3402
 1334SOL    HW1 4812   0.446   4.891   5.642  0.7147 -0.8242 -1.0749
 1334SOL    HW2 4813   0.327   4.979   5.674  1.1971 -1.2569  2.2674
 1335SOL     OW 4814   5.968   2.682   1.955 -0.0645 -0.0116  0.7190
 1335SOL    HW1 4815   6.038   2.711   1.897 -0.5871 -1.1358 -0.5255
 1335SOL    HW2 4816   6.013   2.641   2.029  0.6014 -0.4505  0.0786
 1336SOL     OW 4817   3.580   3.524   2.739  0.0961  0.1930 -0.0256
 1336SOL    HW1 4818   3.557   3.433   2.760 -1.4412  0.2909 -1.1544
 1336SOL    HW2 4819   3.565   3.572   2.820 -1.0953 -0.2237  0.0155
 1337SOL     OW 4820   1.857   6.010   3.010  0.2119  0.5130 -0.1666
 1337SOL    HW1 4821   1.889   6.095   2.980 -1.0795  1.3126  0.6864
 1337SOL    HW2 4822   1.784   5.990   2.951  0.7276 -0.1953 -0.5894
 1338SOL     OW 4823   5.106   2.736   5.774 -0.2022  0.7224 -0.3870
 1338SOL    HW1 4824   5.073   2.824   5.758 -0.5831  1.0744  1.9229
 1338SOL    HW2 4825   5.134   2.737   5.866  1.6294 -1.0146 -0.8417
 1339SOL     OW 4826   6.041   1.234   4.238  0.0604  0.2835 -0.1221
 1339SOL    HW1 4827   5.999   1.252   4.322  0.3208 -0.4489  0.1682
 1339SOL    HW2 4828   6.134   1.249   4.253  0.2116 -0.6946 -0.0391
 1340SOL     OW 4829   3.497   4.267   1.230  0.0077 -0.2864  0.3175
 1340SOL    HW1 4830   3.452   4.335   1.280 -0.3515  1.4290 -2.1654
 1340SOL    HW2 4831   3.588   4.297   1.226 -0.1351  0.0285 -0.7243
 1341SOL     OW 4832   3.855   1.024   1.234 -0.5658 -0.0417  0.4612
 1341SOL    HW1 4833   3.837   1.118   1.228 -2.1402 -0.3649 -0.6984
 1341SOL    HW2 4834   3.775   0.983   1.200 -0.6012 -1.8404  2.4914
 1342SOL     OW 4835   0.939   7.136   3.010 -0.1464  0.5085 -0.0342
 1342SOL    HW1 4836   1.005   7.202   3.035 -1.2640  1.1354  1.4285
 1342SOL    HW2 4837   0.874   7.185   2.961  0.0125  0.0682 -0.6902
 1343SOL     OW 4838   2.288   0.380   2.436  0.1421  0.2645 -0.4327
 1343SOL    HW1 4839   2.290   0.397   2.530  0.0984  2.6562 -0.8003
 1343SOL    HW2 4840   2.215   0.320   2.424  0.2640 -0.2317  1.0690
 1344SOL     OW 4841   1.651   2.362   2.346  0.2142  0.4584 -0.0347
 1344SOL    HW1 4842   1.564   2.351   2.384  0.2053 -0.9343 -0.4074
 1344SOL    HW2 4843   1.661   2.287   2.287  2.7869 -1.1282  2.1476
 1345SOL     OW 4844   0.944   6.834   5.853 -0.1773 -0.2370 -0.9706
 1345SOL    HW1 4845   0.970   6.925   5.837  0.9542 -0.1972  0.7391
 1345SOL    HW2 4846   0.886   6.838   5.929 -0.1547 -0.9349 -0.9061
 1346SOL     OW 4847   6.573   4.712   2.623 -0.1143  0.8262 -0.0668
 1346SOL    HW1 4848   6.652   4.758   2.592 -0.2776 -0.5549 -2.8879
 1346SOL    HW2 4849   6.501   4.771   2.600 -0.1794  0.0909 -2.0144
 1347SOL     OW 4850   4.964   4.046   7.631 -0.4822  0.1949  0.2940
 1347SOL    HW1 4851   4.960   4.089   7.545  1.5651  2.0963  1.0427
 1347SOL    HW2 4852   5.014   3.965   7.615 -1.0925 -0.0415 -0.4794
 1348SOL     OW 4853   1.151   4.775   0.759 -0.3383  0.1103  0.0286
 1348SOL    HW1 4854   1.092   4.842   0.793 -0.8017 -0.1042 -0.3317
 1348SOL    HW2 4855   1.173   4.805   0.671  0.6985  0.5678  0.4332
 1349SOL     OW 4856   4.196   6.975   3.679 -0.3037  0.2523 -0.7961
 1349SOL    HW1 4857   4.217   7.063   3.712 -0.9722  0.1325 -0.0391
 1349SOL    HW2 4858   4.196   6.985   3.584 -0.8893  1.2075 -0.7123
 1350SOL     OW 4859   0.642   1.880   7.592  0.5815  0.2030  0.0285
 1350SOL    HW1 4860   0.617   1.909   7.504 -1.2938  0.6058  0.6600
 1350SOL    HW2 4861   0.566   1.899   7.647  0.4089 -3.1092  1.1175
 1351SOL     OW 4862   4.852   4.299   3.775  0.1800  0.1616  0.2332
 1351SOL    HW1 4863   4.794   4.231   3.809 -1.5612  1.8015  0.7564
 1351SOL    HW2 4864   4.838   4.298   3.680  2.5695 -2.2430 -0.1866
 1352SOL     OW 4865   3.947   0.888   3.206  0.0952 -0.0027  0.4971
 1352SOL    HW1 4866   4.026   0.942   3.206 -0.8586  1.4617 -0.3580
 1352SOL    HW2 4867   3.889   0.931   3.143  0.2446 -3.5146 -2.3543
 1353SOL     OW 4868   6.471   1.189   3.072 -0.1435  0.2292  0.0222
 1353SOL    HW1 4869   6.517   1.236   3.002 -1.5283  0.6710 -0.6288
 1353SOL    HW2 4870   6.467   1.099   3.041  0.1305  0.2215  0.0056
 1354SOL     OW 4871   7.130   0.513   4.454  0.0098  0.1840  0.8002
 1354SOL    HW1 4872   7.051   0.506   4.399  0.2058 -0.9295  0.6207
 1354SOL    HW2 4873   7.127   0.434   4.509  2.0860 -1.0195 -0.6949
 1355SOL     OW 4874   4.289   4.623   2.910 -0.1355  0.5323  0.2907
 1355SOL    HW1 4875   4.231   4.587   2.844 -1.1724 -0.7835  1.8382
 1355SOL    HW2 4876   4.377   4.619   2.872 -0.7093 -0.1808 -0.9721
 1356SOL     OW 4877   4.832   1.428   1.239  0.6158  0.2770 -0.6788
 1356SOL    HW1 4878   4.912   1.408   1.288 -0.0594  1.5590  1.0417
 1356SOL    HW2 4879   4.763   1.380   1.285  0.1572  0.4517 -1.1805
 1357SOL     OW 4880   3.664   1.075   0.848 -0.0029  0.3281 -0.1953
 1357SOL    HW1 4881   3.702   1.145   0.796  2.1475 -0.2454  0.4783
 1357SOL    HW2 4882   3.701   1.088   0.936 -0.8853 -0.6571  0.3428
 1358SOL     OW 4883   3.559   3.568   3.367 -0.1509  0.0448  0.4312
 1358SOL    HW1 4884   3.484   3.585   3.310 -0.6674 -0.2422  1.0152
 1358SOL    HW2 4885   3.596   3.486   3.333  0.5897  0.7623 -0.5579
 1359SOL     OW 4886   2.706   3.618   0.756  0.7619  0.5317 -0.0596
 1359SOL    HW1 4887   2.650   3.556   0.710  1.2655  0.6382 -0.8351
 1359SOL    HW2 4888   2.727   3.575   0.839 -1.0642  0.8099  0.5847
 1360SOL     OW 4889   3.882   4.350   2.320  0.1960  0.0086  0.1866
 1360SOL    HW1 4890   3.794   4.351   2.282  0.4827 -0.8428 -0.5287
 1360SOL    HW2 4891   3.904   4.257   2.329  0.8193  0.2073  0.8402
 1361SOL     OW 4892   1.598   1.531   6.341 -0.4728  0.5884  0.1671
 1361SOL    HW1 4893   1.595   1.591   6.266  0.2101  1.5192  0.8578
 1361SOL    HW2 4894   1.691   1.515   6.355 -0.6228 -0.0844  0.4286
 1362SOL     OW 4895   5.279   5.625   3.758 -0.1404  0.4768 -0.2501
 1362SOL    HW1 4896   5.301   5.704   3.710  0.6633  0.2628 -0.2431
 1362SOL    HW2 4897   5.247   5.656   3.843  2.1459  0.7710  0.5679
 1363SOL     OW 4898   0.078   0.319   1.034  0.7664 -0.1564 -0.0001
 1363SOL    HW1 4899   0.003   0.260   1.041  1.8639 -1.4746  1.4127
 1363SOL    HW2 4900   0.112   0.306   0.945  1.1586 -1.9174  0.3767
 1364SOL     OW 4901   7.064   3.201   4.698  0.3294 -0.2031  0.2879
 1364SOL    HW1 4902   7.120   3.124   4.708  0.0170 -0.7845 -2.0054
 1364SOL    HW2 4903   7.103   3.250   4.626 -0.7355  0.6574  0.2724
 1365SOL     OW 4904   5.122   4.233   6.552  0.4261 -0.2185  0.4616
 1365SOL    HW1 4905   5.067   4.251   6.628  0.5692 -0.2376  0.5713
 1365SOL    HW2 4906   5.147   4.141   6.562 -0.1650 -0.4346 -0.0086
 1366SOL     OW 4907   2.035   2.145   2.573  0.1576  0.3227 -0.1496
 1366SOL    HW1 4908   2.003   2.104   2.493 -1.9923  1.7577 -0.1076
 1366SOL    HW2 4909   2.014   2.083   2.643  0.8245 -0.3419 -0.5280
 1367SOL     OW 4910   2.748   0.704   5.165 -0.3491  0.3023  0.3772
 1367SOL    HW1 4911   2.833   0.733   5.132 -0.2791  1.1851  1.2801
 1367SOL    HW2 4912   2.768   0.624   5.214 -0.1288  0.1912  0.1107
 1368SOL     OW 4913   3.113   3.923   3.733  0.0634  0.1963  0.1644
 1368SOL    HW1 4914   3.175   3.855   3.761 -0.7689 -0.9968 -0.7909
 1368SOL    HW2 4915   3.067   3.948   3.814  1.0752  0.3868  0.7051
 1369SOL     OW 4916   0.911   2.681   7.443 -0.1917 -0.5736  0.1953
 1369SOL    HW1 4917   0.865   2.726   7.372  0.7791 -1.0586 -0.7744
 1369SOL    HW2 4918   0.954   2.607   7.400 -0.7065 -1.6885  1.5367
 1370SOL     OW 4919   4.289   7.451   6.795 -0.2767  0.8129  0.3552
 1370SOL    HW1 4920   4.206   7.412   6.766 -0.7384  0.5496  1.9650
 1370SOL    HW2 4921   4.293   7.535   6.749 -0.4452 -0.0359 -1.2829
 1371SOL     OW 4922   5.489   4.092   6.663  0.2143 -0.5301 -0.0166
 1371SOL    HW1 4923   5.463   4.126   6.578  1.0273 -1.5564 -0.6952
 1371SOL    HW2 4924   5.490   4.169   6.721  1.6923  0.5568 -1.4174
 1372SOL     OW 4925   2.292   3.138   7.431  0.1152 -0.8897  0.0832
 1372SOL    HW1 4926   2.292   3.198   7.356  0.2425 -0.9358  0.0453
 1372SOL    HW2 4927   2.289   3.195   7.508 -0.8526 -0.8568  0.0361
 1373SOL     OW 4928   2.309   0.914   5.826  0.0633 -0.0906 -0.1890
 1373SOL    HW1 4929   2.361   0.953   5.756 -0.1540  0.0607 -0.2697
 1373SOL    HW2 4930   2.373   0.874   5.885  0.2244 -0.7238 -0.7757
 1374SOL     OW 4931   5.091   5.047   3.983 -0.3699 -0.5554 -1.0000
 1374SOL    HW1 4932   5.014   4.999   4.012 -0.9600  0.1326 -1.3854
 1374SOL    HW2 4933   5.065   5.139   3.987  0.8978 -0.2184  0.1790
 1375SOL     OW 4934   0.083   1.579   2.700 -0.0915  0.7480 -0.1788
 1375SOL    HW1 4935  -0.006   1.561   2.671 -0.5473  1.5823  0.6464
 1375SOL    HW2 4936   0.125   1.620   2.624 -0.2992  0.0435 -0.6804
 1376SOL     OW 4937   7.903   7.966   4.338 -0.5324  0.1363 -0.2262
 1376SOL    HW1 4938   7.908   7.934   4.248  1.3368  0.1022 -0.1456
 1376SOL    HW2 4939   7.861   8.052   4.331 -1.5985 -0.4221 -0.9480
 1377SOL     OW 4940   5.304   7.822   7.330 -0.1415  0.1403  0.6197
 1377SOL    HW1 4941   5.356   7.808   7.251 -1.8075  0.0434 -0.5273
 1377SOL    HW2 4942   5.307   7.916   7.345 -1.0125  0.3652 -0.4704
 1378SOL     OW 4943   2.142   2.357   7.452  0.0758 -0.1760  0.1591
 1378SOL    HW1 4944   2.087   2.435   7.441 -0.2454 -0.6188 -1.7023
 1378SOL    HW2 4945   2.206   2.363   7.381 -0.5914 -2.1069 -0.6682
 1379SOL     OW 4946   3.433   5.850   0.246  0.7530 -0.2124 -0.1697
 1379SOL    HW1 4947   3.471   5.798   0.176  2.1717 -0.0734  0.4637
 1379SOL    HW2 4948   3.410   5.933   0.204  1.5871 -0.1285 -0.4771
 1380SOL     OW 4949   7.459   2.877   4.146 -0.6730  0.0686  0.6513
 1380SOL    HW1 4950   7.503   2.816   4.205 -2.3820 -2.4623 -0.4735
 1380SOL    HW2 4951   7.524   2.895   4.077  0.2521  0.5113  1.6112
 1381SOL     OW 4952   0.701   0.639   6.433 -0.4654 -0.0116  0.4760
 1381SOL    HW1 4953   0.794   0.640   6.409 -0.3381  0.2617  0.9706
 1381SOL    HW2 4954   0.655   0.657   6.350 -0.0598  0.2067  0.2945
 1382SOL     OW 4955   6.885   0.181   2.259  0.1481  0.0037  0.0514
 1382SOL    HW1 4956   6.850   0.101   2.221  0.4780 -0.4495  0.6955
 1382SOL    HW2 4957   6.813   0.215   2.313  0.3877 -0.4563  0.6674
 1383SOL     OW 4958   0.888   0.203   5.991 -0.0831 -0.0600 -0.0635
 1383SOL    HW1 4959   0.885   0.248   5.906 -2.1305  0.3974  0.2093
 1383SOL    HW2 4960   0.869   0.112   5.971  1.2205 -0.3098 -0.2728
 1384SOL     OW 4961   6.783   4.517   4.178  0.3905  0.1379  0.5447
 1384SOL    HW1 4962   6.699   4.551   4.209 -0.3720 -0.8201 -0.4176
 1384SOL    HW2 4963   6.808   4.576   4.107 -0.2545 -0.4819 -0.2098
 1385SOL     OW 4964   5.580   5.611   3.375  0.5697  0.1376  0.2320
 1385SOL    HW1 4965   5.562   5.586   3.466  2.1496  1.2728  0.9209
 1385SOL    HW2 4966   5.494   5.617   3.334 -0.1203 -1.5652  1.3038
 1386SOL     OW 4967   4.445   0.498   2.380 -0.0503  0.2851 -0.1077
 1386SOL    HW1 4968   4.522   0.552   2.363  0.3111 -0.3259 -0.4420
 1386SOL    HW2 4969   4.392   0.551   2.440  0.3261  0.9788 -0.3702
 1387SOL     OW 4970   0.971   6.385   3.564 -0.1342 -0.9937 -0.7674
 1387SOL    HW1 4971   0.948   6.470   3.602  1.2187 -0.1659 -1.7217
 1387SOL    HW2 4972   0.926   6.385   3.479  3.7159  1.0409 -3.0853
 1388SOL     OW 4973   4.055   1.967   6.465  0.3922  0.0553 -0.1170
 1388SOL    HW1 4974   4.147   1.970   6.493  0.1148 -0.1926  0.8788
 1388SOL    HW2 4975   4.005   1.977   6.546 -0.4936  2.7643 -0.9038
 1389SOL     OW 4976   6.927   1.395   1.581 -0.5932  0.1597 -0.5153
 1389SOL    HW1 4977   6.999   1.366   1.636 -0.8801 -0.2153 -0.3316
 1389SOL    HW2 4978   6.929   1.335   1.506 -0.0723  0.8001 -1.0182
 1390SOL     OW 4979   3.540   2.736   7.245 -0.4569  0.5723  0.3552
 1390SOL    HW1 4980   3.462   2.776   7.206  0.4565  0.9254 -1.1785
 1390SOL    HW2 4981   3.611   2.795   7.224  0.5927 -0.8152 -0.1664
 1391SOL     OW 4982   2.861   6.194   2.657 -0.0699  0.3486 -0.1144
 1391SOL    HW1 4983   2.802   6.185   2.583 -1.2586  0.4716  0.7775
 1391SOL    HW2 4984   2.916   6.270   2.635 -0.7077  0.6600 -0.6709
 1392SOL     OW 4985   5.654   7.378   4.839  0.2654 -0.2249 -0.2498
 1392SOL    HW1 4986   5.693   7.458   4.872  0.5355 -0.8979  1.1308
 1392SOL    HW2 4987   5.594   7.349   4.908 -2.6922  0.6974 -2.2246
 1393SOL     OW 4988   5.666   6.267   0.737  0.0655  0.3862  0.5549
 1393SOL    HW1 4989   5.755   6.279   0.704  0.5640  0.2505  1.7874
 1393SOL    HW2 4990   5.675   6.203   0.807 -0.7943  1.2614  1.5006
 1394SOL     OW 4991   7.615   6.585   0.588 -0.1363  0.3028 -0.1537
 1394SOL    HW1 4992   7.545   6.650   0.595 -0.0776  0.2588  1.2192
 1394SOL    HW2 4993   7.691   6.627   0.629  0.8681  0.5984 -2.2053
 1395SOL     OW 4994   3.722   5.051   1.365 -0.8399  0.0403 -0.1582
 1395SOL    HW1 4995   3.757   4.962   1.367 -2.0615 -0.4785 -0.6048
 1395SOL    HW2 4996   3.696   5.069   1.455 -1.2646 -0.3491 -0.1988
 1396SOL     OW 4997   7.489   6.036   7.585 -0.1033 -0.3620  0.4539
 1396SOL    HW1 4998   7.416   6.057   7.643  0.1224  1.1165  0.2446
 1396SOL    HW2 4999   7.448   5.996   7.508 -0.4386 -1.9479  1.4205
 1397SOL     OW 5000   6.635   2.472   3.808 -0.5900  0.4610 -0.2169
 1397SOL    HW1 5001   6.580   2.524   3.749 -0.0203 -0.6917 -1.8415
 1397SOL    HW2 5002   6.724   2.487   3.777 -0.2499  0.0298  0.5277
 1398SOL     OW 5003   7.955   0.226   7.961  0.2417  0.0217  0.2198
 1398SOL    HW1 5004   7.875   0.250   7.913  0.8183 -1.0383 -1.3597
 1398SOL    HW2 5005   7.975   0.303   8.015 -0.0845  1.5809 -1.7572
 1399SOL     OW 5006   5.597   0.426   2.607 -0.1166  0.1822 -0.1901
 1399SOL    HW1 5007   5.523   0.378   2.570 -0.8793  1.3245 -0.2174
 1399SOL    HW2 5008   5.578   0.432   2.701  0.0445  0.2854 -0.1634
 1400SOL     OW 5009   5.626   4.297   2.873  0.4748 -0.0836  0.2193
 1400SOL    HW1 5010   5.699   4.254   2.918  1.2714  0.7600 -0.2217
 1400SOL    HW2 5011   5.582   4.347   2.942 -0.2738 -1.3204  0.6726
 1401SOL     OW 5012   0.042   4.286   2.712  0.7230  0.2627  0.2224
 1401SOL    HW1 5013  -0.044   4.244   2.721  1.5753 -1.6017  0.0873
 1401SOL    HW2 5014   0.072   4.263   2.625  1.9987 -0.3781  0.8041
 1402SOL     OW 5015   2.324   4.435   4.878 -0.0325  0.2172 -0.0588
 1402SOL    HW1 5016   2.413   4.413   4.905  0.2834 -0.9863 -1.9098
 1402SOL    HW2 5017   2.281   4.465   4.958  1.4195 -1.1905  1.3079
 1403SOL     OW 5018   6.781   2.904   0.551 -0.1276 -0.3359 -0.2658
 1403SOL    HW1 5019   6.700   2.955   0.554 -0.4911 -0.9286  0.1822
 1403SOL    HW2 5020   6.752   2.813   0.554  0.5690 -0.5490  0.1186
 1404SOL     OW 5021   7.339   6.116   7.352  0.2773 -0.0106  0.2292
 1404SOL    HW1 5022   7.272   6.181   7.335  0.3558 -0.3028 -1.3301
 1404SOL    HW2 5023   7.421   6.164   7.348  0.2943 -0.0748 -0.2475
 1405SOL     OW 5024   2.973   6.273   0.891  0.6594  0.6456 -0.8208
 1405SOL    HW1 5025   3.010   6.270   0.802  1.1636  0.0178 -0.5985
 1405SOL    HW2 5026   2.889   6.228   0.883  1.3836 -0.7948 -0.6818
 1406SOL     OW 5027   0.716   5.062   7.298 -0.1361  0.6959  0.2565
 1406SOL    HW1 5028   0.690   5.004   7.370  0.0307  1.8453  1.2609
 1406SOL    HW2 5029   0.812   5.059   7.299 -0.0966  1.7194  0.9458
 1407SOL     OW 5030   5.950   6.454   5.496  0.5955 -0.7496 -0.2846
 1407SOL    HW1 5031   6.020   6.506   5.535  1.6702 -0.2275 -2.7395
 1407SOL    HW2 5032   5.970   6.364   5.521 -0.1126 -0.2782  2.2645
 1408SOL     OW 5033   2.333   2.915   3.561  0.8425 -0.4035  0.2248
 1408SOL    HW1 5034   2.427   2.912   3.545  1.0723 -0.0014  1.3810
 1408SOL    HW2 5035   2.293   2.900   3.476  1.9561 -0.3816 -0.3132
 1409SOL     OW 5036   7.293   2.772   7.711 -0.2117  0.1022 -0.6776
 1409SOL    HW1 5037   7.306   2.747   7.619  0.4748  0.1391 -0.5949
 1409SOL    HW2 5038   7.366   2.831   7.730 -1.0235  1.0492 -0.4497
 1410SOL     OW 5039   0.102   2.339   7.453 -0.1030  0.1165  0.0320
 1410SOL    HW1 5040   0.095   2.311   7.544 -3.1171  1.1799  0.2208
 1410SOL    HW2 5041   0.122   2.433   7.459 -0.0315  0.1323 -0.4149
 1411SOL     OW 5042   7.691   3.253   3.996 -0.4104 -0.6788  0.4016
 1411SOL    HW1 5043   7.622   3.293   3.943 -0.7868 -1.4993  0.2664
 1411SOL    HW2 5044   7.702   3.313   4.070 -1.0743 -0.3998  0.2815
 1412SOL     OW 5045   2.766   1.113   4.338 -0.4630 -0.3112  0.3065
 1412SOL    HW1 5046   2.702   1.182   4.351 -0.5810 -0.2882 -0.3430
 1412SOL    HW2 5047   2.767   1.099   4.243  1.9338  1.0744  0.0470
 1413SOL     OW 5048   7.327   4.088   5.845 -0.0235 -0.1613  0.0742
 1413SOL    HW1 5049   7.389   4.142   5.894 -0.9446 -1.3291  2.7291
 1413SOL    HW2 5050   7.347   3.998   5.873 -1.4639 -0.7470 -0.7123
 1414SOL     OW 5051   0.964   3.720   0.357 -0.1976 -0.4045 -0.0329
 1414SOL    HW1 5052   0.970   3.798   0.302  1.2136 -1.2268 -1.1153
 1414SOL    HW2 5053   1.054   3.703   0.385 -0.6988 -0.7857  1.4573
 1415SOL     OW 5054   2.283   5.214   3.633  0.3783 -0.0919 -0.2328
 1415SOL    HW1 5055   2.367   5.177   3.662 -0.8024 -2.9555 -0.1428
 1415SOL    HW2 5056   2.229   5.215   3.712  0.0712  0.9817 -0.4491
 1416SOL     OW 5057   1.745   4.641   3.550 -0.0457  0.3285 -0.2884
 1416SOL    HW1 5058   1.714   4.595   3.471  2.4330 -0.9575 -0.6235
 1416SOL    HW2 5059   1.709   4.729   3.542 -1.1158 -0.2122 -2.0682
 1417SOL     OW 5060   5.302   1.201   0.084 -0.1061 -0.1005 -0.0578
 1417SOL    HW1 5061   5.228   1.194   0.144  0.8158  1.7063  1.4278
 1417SOL    HW2 5062   5.375   1.227   0.140  1.3878 -0.6955 -1.6428
 1418SOL     OW 5063   3.615   2.409   2.298 -0.2209  0.2883 -0.6515
 1418SOL    HW1 5064   3.594   2.390   2.390 -0.1563 -0.7010 -0.8367
 1418SOL    HW2 5065   3.588   2.500   2.286 -2.0688 -0.1738 -0.1988
 1419SOL     OW 5066   0.201   0.400   4.889  0.1442 -0.0802  0.4115
 1419SOL    HW1 5067   0.170   0.467   4.828  1.5808  2.0911  1.9253
 1419SOL    HW2 5068   0.137   0.403   4.961  1.1524  0.9848  1.2999
 1420SOL     OW 5069   6.730   0.614   4.365  0.2537  0.3309 -0.1104
 1420SOL    HW1 5070   6.643   0.622   4.406  0.0005  1.6276 -0.8576
 1420SOL    HW2 5071   6.719   0.654   4.279  0.8602 -2.0582 -1.3857
 1421SOL     OW 5072   2.922   7.133   0.921  0.1708 -0.2488 -0.1772
 1421SOL    HW1 5073   2.850   7.083   0.961  0.1522  0.9752  1.4363
 1421SOL    HW2 5074   2.999   7.106   0.970  0.2820  0.7117  0.2019
 1422SOL     OW 5075   0.172   5.369   1.574  0.8318 -0.0358 -0.2269
 1422SOL    HW1 5076   0.165   5.285   1.529 -0.1047 -0.6251  0.9401
 1422SOL    HW2 5077   0.180   5.434   1.505 -1.1984 -0.8329 -1.2812
 1423SOL     OW 5078   4.533   6.715   2.886  0.0578 -0.0501  0.6394
 1423SOL    HW1 5079   4.462   6.718   2.822  0.1549  0.5500  0.5478
 1423SOL    HW2 5080   4.599   6.774   2.850  0.3924 -0.2226  0.9670
 1424SOL     OW 5081   0.507   5.835   6.602 -0.3444 -0.5117 -0.5632
 1424SOL    HW1 5082   0.588   5.788   6.621 -0.5409 -0.5760  0.1453
 1424SOL    HW2 5083   0.511   5.912   6.659  0.2265  0.6331 -2.0978
 1425SOL     OW 5084   2.934   0.542   5.898 -0.0757  0.6144 -0.2861
 1425SOL    HW1 5085   3.004   0.530   5.963  0.7027 -1.7379 -1.4606
 1425SOL    HW2 5086   2.980   0.554   5.815 -1.0749  1.4569 -0.7396
 1426SOL     OW 5087   6.877   6.497   7.012 -0.4001  0.2041 -0.6391
 1426SOL    HW1 5088   6.854   6.445   7.089  0.0285 -0.0998 -0.7156
 1426SOL    HW2 5089   6.794   6.509   6.966 -0.4106 -0.9767 -0.9714
 1427SOL     OW 5090   1.643   4.444   6.153  0.3068 -0.1131  0.3121
 1427SOL    HW1 5091   1.631   4.519   6.211 -0.3985 -0.3386  0.4660
 1427SOL    HW2 5092   1.558   4.433   6.110  0.4291 -0.7689  0.2275
 1428SOL     OW 5093   7.144   0.503   5.217  0.5199  0.2386 -0.1835
 1428SOL    HW1 5094   7.061   0.545   5.195 -0.2262 -0.1892  1.5893
 1428SOL    HW2 5095   7.120   0.412   5.236  1.4894 -0.0308 -0.1810
 1429SOL     OW 5096   2.826   5.643   0.369 -0.5438 -0.3390 -0.2826
 1429SOL    HW1 5097   2.778   5.717   0.407 -0.4788 -0.2653 -0.3439
 1429SOL    HW2 5098   2.759   5.576   0.357 -0.6137 -0.2719 -0.2748
 1430SOL     OW 5099   6.923   0.985   6.984  0.1897 -0.3884 -0.2573
 1430SOL    HW1 5100   6.898   0.988   6.891 -0.1774 -1.9462 -0.2372
 1430SOL    HW2 5101   6.883   0.904   7.017 -0.0217  0.3443  1.3711
 1431SOL     OW 5102   3.364   0.935   4.425 -0.0183  0.3513  0.2596
 1431SOL    HW1 5103   3.296   0.887   4.471  1.0009 -0.4102  1.0168
 1431SOL    HW2 5104   3.346   1.027   4.445 -1.3297  0.2257 -0.2867
 1432SOL     OW 5105   0.080   1.185   1.875 -0.2403 -0.1826 -0.0070
 1432SOL    HW1 5106   0.061   1.219   1.787 -0.6077  1.2133  0.5713
 1432SOL    HW2 5107   0.142   1.114   1.861  0.7306  0.8639 -1.3050
 1433SOL     OW 5108   0.288   0.087   1.864  0.5003  0.1331 -0.4082
 1433SOL    HW1 5109   0.286   0.111   1.772 -1.4508 -0.5893 -0.6079
 1433SOL    HW2 5110   0.333   0.002   1.866 -0.9022 -0.6460 -0.9384
 1434SOL     OW 5111   3.676   6.433   6.587 -0.6943  1.0944 -0.3661
 1434SOL    HW1 5112   3.648   6.464   6.501 -2.3361  0.1025 -0.2454
 1434SOL    HW2 5113   3.648   6.502   6.648  3.1065  3.2531 -0.7847
 1435SOL     OW 5114   3.083   1.601   6.646  0.3639 -0.2121 -0.0369
 1435SOL    HW1 5115   3.139   1.534   6.606  0.4226 -2.0324  2.8188
 1435SOL    HW2 5116   3.144   1.655   6.698 -0.0772  0.0833  0.1793
 1436SOL     OW 5117   6.648   6.058   0.071  0.4581 -0.4439  0.1167
 1436SOL    HW1 5118   6.602   5.986   0.113 -1.6578  1.3419  1.0754
 1436SOL    HW2 5119   6.731   6.065   0.118  1.5367 -3.2683 -1.1414
 1437SOL     OW 5120   2.695   0.029   1.341  0.2750 -0.4968 -0.0403
 1437SOL    HW1 5121   2.728  -0.031   1.409  1.4483  0.7292  0.5221
 1437SOL    HW2 5122   2.699  -0.023   1.260  0.8272 -1.3390  0.4998
 1438SOL     OW 5123   0.879   6.736   7.690  0.0689  0.0715 -0.3552
 1438SOL    HW1 5124   0.938   6.811   7.688 -1.4739  1.3394 -1.2535
 1438SOL    HW2 5125   0.920   6.672   7.632  0.7161  0.7959 -0.7208
 1439SOL     OW 5126   4.202   1.596   4.287 -0.0198  0.2196 -0.4351
 1439SOL    HW1 5127   4.262   1.521   4.283  0.0538  0.3217 -2.1075
 1439SOL    HW2 5128   4.146   1.585   4.210 -1.2692  0.8601  0.3684
 1440SOL     OW 5129   6.438   0.267   7.029  0.0780 -0.4158  0.2637
 1440SOL    HW1 5130   6.385   0.220   6.965 -0.6972  1.3233 -0.4455
 1440SOL    HW2 5131   6.525   0.273   6.990 -0.5408  1.1668 -0.9706
 1441SOL     OW 5132   3.165   3.177   1.198  0.4069  0.6069 -0.0343
 1441SOL    HW1 5133   3.084   3.160   1.246 -0.1132 -0.3554 -1.2141
 1441SOL    HW2 5134   3.225   3.109   1.229  0.4812  0.7695  0.1812
 1442SOL     OW 5135   3.743   7.947   3.458 -1.1368 -0.0164 -0.0873
 1442SOL    HW1 5136   3.689   8.010   3.505 -0.9269 -0.6723  1.0891
 1442SOL    HW2 5137   3.740   7.868   3.512  1.2935  0.0354  0.2388
 1443SOL     OW 5138   7.739   2.940   3.232  0.2965  0.0101  0.6138
 1443SOL    HW1 5139   7.820   2.903   3.197 -0.0851  1.1602 -1.6663
 1443SOL    HW2 5140   7.733   3.027   3.193 -0.7403  1.0039  2.8200
 1444SOL     OW 5141   0.255   7.428   1.001  0.3790  0.0028  0.1665
 1444SOL    HW1 5142   0.311   7.485   1.054  1.5069 -0.1107 -0.8653
 1444SOL    HW2 5143   0.315   7.369   0.957 -0.5690 -0.2575 -0.8259
 1445SOL     OW 5144   5.274   6.181   4.706  0.0633 -0.0384 -0.0352
 1445SOL    HW1 5145   5.344   6.198   4.770 -0.3799  1.0605  0.1689
 1445SOL    HW2 5146   5.320   6.144   4.630  0.7061 -0.4794  0.5491
 1446SOL     OW 5147   3.208   0.143   5.955  0.3626 -0.9829 -0.4510
 1446SOL    HW1 5148   3.117   0.116   5.969  0.2397  0.1422  1.2943
 1446SOL    HW2 5149   3.260   0.065   5.972 -0.2209 -1.3365 -0.2572
 1447SOL     OW 5150   5.271   2.894   7.799 -0.1966  0.4326  0.1377
 1447SOL    HW1 5151   5.352   2.906   7.750 -0.5357  1.7731 -0.1241
 1447SOL    HW2 5152   5.203   2.891   7.732 -0.4821  0.4721  0.4241
 1448SOL     OW 5153   7.677   6.626   4.440 -0.1028  0.3328  0.8894
 1448SOL    HW1 5154   7.664   6.574   4.520  1.2355 -0.8490  0.3822
 1448SOL    HW2 5155   7.684   6.716   4.471 -0.3668 -0.0141  2.0224
 1449SOL     OW 5156   2.961   4.888   6.785  0.1608  0.2480 -0.5047
 1449SOL    HW1 5157   2.941   4.914   6.874  0.9483 -0.3636 -0.1324
 1449SOL    HW2 5158   2.877   4.893   6.739 -0.1082  1.2973  0.0693
 1450SOL     OW 5159   2.312   7.199   4.398  0.1985  0.3194 -0.3690
 1450SOL    HW1 5160   2.319   7.258   4.323 -1.3832  0.8563 -0.1267
 1450SOL    HW2 5161   2.346   7.250   4.471  1.1945  0.0042 -0.5976
 1451SOL     OW 5162   3.018   0.382   5.623  0.8898  0.0902 -0.0149
 1451SOL    HW1 5163   2.959   0.306   5.622 -0.0045  0.7587  0.6504
 1451SOL    HW2 5164   2.992   0.432   5.546 -0.0904  0.8682  0.7928
 1452SOL     OW 5165   7.832   2.076   6.392  0.1290  0.6957 -0.2278
 1452SOL    HW1 5166   7.866   2.058   6.479 -0.4850 -0.9791 -0.2860
 1452SOL    HW2 5167   7.792   2.163   6.399  1.7060  1.3952  0.6224
 1453SOL     OW 5168   7.782   4.996   7.437  0.4252  0.0562  0.3012
 1453SOL    HW1 5169   7.817   4.925   7.383 -1.1688 -0.1051 -0.5698
 1453SOL    HW2 5170   7.824   5.075   7.402 -1.7857  0.1791 -2.4022
 1454SOL     OW 5171   4.959   6.687   7.474  0.4422 -0.3414  0.2846
 1454SOL    HW1 5172   5.008   6.607   7.497  0.2474 -0.3594  0.6463
 1454SOL    HW2 5173   5.000   6.755   7.527  0.6709 -0.1807 -0.0960
 1455SOL     OW 5174   3.053   7.740   0.106 -0.1884 -0.0884  0.1013
 1455SOL    HW1 5175   3.106   7.807   0.063  0.6520 -2.0109 -2.0733
 1455SOL    HW2 5176   3.078   7.745   0.198  0.7743  1.7312 -0.2183
 1456SOL     OW 5177   1.068   1.903   0.056 -0.7239  0.0864  0.1427
 1456SOL    HW1 5178   1.075   1.846   0.132 -0.0568  1.8670  1.4683
 1456SOL    HW2 5179   1.124   1.862  -0.010  1.2371  0.1749  1.6881
 1457SOL     OW 5180   5.005   3.406   2.473 -0.5592  0.5640  0.3586
 1457SOL    HW1 5181   4.995   3.420   2.378 -2.0869 -0.5412  0.3319
 1457SOL    HW2 5182   5.100   3.408   2.487 -0.2400 -0.3267 -1.3798
 1458SOL     OW 5183   1.674   6.715   5.367 -0.2122 -0.0315 -0.0463
 1458SOL    HW1 5184   1.723   6.763   5.435 -1.3114  0.1707  0.6324
 1458SOL    HW2 5185   1.729   6.721   5.289  0.6291  0.5764  0.5719
 1459SOL     OW 5186   4.864   1.038   1.673  0.1924 -0.3111  0.6383
 1459SOL    HW1 5187   4.934   0.986   1.712  1.2508  0.7420  0.2083
 1459SOL    HW2 5188   4.831   1.091   1.745  1.7581  1.2138  0.3058
 1460SOL     OW 5189   7.385   4.321   7.852  0.4623  0.1468 -0.3453
 1460SOL    HW1 5190   7.325   4.247   7.862  0.4794  0.0750 -0.7623
 1460SOL    HW2 5191   7.362   4.380   7.924 -0.3462  0.2846 -0.7042
 1461SOL     OW 5192   1.804   5.887   6.264 -0.6381 -0.3191  0.1126
 1461SOL    HW1 5193   1.735   5.849   6.318 -0.4956 -1.1469 -0.2732
 1461SOL    HW2 5194   1.840   5.958   6.317 -1.8091  0.1442  0.2978
 1462SOL     OW 5195   2.129   5.320   1.395  0.2156  0.2849 -0.1957
 1462SOL    HW1 5196   2.201   5.309   1.333  0.5168 -2.0408  0.4688
 1462SOL    HW2 5197   2.166   5.372   1.466  0.2684  1.7939 -1.2810
 1463SOL     OW 5198   6.823   7.931   7.357 -0.3535  0.3171 -0.0209
 1463SOL    HW1 5199   6.771   7.857   7.389  2.5647 -1.0719  1.9461
 1463SOL    HW2 5200   6.806   8.001   7.420 -2.2280  1.0184 -1.2317
 1464SOL     OW 5201   2.218   1.142   2.782  1.0921  0.4381  0.1366
 1464SOL    HW1 5202   2.190   1.175   2.696  0.6788 -1.6344 -0.5798
 1464SOL    HW2 5203   2.189   1.209   2.844 -0.2237  1.1364 -1.1673
 1465SOL     OW 5204   6.912   4.905   3.112  0.3930 -0.2664  0.3490
 1465SOL    HW1 5205   6.845   4.854   3.067  0.9935 -1.2151  0.5201
 1465SOL    HW2 5206   6.942   4.849   3.183  0.7055  0.5272  0.8609
 1466SOL     OW 5207   6.351   4.201   2.839 -0.0112 -0.0176  0.3167
 1466SOL    HW1 5208   6.262   4.174   2.862  0.5563 -1.6031  0.8349
 1466SOL    HW2 5209   6.406   4.156   2.904  1.2700 -0.4351 -1.0251
 1467SOL     OW 5210   0.357   7.456   0.100 -0.1734  0.0532 -0.4850
 1467SOL    HW1 5211   0.295   7.442   0.172  0.7282  1.5740  0.6590
 1467SOL    HW2 5212   0.410   7.530   0.129  2.1465 -1.1442 -1.4503
 1468SOL     OW 5213   4.006   6.524   3.578 -0.2128 -0.2631  0.1536
 1468SOL    HW1 5214   3.948   6.463   3.533 -0.0876  0.1806 -0.6227
 1468SOL    HW2 5215   3.982   6.516   3.671 -0.2430 -1.4240  0.0498
 1469SOL     OW 5216   5.345   4.369   3.977 -0.6881  0.4777  0.9333
 1469SOL    HW1 5217   5.325   4.460   3.997  0.1391  0.5255  1.6096
 1469SOL    HW2 5218   5.440   4.363   3.985 -0.8585 -0.8402  2.7187
 1470SOL     OW 5219   2.584   0.683   4.391  0.0768 -0.1445  0.3583
 1470SOL    HW1 5220   2.631   0.658   4.471 -0.6968 -1.1306  0.5172
 1470SOL    HW2 5221   2.501   0.720   4.423  0.3006  0.6451  0.0450
 1471SOL     OW 5222   0.550   6.943   4.229 -0.2770 -0.0187  0.4248
 1471SOL    HW1 5223   0.469   6.992   4.246 -0.3064 -0.5351  1.9060
 1471SOL    HW2 5224   0.620   7.008   4.244 -0.3504 -0.1561  1.4349
 1472SOL     OW 5225   4.392   1.451   0.974  0.0108 -0.2989  0.1854
 1472SOL    HW1 5226   4.446   1.408   1.040 -0.9531 -2.9226 -0.6082
 1472SOL    HW2 5227   4.303   1.420   0.992 -0.7196  1.2397 -0.5993
 1473SOL     OW 5228   2.988   0.578   7.720 -0.3715  0.7995  0.4706
 1473SOL    HW1 5229   2.895   0.585   7.740 -0.7358  1.5770 -1.2749
 1473SOL    HW2 5230   3.004   0.484   7.712 -2.1849  0.6271 -3.7851
 1474SOL     OW 5231   3.960   2.719   2.613  0.3196  0.0870 -0.3338
 1474SOL    HW1 5232   3.984   2.801   2.570  0.6922 -0.0196 -0.3370
 1474SOL    HW2 5233   4.008   2.721   2.696  0.3558 -0.1413 -0.3483
 1475SOL     OW 5234   6.053   0.746   5.043 -0.0363  0.3030  0.2064
 1475SOL    HW1 5235   6.121   0.679   5.041 -0.1562  0.1857 -1.9168
 1475SOL    HW2 5236   6.011   0.735   5.128  0.8621 -1.3850  0.4726
 1476SOL     OW 5237   6.087   5.140   7.292  0.1011 -0.1926 -0.2697
 1476SOL    HW1 5238   6.157   5.194   7.255  0.4826  0.1348  0.8992
 1476SOL    HW2 5239   6.129   5.056   7.310  0.6386  0.4830  1.8724
 1477SOL     OW 5240   1.148   2.507   1.462  0.1398 -0.0876 -0.2727
 1477SOL    HW1 5241   1.163   2.601   1.458 -0.1971  0.1605  2.3372
 1477SOL    HW2 5242   1.129   2.481   1.372 -0.4391  2.4527 -0.9459
 1478SOL     OW 5243   5.258   8.001   1.743 -0.2434 -0.0067  0.1750
 1478SOL    HW1 5244   5.303   7.928   1.787 -1.7951 -2.2425 -1.6986
 1478SOL    HW2 5245   5.184   8.021   1.801 -0.3426 -0.5737  0.2536
 1479SOL     OW 5246   4.566   3.819   3.817  0.5827  0.4620  0.6350
 1479SOL    HW1 5247   4.568   3.871   3.898  1.9071  0.5151  0.5866
 1479SOL    HW2 5248   4.656   3.787   3.807  0.2320 -0.2561 -0.3662
 1480SOL     OW 5249   0.813   6.063   6.589  0.1049 -0.6738 -0.2326
 1480SOL    HW1 5250   0.871   6.132   6.558  0.7436 -0.1037  2.0387
 1480SOL    HW2 5251   0.868   5.985   6.594 -0.4923 -1.2815 -2.3157
 1481SOL     OW 5252   3.875   3.020   2.731 -0.0434  0.1033 -0.0161
 1481SOL    HW1 5253   3.937   2.954   2.762 -0.4340 -0.1708  0.1923
 1481SOL    HW2 5254   3.925   3.071   2.667  0.0125 -0.9330 -0.8374
 1482SOL     OW 5255   3.086   1.042   4.078  0.7426  0.0979 -0.3839
 1482SOL    HW1 5256   3.138   1.107   4.126 -0.5480  0.6284  0.3593
 1482SOL    HW2 5257   3.120   1.046   3.988 -0.0591  2.6879 -0.6582
 1483SOL     OW 5258   6.304   5.414   5.533 -0.3863 -0.3567 -0.0008
 1483SOL    HW1 5259   6.393   5.447   5.542 -0.1102 -0.6842 -1.3140
 1483SOL    HW2 5260   6.310   5.321   5.553 -0.7777 -0.0609  1.6282
 1484SOL     OW 5261   1.614   7.701   1.743 -0.0890  0.2581  0.0928
 1484SOL    HW1 5262   1.709   7.686   1.739 -0.2044 -0.3677 -0.5425
 1484SOL    HW2 5263   1.590   7.727   1.654 -0.7088 -0.8976 -0.0974
 1485SOL     OW 5264   3.830   7.036   3.670 -0.4549 -0.3780 -0.0127
 1485SOL    HW1 5265   3.895   6.995   3.612  0.0191  1.2338 -0.6796
 1485SOL    HW2 5266   3.854   7.005   3.757  0.3334 -0.9344 -0.4081
 1486SOL     OW 5267   4.835   3.229   2.606  0.2616  0.9657  0.4503
 1486SOL    HW1 5268   4.878   3.297   2.554  1.0872  1.4913  1.7746
 1486SOL    HW2 5269   4.780   3.182   2.543  2.1164  0.8078 -1.1502
 1487SOL     OW 5270   7.812   2.739   0.007  0.0651  0.0698 -0.0934
 1487SOL    HW1 5271   7.718   2.749  -0.004  0.1106 -0.0840 -0.6660
 1487SOL    HW2 5272   7.847   2.737  -0.083  0.4696 -1.2186  0.0704
 1488SOL     OW 5273   3.424   4.483   4.026  0.2380 -0.4525  0.0528
 1488SOL    HW1 5274   3.432   4.400   4.073  1.1576 -1.7755 -2.2561
 1488SOL    HW2 5275   3.332   4.488   4.000  0.2985 -1.0571 -0.2885
 1489SOL     OW 5276   2.649   7.206   0.562 -0.4360 -0.3064 -0.2282
 1489SOL    HW1 5277   2.555   7.191   0.552 -0.1538 -2.6431  0.0053
 1489SOL    HW2 5278   2.662   7.215   0.657 -0.5875  1.6783 -0.3573
 1490SOL     OW 5279   2.779   2.222   2.744  0.2113  0.1534 -0.5478
 1490SOL    HW1 5280   2.773   2.215   2.839 -0.8943 -1.4288 -0.6792
 1490SOL    HW2 5281   2.851   2.283   2.728  0.8912 -0.1092  1.2875
 1491SOL     OW 5282   6.382   0.837   0.064 -0.0114 -0.4090  0.0949
 1491SOL    HW1 5283   6.462   0.809   0.109 -0.0405  0.3163  0.6062
 1491SOL    HW2 5284   6.321   0.764   0.077 -0.5780  0.4192  2.6905
 1492SOL     OW 5285   2.181   1.799   6.120  0.1376  0.3463 -0.2115
 1492SOL    HW1 5286   2.258   1.839   6.159  0.6723 -0.9256  0.0699
 1492SOL    HW2 5287   2.208   1.777   6.031 -0.1869  0.6936 -0.3996
 1493SOL     OW 5288   1.183   4.974   1.616 -0.0250 -0.1120 -0.1202
 1493SOL    HW1 5289   1.149   5.027   1.689 -4.0106 -1.4690 -0.7342
 1493SOL    HW2 5290   1.228   4.901   1.659 -2.4828 -0.9980  1.1364
 1494SOL     OW 5291   2.032   4.800   6.613 -0.6898 -0.1200  0.9203
 1494SOL    HW1 5292   2.018   4.754   6.696  1.0264  1.0525  1.9263
 1494SOL    HW2 5293   2.079   4.880   6.637 -1.3521  0.9481 -1.0498
 1495SOL     OW 5294   6.111   7.756   0.115 -0.0175  0.4331 -0.4100
 1495SOL    HW1 5295   6.048   7.726   0.050 -0.3061  3.1526 -1.5171
 1495SOL    HW2 5296   6.196   7.738   0.076 -0.1777  2.9222 -2.1279
 1496SOL     OW 5297   7.498   3.646   7.700  0.5862  0.1861  0.0590
 1496SOL    HW1 5298   7.497   3.550   7.699 -1.0003  0.1823  0.1142
 1496SOL    HW2 5299   7.590   3.668   7.713  0.8408 -1.3426  1.1704
 1497SOL     OW 5300   1.731   0.340   2.281  0.3943  0.6989 -0.2282
 1497SOL    HW1 5301   1.752   0.339   2.374 -0.9713 -0.9298  0.1317
 1497SOL    HW2 5302   1.782   0.268   2.244 -0.3367  0.2468 -0.3875
 1498SOL     OW 5303   2.681   1.016   4.953  0.2804 -0.5325 -0.5594
 1498SOL    HW1 5304   2.774   1.008   4.972  0.3232 -0.2961 -0.6744
 1498SOL    HW2 5305   2.656   0.930   4.918  0.2871 -0.8444  0.1774
 1499SOL     OW 5306   6.514   3.280   7.228  0.7933 -0.4966 -0.4504
 1499SOL    HW1 5307   6.586   3.280   7.165 -0.8765  0.1612 -2.4814
 1499SOL    HW2 5308   6.481   3.370   7.226 -0.9558 -1.1114 -0.6599
 1500SOL     OW 5309   3.390   6.316   2.023  0.0962 -0.1210  0.6734
 1500SOL    HW1 5310   3.380   6.389   2.083  0.0692  0.3561  0.0940
 1500SOL    HW2 5311   3.304   6.273   2.023 -0.2567  0.5566  0.1126
 1501SOL     OW 5312   7.284   0.978   7.791  0.3287  0.1407  0.0556
 1501SOL    HW1 5313   7.260   0.967   7.883  0.7138 -0.1939  0.1192
 1501SOL    HW2 5314   7.232   0.913   7.745  0.0641  0.3741  0.0270
 1502SOL     OW 5315   4.155   0.436   0.210  0.2420  0.4389 -0.2152
 1502SOL    HW1 5316   4.230   0.388   0.244  0.5789 -1.3078 -3.0389
 1502SOL    HW2 5317   4.179   0.455   0.119 -2.7350 -0.2349 -1.2326
 1503SOL     OW 5318   5.314   5.658   5.772 -0.0495  0.7302  0.0021
 1503SOL    HW1 5319   5.341   5.573   5.735 -1.8774  0.2838 -0.3790
 1503SOL    HW2 5320   5.357   5.661   5.857  1.9968  0.5326 -0.9497
 1504SOL     OW 5321   0.382   0.988   6.275  0.0537 -0.5600 -0.1675
 1504SOL    HW1 5322   0.450   1.056   6.272  1.6876 -2.0115  1.2703
 1504SOL    HW2 5323   0.430   0.906   6.262 -1.9640 -1.4700 -2.7623
 1505SOL     OW 5324   4.855   0.644   1.693 -0.0740  0.5390 -0.1068
 1505SOL    HW1 5325   4.763   0.671   1.697 -0.2000  0.0016  0.7998
 1505SOL    HW2 5326   4.857   0.573   1.630 -0.4715 -0.1421  0.6306
 1506SOL     OW 5327   3.228   1.276   3.090  0.0242  0.4086  0.1594
 1506SOL    HW1 5328   3.161   1.314   3.146 -1.8869 -1.1921 -0.8925
 1506SOL    HW2 5329   3.260   1.349   3.036 -2.0534  0.9549 -0.4136
 1507SOL     OW 5330   7.373   1.407   4.376  0.1447  0.0444  0.2095
 1507SOL    HW1 5331   7.327   1.363   4.304 -0.4119  1.2245 -0.1760
 1507SOL    HW2 5332   7.379   1.340   4.445 -2.5300 -0.0533  0.4427
 1508SOL     OW 5333   5.881   6.537   3.929  0.0572  0.1952 -0.2470
 1508SOL    HW1 5334   5.925   6.547   3.845  1.6411  0.8462  0.6120
 1508SOL    HW2 5335   5.952   6.529   3.992 -1.0897  0.4674  1.1225
 1509SOL     OW 5336   5.297   1.974   5.020  0.2819 -0.0476  0.2020
 1509SOL    HW1 5337   5.235   1.967   4.947  0.2729 -1.4229  0.3241
 1509SOL    HW2 5338   5.319   1.884   5.041  1.5717  0.3954  0.8164
 1510SOL     OW 5339   4.569   3.099   3.351  0.4728 -0.2676  0.0554
 1510SOL    HW1 5340   4.660   3.078   3.372  0.4024  1.0190  1.8552
 1510SOL    HW2 5341   4.570   3.117   3.257  2.7839  2.6785  0.4733
 1511SOL     OW 5342   5.295   1.403   4.416 -0.2662 -0.1677 -0.0653
 1511SOL    HW1 5343   5.264   1.312   4.420  0.0283 -0.2257  1.0932
 1511SOL    HW2 5344   5.233   1.446   4.357 -1.1904 -0.8264  0.3909
 1512SOL     OW 5345   7.605   3.465   2.709  0.3039  0.6676 -0.0459
 1512SOL    HW1 5346   7.555   3.546   2.709  0.0850  0.5382 -0.5016
 1512SOL    HW2 5347   7.693   3.491   2.682  0.1902  0.7325 -0.3594
 1513SOL     OW 5348   2.132   0.785   2.141  0.0040 -0.3256 -0.0072
 1513SOL    HW1 5349   2.187   0.708   2.142  0.5395  0.0529  0.3417
 1513SOL    HW2 5350   2.061   0.765   2.203  0.3586 -0.3859  0.3811
 1514SOL     OW 5351   3.529   4.959   7.716 -0.0463  0.2430 -0.2060
 1514SOL    HW1 5352   3.580   5.039   7.702  1.4373 -0.7138 -0.5454
 1514SOL    HW2 5353   3.522   4.952   7.812  1.2947 -0.0711 -0.1036
 1515SOL     OW 5354   0.233   7.447   4.415  0.1615  0.5976  0.1005
 1515SOL    HW1 5355   0.311   7.430   4.363  0.1870  0.8745  0.0451
 1515SOL    HW2 5356   0.265   7.497   4.491 -0.0980  1.6419 -0.4537
 1516SOL     OW 5357   7.095   2.429   5.642  0.2136 -0.0281  0.6642
 1516SOL    HW1 5358   7.094   2.357   5.705  1.0297 -0.5866  0.0655
 1516SOL    HW2 5359   7.050   2.394   5.565 -2.1053  1.1425  1.4040
 1517SOL     OW 5360   7.613   1.776   6.220 -0.1851 -0.0795  0.4035
 1517SOL    HW1 5361   7.544   1.722   6.259 -1.3776  1.7841  0.9890
 1517SOL    HW2 5362   7.594   1.865   6.250  2.8860  0.4483  1.1552
 1518SOL     OW 5363   4.047   2.139   1.619 -0.3232  0.5793 -0.3389
 1518SOL    HW1 5364   4.056   2.194   1.541 -2.1861  1.4441  0.0028
 1518SOL    HW2 5365   4.084   2.191   1.690 -0.2658  0.5397 -0.3391
 1519SOL     OW 5366   6.522   3.632   4.186  0.2660  0.3436 -0.2071
 1519SOL    HW1 5367   6.481   3.689   4.251 -0.4850 -0.9537  0.4911
 1519SOL    HW2 5368   6.607   3.611   4.222  0.0554  0.0400  0.1141
 1520SOL     OW 5369   1.063   2.358   0.895 -0.6382 -0.1337  0.5491
 1520SOL    HW1 5370   1.018   2.296   0.952 -2.4538 -0.2534 -0.9098
 1520SOL    HW2 5371   1.022   2.346   0.809  1.7161  0.2815 -0.7373
 1521SOL     OW 5372   0.269   6.389   4.542  0.2491  0.7249  0.3470
 1521SOL    HW1 5373   0.246   6.315   4.598  0.0616 -0.4420 -1.1846
 1521SOL    HW2 5374   0.358   6.412   4.567 -0.8056  2.2147  3.1220
 1522SOL     OW 5375   4.263   0.705   5.124  0.1378 -0.1448 -0.5434
 1522SOL    HW1 5376   4.300   0.751   5.199 -3.6440  0.1013  1.4688
 1522SOL    HW2 5377   4.226   0.774   5.069  0.0174 -0.4586 -0.8598
 1523SOL     OW 5378   1.347   0.061   5.161 -0.3541  0.3494 -0.8222
 1523SOL    HW1 5379   1.403   0.102   5.227 -0.7247 -1.1344  0.4718
 1523SOL    HW2 5380   1.334  -0.028   5.192  2.8672 -1.9367 -4.9345
 1524SOL     OW 5381   7.693   4.358   0.221 -0.0723 -0.1840  0.5065
 1524SOL    HW1 5382   7.749   4.339   0.146  0.2654  0.0866  0.6864
 1524SOL    HW2 5383   7.640   4.279   0.232  0.5153 -0.5793  0.5448
 1525SOL     OW 5384   1.602   0.083   6.741 -0.2614  0.1048  0.2157
 1525SOL    HW1 5385   1.532   0.018   6.737  0.0325 -0.2784  0.9591
 1525SOL    HW2 5386   1.558   0.166   6.761 -1.2260  1.2001 -5.0088
 1526SOL     OW 5387   2.290   3.242   2.295  0.2351  0.3998 -0.6256
 1526SOL    HW1 5388   2.309   3.170   2.355 -0.7442  1.6638  1.3168
 1526SOL    HW2 5389   2.261   3.200   2.215 -2.3238 -1.4444  1.1016
 1527SOL     OW 5390   7.772   7.763   3.172 -0.0284 -0.4326  0.0663
 1527SOL    HW1 5391   7.686   7.755   3.130  0.8770 -1.9176 -1.6945
 1527SOL    HW2 5392   7.782   7.681   3.221 -0.4339  0.6344  1.9888
 1528SOL     OW 5393   5.290   2.101   1.706  0.3106  0.2501  0.0463
 1528SOL    HW1 5394   5.237   2.033   1.748  2.5629 -1.2155  0.6810
 1528SOL    HW2 5395   5.267   2.181   1.753  0.0065 -0.6758  1.5450
 1529SOL     OW 5396   5.875   7.571   7.373  0.9745 -0.0753  0.4857
 1529SOL    HW1 5397   5.786   7.604   7.386  0.3166 -1.1813 -0.9225
 1529SOL    HW2 5398   5.927   7.648   7.350 -0.2143  0.2327 -1.3388
 1530SOL     OW 5399   5.543   2.215   1.667  0.2898  0.0181  0.3230
 1530SOL    HW1 5400   5.455   2.185   1.691 -0.2545  0.1036 -1.4001
 1530SOL    HW2 5401   5.585   2.138   1.628  0.2565  0.4785 -0.6516
 1531SOL     OW 5402   5.373   2.744   4.138 -0.0296 -0.2570 -0.2735
 1531SOL    HW1 5403   5.467   2.739   4.148 -0.1146 -1.7036 -0.0560
 1531SOL    HW2 5404   5.337   2.696   4.213 -0.9661  0.8704  0.0371
 1532SOL     OW 5405   7.519   0.025   1.250  0.4281  0.3551  0.5970
 1532SOL    HW1 5406   7.525   0.036   1.155  2.1654  0.9836  0.7477
 1532SOL    HW2 5407   7.515  -0.070   1.262  1.6770  0.2003 -0.0575
 1533SOL     OW 5408   3.878   6.737   6.292  0.1189 -0.2958  0.5819
 1533SOL    HW1 5409   3.898   6.701   6.206  0.7105  0.1608  0.5225
 1533SOL    HW2 5410   3.929   6.684   6.353  1.0741  0.4872  0.4846
 1534SOL     OW 5411   2.097   0.277   2.888  0.4539  0.9231 -0.2451
 1534SOL    HW1 5412   2.099   0.367   2.854 -0.6503  1.0882  0.0946
 1534SOL    HW2 5413   2.042   0.229   2.826 -2.6751  1.5118  1.8334
 1535SOL     OW 5414   3.612   3.353   5.118  0.5694 -0.1699 -0.3717
 1535SOL    HW1 5415   3.549   3.289   5.088  2.3641 -2.1050 -0.2643
 1535SOL    HW2 5416   3.624   3.412   5.044  1.2297 -1.8925 -1.7073
 1536SOL     OW 5417   5.781   4.659   2.707  0.3519 -0.6628 -0.5530
 1536SOL    HW1 5418   5.709   4.630   2.652  0.6687 -1.4423 -0.5729
 1536SOL    HW2 5419   5.829   4.579   2.727  0.9176 -0.2218 -0.1226
 1537SOL     OW 5420   7.386   1.617   0.694  0.2324 -0.3306  0.3415
 1537SOL    HW1 5421   7.364   1.612   0.601  2.5257  0.8679 -0.3419
 1537SOL    HW2 5422   7.365   1.707   0.718 -2.0013 -1.0940  1.5212
 1538SOL     OW 5423   5.303   7.291   2.409  0.0059 -0.3496  0.2112
 1538SOL    HW1 5424   5.277   7.383   2.412  0.0608 -0.3398  2.7900
 1538SOL    HW2 5425   5.398   7.293   2.396 -0.0139 -0.0373  0.1267
 1539SOL     OW 5426   1.335   0.310   0.068 -0.1337  0.4144 -0.3373
 1539SOL    HW1 5427   1.394   0.234   0.062  0.9194  1.1149  0.6931
 1539SOL    HW2 5428   1.315   0.317   0.162 -0.3462  1.3084 -0.4444
 1540SOL     OW 5429   2.810   3.325   1.420 -0.1526  0.1879  0.7224
 1540SOL    HW1 5430   2.836   3.247   1.372  0.7276  0.7571  0.2480
 1540SOL    HW2 5431   2.825   3.302   1.512 -0.1218 -0.2700  0.6064
 1541SOL     OW 5432   7.340   3.481   3.385 -0.0601 -0.3112  0.0054
 1541SOL    HW1 5433   7.343   3.462   3.291 -0.4317 -1.8946  0.2750
 1541SOL    HW2 5434   7.278   3.553   3.393 -2.3563 -2.0740 -0.7463
 1542SOL     OW 5435   1.552   3.238   7.092  0.1393 -0.1633  0.7233
 1542SOL    HW1 5436   1.460   3.218   7.109  0.2048  0.4492  1.9047
 1542SOL    HW2 5437   1.591   3.249   7.178  1.4661 -0.9606  0.2650
 1543SOL     OW 5438   4.875   5.352   1.641  0.1549 -0.3580 -0.0995
 1543SOL    HW1 5439   4.787   5.366   1.607  0.4820 -0.3426 -0.9719
 1543SOL    HW2 5440   4.897   5.435   1.684  0.5794  0.4914 -1.8366
 1544SOL     OW 5441   4.927   0.360   2.932  0.1031  0.5371 -0.1046
 1544SOL    HW1 5442   4.939   0.397   3.019 -0.7551  0.2939  0.1252
 1544SOL    HW2 5443   4.954   0.430   2.873  1.3487  0.4617  0.3474
 1545SOL     OW 5444   4.830   4.975   4.009 -0.9225  0.1935  0.2187
 1545SOL    HW1 5445   4.786   4.892   4.028 -1.2697  0.5978  1.2533
 1545SOL    HW2 5446   4.786   5.008   3.930 -1.2890 -0.2520  0.2323
 1546SOL     OW 5447   3.996   7.868   7.564 -0.2189 -0.1890  0.2196
 1546SOL    HW1 5448   4.020   7.906   7.649 -0.2394  0.4258 -0.0459
 1546SOL    HW2 5449   4.037   7.781   7.565  0.0490 -0.0647  0.7270
 1547SOL     OW 5450   0.033   4.247   3.138  0.7395  0.5820 -0.1222
 1547SOL    HW1 5451   0.006   4.202   3.218  1.2246  0.6319  0.0706
 1547SOL    HW2 5452   0.126   4.226   3.128  0.3403 -0.7270 -1.5293
 1548SOL     OW 5453   0.035   7.805   7.680 -0.5662  0.0930 -0.3836
 1548SOL    HW1 5454   0.023   7.890   7.638  1.0891  0.9491  0.7326
 1548SOL    HW2 5455   0.130   7.793   7.684 -0.7517 -1.6814 -0.2200
 1549SOL     OW 5456   6.295   6.416   4.789  0.6302 -0.1885 -0.0511
 1549SOL    HW1 5457   6.266   6.443   4.876  0.0259 -1.1170  0.0473
 1549SOL    HW2 5458   6.234   6.459   4.729  0.3019 -0.5107  0.0509
 1550SOL     OW 5459   7.447   0.941   0.160  0.0953  0.1117 -0.0423
 1550SOL    HW1 5460   7.472   0.855   0.192 -0.2019  0.0167 -0.0691
 1550SOL    HW2 5461   7.351   0.942   0.163  0.0903  1.5385  2.9337
 1551SOL     OW 5462   5.579   3.300   2.956 -0.0256  0.4500  0.5902
 1551SOL    HW1 5463   5.537   3.359   3.019 -0.4378 -0.2878  1.0288
 1551SOL    HW2 5464   5.648   3.256   3.007  0.0193  0.2728  0.3769
 1552SOL     OW 5465   7.351   3.338   7.152  0.5769 -0.2037 -0.0429
 1552SOL    HW1 5466   7.372   3.260   7.099  0.7309  0.6234 -1.2476
 1552SOL    HW2 5467   7.434   3.383   7.161  0.1862  0.7255 -0.8934
 1553SOL     OW 5468   0.528   2.596   0.072 -0.2228  0.0012 -0.1616
 1553SOL    HW1 5469   0.613   2.581   0.116 -2.0577 -1.6501  3.2484
 1553SOL    HW2 5470   0.516   2.691   0.076  0.6159  0.0856  1.2182
 1554SOL     OW 5471   0.922   0.506   1.613  0.2436  0.7104 -0.9464
 1554SOL    HW1 5472   0.996   0.533   1.558  0.9156 -0.5875 -0.7084
 1554SOL    HW2 5473   0.845   0.527   1.560  0.7974  1.3384 -1.5352
 1555SOL     OW 5474   7.279   7.919   3.911  0.0713 -0.4791 -0.5188
 1555SOL    HW1 5475   7.293   7.982   3.982 -2.3552 -0.9692  0.4777
 1555SOL    HW2 5476   7.257   7.837   3.955  0.7292 -1.4024 -1.8385
 1556SOL     OW 5477   1.463   0.691   3.213 -0.0776  0.0067 -0.6372
 1556SOL    HW1 5478   1.521   0.746   3.266  0.7013 -0.9811 -0.4343
 1556SOL    HW2 5479   1.407   0.754   3.166  1.4806  1.0124 -1.2167
 1557SOL     OW 5480   5.818   5.635   4.074 -0.1571 -0.2355  0.1402
 1557SOL    HW1 5481   5.730   5.642   4.037 -0.4672  0.1577  0.9382
 1557SOL    HW2 5482   5.857   5.560   4.029 -0.4751  0.2934 -1.0604
 1558SOL     OW 5483   4.083   2.318   1.424 -0.3027 -0.6278  0.3968
 1558SOL    HW1 5484   4.063   2.316   1.330  0.2267  0.3297  0.2489
 1558SOL    HW2 5485   4.076   2.411   1.448  0.0499 -0.8023  1.2017
 1559SOL     OW 5486   7.762   2.529   3.488  0.2840  0.3565  0.2817
 1559SOL    HW1 5487   7.826   2.480   3.540 -0.2022  0.6769  1.1857
 1559SOL    HW2 5488   7.687   2.539   3.545 -0.4619  0.2732 -0.6671
 1560SOL     OW 5489   6.546   3.806   1.106  0.5227  0.5022  1.3870
 1560SOL    HW1 5490   6.630   3.776   1.141  0.1716  0.2424  2.0090
 1560SOL    HW2 5491   6.485   3.735   1.124  0.5919 -0.2442 -0.9528
 1561SOL     OW 5492   2.395   7.917   6.870  0.3100  0.1387 -0.7230
 1561SOL    HW1 5493   2.377   7.978   6.942 -0.4093 -1.8945  0.9502
 1561SOL    HW2 5494   2.311   7.907   6.825 -0.6469 -2.2157  1.2750
 1562SOL     OW 5495   0.718   6.365   4.828  0.1574 -0.2286  0.2893
 1562SOL    HW1 5496   0.764   6.420   4.765  1.6655 -3.2243 -1.4790
 1562SOL    HW2 5497   0.788   6.325   4.880 -0.7989 -0.9824  1.0258
 1563SOL     OW 5498   1.644   4.938   0.652 -0.4647 -0.0980  0.0932
 1563SOL    HW1 5499   1.611   4.977   0.571  1.1748  1.2455  0.0226
 1563SOL    HW2 5500   1.595   4.983   0.722 -1.8856 -1.2651 -0.1037
 1564SOL     OW 5501   2.515   0.273   2.724 -0.5198 -0.2617 -0.3588
 1564SOL    HW1 5502   2.511   0.220   2.645  0.8900  0.7084 -1.1068
 1564SOL    HW2 5503   2.598   0.250   2.765  1.2775  2.8713 -1.8803
 1565SOL     OW 5504   5.824   7.747   3.770 -0.3427 -0.4428 -0.5738
 1565SOL    HW1 5505   5.825   7.687   3.696 -1.7428  0.0926 -1.0516
 1565SOL    HW2 5506   5.732   7.753   3.795 -0.3403  1.8690 -0.8839
 1566SOL     OW 5507   6.720   1.356   7.671  0.2109 -0.3401 -0.4643
 1566SOL    HW1 5508   6.714   1.401   7.755  2.9610  1.4844 -1.1034
 1566SOL    HW2 5509   6.662   1.404   7.613  1.6091  1.2487 -0.6274
 1567SOL     OW 5510   0.521   5.569   4.553 -0.8135 -0.8907 -0.2240
 1567SOL    HW1 5511   0.441   5.565   4.500  0.2600  0.3843 -2.0586
 1567SOL    HW2 5512   0.496   5.619   4.631 -1.3758  1.3335 -1.7296
 1568SOL     OW 5513   2.521   6.203   3.822  0.2903 -0.6110 -0.5723
 1568SOL    HW1 5514   2.610   6.233   3.835  0.3518 -1.6788  2.0035
 1568SOL    HW2 5515   2.526   6.147   3.744  1.5600  0.3169 -1.1992
 1569SOL     OW 5516   6.145   7.424   2.943 -0.0750 -0.4371 -0.0483
 1569SOL    HW1 5517   6.187   7.466   2.868 -2.8922  0.7553 -1.0905
 1569SOL    HW2 5518   6.076   7.485   2.970 -0.8064 -1.9979  1.9054
 1570SOL     OW 5519   6.174   7.328   6.528  0.2603  0.6116  0.0245
 1570SOL    HW1 5520   6.174   7.243   6.572 -1.2118  1.7109  2.3433
 1570SOL    HW2 5521   6.253   7.373   6.560  1.0259  0.1708 -1.1809
 1571SOL     OW 5522   4.103   7.795   3.492  0.2406  0.6294  0.1086
 1571SOL    HW1 5523   4.164   7.808   3.564  1.2682 -0.8688 -0.4527
 1571SOL    HW2 5524   4.020   7.773   3.534  1.0739 -1.2723  0.8769
 1572SOL     OW 5525   6.463   5.571   3.449 -0.1675  0.1924  0.1560
 1572SOL    HW1 5526   6.527   5.520   3.499 -3.0279 -2.4613  1.3714
 1572SOL    HW2 5527   6.454   5.652   3.499  0.5455 -0.3705  1.2459
 1573SOL     OW 5528   0.277   6.675   0.289 -0.1763 -0.0161  0.0494
 1573SOL    HW1 5529   0.284   6.585   0.321  3.0050  0.4234  0.9099
 1573SOL    HW2 5530   0.259   6.666   0.195  0.2312 -1.5543  0.0946
 1574SOL     OW 5531   0.358   5.705   6.234  0.0438  0.4070  0.0544
 1574SOL    HW1 5532   0.359   5.699   6.330  0.0344  0.6062  0.0659
 1574SOL    HW2 5533   0.293   5.772   6.214  0.9456  1.2640 -0.0452
 1575SOL     OW 5534   1.943   2.360   6.188 -0.0956  0.1560  0.0768
 1575SOL    HW1 5535   1.927   2.304   6.264 -2.6444  1.0028  0.2681
 1575SOL    HW2 5536   2.038   2.361   6.178  0.1631 -2.3866  1.3991
 1576SOL     OW 5537   0.455   4.094   4.503 -0.2948 -0.4746 -0.1643
 1576SOL    HW1 5538   0.467   4.030   4.574  1.7868  0.1291  0.0802
 1576SOL    HW2 5539   0.507   4.060   4.431 -0.4598  0.1417 -0.5824
 1577SOL     OW 5540   3.171   6.063   5.103 -0.2476 -0.3540 -0.3591
 1577SOL    HW1 5541   3.141   6.065   5.194 -0.0853 -4.2271 -0.0361
 1577SOL    HW2 5542   3.091   6.055   5.051 -0.2597  0.2532 -0.4404
 1578SOL     OW 5543   3.741   0.586   3.841 -0.3312 -0.1173 -0.3852
 1578SOL    HW1 5544   3.759   0.523   3.772  2.3940 -0.1450  0.2365
 1578SOL    HW2 5545   3.726   0.533   3.920  1.0727 -0.0383 -0.0478
 1579SOL     OW 5546   1.318   0.898   0.241 -0.0076  0.6390  0.0465
 1579SOL    HW1 5547   1.238   0.945   0.263 -2.8277 -3.0712 -1.2100
 1579SOL    HW2 5548   1.334   0.920   0.150  0.5621  1.5048  0.3421
 1580SOL     OW 5549   6.280   4.006   7.577  0.3766 -0.6928 -0.0862
 1580SOL    HW1 5550   6.263   3.986   7.485 -0.3646  0.2380 -0.1593
 1580SOL    HW2 5551   6.203   3.973   7.623  0.2029 -0.0941  0.0577
 1581SOL     OW 5552   7.978   0.277   0.392  0.3229 -0.0107  0.4670
 1581SOL    HW1 5553   7.977   0.181   0.384 -0.7604  0.0067  0.2579
 1581SOL    HW2 5554   7.974   0.293   0.486  1.8794 -0.1538  0.5960
 1582SOL     OW 5555   2.118   7.621   0.118  0.1876  1.0772 -0.5102
 1582SOL    HW1 5556   2.068   7.569   0.181  1.1817  0.4954 -0.1837
 1582SOL    HW2 5557   2.147   7.558   0.053  1.5574  1.1733 -0.0141
 1583SOL     OW 5558   3.868   5.597   5.335 -0.1010  0.0020 -0.0692
 1583SOL    HW1 5559   3.796   5.607   5.273 -1.5705 -3.0228  0.9745
 1583SOL    HW2 5560   3.947   5.614   5.283 -1.3836 -0.1283 -2.1687
 1584SOL     OW 5561   5.789   5.728   2.433 -0.2934 -0.3959  0.0912
 1584SOL    HW1 5562   5.881   5.706   2.423 -0.1900  0.2237 -0.3576
 1584SOL    HW2 5563   5.753   5.725   2.344 -0.1766  1.6190 -0.0666
 1585SOL     OW 5564   0.162   6.759   2.180  0.1900  0.3340  0.1104
 1585SOL    HW1 5565   0.231   6.693   2.173  0.3512  0.4214  0.8431
 1585SOL    HW2 5566   0.135   6.775   2.089  1.1693  0.3472 -0.1823
 1586SOL     OW 5567   4.920   1.538   6.570  0.2383  0.6464 -0.7451
 1586SOL    HW1 5568   4.874   1.571   6.647 -0.3321  0.0371 -0.8206
 1586SOL    HW2 5569   4.876   1.581   6.496 -1.8584 -1.7302 -0.9935
 1587SOL     OW 5570   6.293   4.115   6.451  0.0308 -0.0294  0.0557
 1587SOL    HW1 5571   6.312   4.024   6.475 -1.6470 -0.4941 -0.2648
 1587SOL    HW2 5572   6.332   4.125   6.364 -0.3909 -0.6852 -0.2230
 1588SOL     OW 5573   4.963   7.914   1.733  0.8993  0.0452  0.5100
 1588SOL    HW1 5574   5.042   7.860   1.738  0.5103 -0.5551  0.2689
 1588SOL    HW2 5575   4.922   7.888   1.651  0.6445  0.6324  0.4457
 1589SOL     OW 5576   7.090   4.124   3.435  0.9164  0.0806 -0.5851
 1589SOL    HW1 5577   7.176   4.097   3.401 -0.2903 -1.9477 -2.2242
 1589SOL    HW2 5578   7.027   4.084   3.376 -1.2160  1.0106  0.9420
 1590SOL     OW 5579   1.319   6.018   0.249  0.4090 -0.0563 -0.6218
 1590SOL    HW1 5580   1.365   6.091   0.207  0.5675  0.9064  1.1134
 1590SOL    HW2 5581   1.230   6.022   0.214  0.4109  1.0025 -0.5329
 1591SOL     OW 5582   0.204   1.026   1.065  0.0590  0.2879  0.1668
 1591SOL    HW1 5583   0.109   1.037   1.057  0.2160  0.8178 -1.3989
 1591SOL    HW2 5584   0.234   1.111   1.096  0.0674  0.2869  0.1611
 1592SOL     OW 5585   4.418   6.311   6.567 -0.2594 -0.0389 -0.5110
 1592SOL    HW1 5586   4.435   6.260   6.488  0.5666  0.3709 -0.6055
 1592SOL    HW2 5587   4.450   6.399   6.547  1.6560 -0.3474  0.8723
 1593SOL     OW 5588   2.808   1.418   4.418  0.1329  0.2406 -0.0845
 1593SOL    HW1 5589   2.716   1.416   4.394 -0.1428 -0.3399  0.9454
 1593SOL    HW2 5590   2.814   1.363   4.496  0.9202  2.0546  1.2399
 1594SOL     OW 5591   4.435   0.024   6.447  0.2409  0.3860  0.0746
 1594SOL    HW1 5592   4.460   0.114   6.429  1.4916 -0.1313 -0.8885
 1594SOL    HW2 5593   4.342   0.029   6.472  0.4496  1.9876  0.6342
 1595SOL     OW 5594   5.888   1.540   0.595 -0.6398  0.0041  0.3047
 1595SOL    HW1 5595   5.984   1.543   0.590 -0.6821 -0.9719 -1.6535
 1595SOL    HW2 5596   5.865   1.451   0.571 -2.0946  0.4852 -0.1742
 1596SOL     OW 5597   5.148   5.377   5.337  0.2171  0.5746  0.2266
 1596SOL    HW1 5598   5.164   5.450   5.276  0.9654 -0.7687 -1.2607
 1596SOL    HW2 5599   5.219   5.384   5.401  1.4368  0.0581 -1.0218
 1597SOL     OW 5600   0.521   3.193   4.677  0.3882  0.0619  0.4331
 1597SOL    HW1 5601   0.615   3.195   4.690  0.2704  0.8130  1.3028
 1597SOL    HW2 5602   0.508   3.232   4.590  0.8814 -0.3133  0.1830
 1598SOL     OW 5603   1.385   1.520   4.031  0.3733  0.4587 -0.1234
 1598SOL    HW1 5604   1.319   1.451   4.035 -0.6288  1.3884 -0.2727
 1598SOL    HW2 5605   1.458   1.480   3.983 -0.0733 -0.5846  0.0365
 1599SOL     OW 5606   3.829   7.420   6.535  0.0699 -0.3968  0.3109
 1599SOL    HW1 5607   3.754   7.366   6.561 -0.6460  0.8606  0.9369
 1599SOL    HW2 5608   3.879   7.364   6.475 -0.6914 -1.7090  0.8566
 1600SOL     OW 5609   5.658   0.330   0.267  0.1496 -0.4384  0.0181
 1600SOL    HW1 5610   5.600   0.289   0.203 -0.4072  0.4794 -0.0918
 1600SOL    HW2 5611   5.745   0.294   0.248 -0.3523 -1.7426  0.1076
 1601SOL     OW 5612   7.304   6.896   4.953 -0.1780  0.0878 -0.3255
 1601SOL    HW1 5613   7.386   6.913   4.907  0.8585 -0.0321  1.3834
 1601SOL    HW2 5614   7.257   6.979   4.951  0.0136  0.1837 -1.2433
 1602SOL     OW 5615   6.093   6.067   7.279  0.7530  0.1278  0.2381
 1602SOL    HW1 5616   6.126   6.155   7.298  0.7851  0.5454 -1.5413
 1602SOL    HW2 5617   5.998   6.078   7.273  0.8603  0.4232 -1.5565
 1603SOL     OW 5618   6.558   1.030   5.882  0.0844 -0.5398 -0.2618
 1603SOL    HW1 5619   6.607   0.948   5.878  0.3980 -0.4098  0.6201
 1603SOL    HW2 5620   6.619   1.093   5.920  0.0426  0.2617 -1.4809
 1604SOL     OW 5621   7.627   5.559   5.357 -0.0914  0.5432  0.6214
 1604SOL    HW1 5622   7.561   5.491   5.348  1.8608 -1.5373  1.0152
 1604SOL    HW2 5623   7.603   5.625   5.292 -2.0773 -0.4824  0.2347
 1605SOL     OW 5624   2.432   6.838   7.290 -0.6436 -0.1808  0.1975
 1605SOL    HW1 5625   2.441   6.783   7.367 -0.6498  1.7460  1.6483
 1605SOL    HW2 5626   2.346   6.879   7.300 -1.3604 -1.0942 -1.6922
 1606SOL     OW 5627   0.142   5.061   2.198  0.1174 -0.4714  0.2155
 1606SOL    HW1 5628   0.067   5.076   2.255  0.1463  1.1167 -0.1294
 1606SOL    HW2 5629   0.214   5.039   2.258 -0.3999 -1.1655  0.5991
 1607SOL     OW 5630   6.767   7.675   2.462  0.4467 -0.0221  0.0178
 1607SOL    HW1 5631   6.728   7.636   2.540  1.8301 -1.7372 -0.0978
 1607SOL    HW2 5632   6.771   7.769   2.481  0.8551 -0.4164  2.0654
 1608SOL     OW 5633   4.248   2.504   1.877 -0.5331  0.0983  0.1464
 1608SOL    HW1 5634   4.242   2.595   1.846 -0.1268  1.1353  2.8963
 1608SOL    HW2 5635   4.320   2.505   1.940 -0.4811 -2.1813  0.1859
 1609SOL     OW 5636   4.220   6.145   5.502 -0.5881 -0.3074 -0.5177
 1609SOL    HW1 5637   4.258   6.233   5.508  2.5140 -1.6575  1.8800
 1609SOL    HW2 5638   4.160   6.140   5.577 -0.7962 -0.2707 -0.6781
 1610SOL     OW 5639   3.164   6.999   0.515 -0.5874  0.3746  0.3703
 1610SOL    HW1 5640   3.241   6.982   0.461 -1.0210 -1.3307  0.2047
 1610SOL    HW2 5641   3.093   7.016   0.453 -0.7744 -0.1614  0.4235
 1611SOL     OW 5642   5.466   4.654   0.231 -0.2281  0.4337  0.2776
 1611SOL    HW1 5643   5.438   4.570   0.196 -0.8371  0.1708  1.3756
 1611SOL    HW2 5644   5.535   4.683   0.171 -2.7888  1.1231 -2.5796
 1612SOL     OW 5645   3.776   7.817   2.860 -0.4655  0.3074 -0.8940
 1612SOL    HW1 5646   3.693   7.852   2.826 -1.4604 -1.6940 -0.6708
 1612SOL    HW2 5647   3.759   7.805   2.954 -0.1721 -0.7511 -0.9644
 1613SOL     OW 5648   6.548   1.616   1.786 -0.0856  0.2158  0.4797
 1613SOL    HW1 5649   6.461   1.589   1.815  0.0290  0.9424  1.5550
 1613SOL    HW2 5650   6.538   1.709   1.763 -0.0109 -0.1567 -1.2268
 1614SOL     OW 5651   1.556   0.760   6.156 -0.0590 -0.2061  0.8046
 1614SOL    HW1 5652   1.557   0.844   6.110 -0.3936 -0.0183  1.1370
 1614SOL    HW2 5653   1.627   0.767   6.219 -0.5828  0.1338  1.3676
 1615SOL     OW 5654   7.358   5.884   7.172  0.4265  0.1508  0.0827
 1615SOL    HW1 5655   7.454   5.884   7.162  0.3846 -1.5313 -0.7105
 1615SOL    HW2 5656   7.342   5.943   7.245  2.1508 -0.2553  0.8509
 1616SOL     OW 5657   6.300   0.369   5.676  0.6437  0.0503  0.0245
 1616SOL    HW1 5658   6.328   0.296   5.621 -0.5782 -0.5282  0.1477
 1616SOL    HW2 5659   6.249   0.425   5.618 -1.1611 -0.8634  0.6365
 1617SOL     OW 5660   0.907   5.777   0.810 -0.0973 -0.1266  0.1744
 1617SOL    HW1 5661   0.931   5.711   0.875  3.1464  1.1309  0.4401
 1617SOL    HW2 5662   0.929   5.737   0.726 -0.4937 -0.2732  0.1376
 1618SOL     OW 5663   6.416   3.917   1.418 -0.3429 -0.4214  0.0580
 1618SOL    HW1 5664   6.395   3.996   1.468  0.4853 -0.7809  0.9906
 1618SOL    HW2 5665   6.410   3.945   1.326  0.4759  0.8714  0.3754
 1619SOL     OW 5666   2.877   1.556   6.841 -0.1940  0.8085  0.6752
 1619SOL    HW1 5667   2.950   1.567   6.780 -1.2584  1.1376 -0.5700
 1619SOL    HW2 5668   2.876   1.638   6.891 -0.0314  1.0080  0.3553
 1620SOL     OW 5669   7.307   4.189   4.478  0.0068  0.3997 -0.1528
 1620SOL    HW1 5670   7.251   4.266   4.467 -1.0111 -0.5132 -1.6610
 1620SOL    HW2 5671   7.392   4.217   4.442 -0.4177  0.7500 -0.9126
 1621SOL     OW 5672   7.890   1.795   7.629 -0.9297  0.0837 -0.0313
 1621SOL    HW1 5673   7.800   1.808   7.601 -1.0910  0.5790  0.7086
 1621SOL    HW2 5674   7.894   1.831   7.717 -0.0836 -0.2094  0.0625
 1622SOL     OW 5675   1.497   4.058   4.813 -0.3054  0.3966  0.1287
 1622SOL    HW1 5676   1.425   4.016   4.765 -2.1683  1.9115  1.4519
 1622SOL    HW2 5677   1.571   3.998   4.803 -1.6588 -1.0798 -1.5479
 1623SOL     OW 5678   2.731   5.138   0.422  0.5017 -0.4376  0.4355
 1623SOL    HW1 5679   2.803   5.163   0.364 -0.3069  2.2027  0.4124
 1623SOL    HW2 5680   2.774   5.099   0.498  1.6324 -3.1376 -1.4333
 1624SOL     OW 5681   6.186   0.783   6.963  0.0800 -0.0511  0.3329
 1624SOL    HW1 5682   6.121   0.810   6.898 -0.3229 -0.5044  0.5438
 1624SOL    HW2 5683   6.242   0.721   6.916 -0.4077 -0.6279  0.5067
 1625SOL     OW 5684   3.374   5.857   4.409  0.1351 -0.0415 -0.4814
 1625SOL    HW1 5685   3.467   5.837   4.422  0.2161 -0.0451 -1.0747
 1625SOL    HW2 5686   3.371   5.953   4.411 -0.1108 -0.0425  1.3256
 1626SOL     OW 5687   2.972   5.182   3.295 -0.1538  0.3215 -0.2577
 1626SOL    HW1 5688   3.055   5.134   3.301 -0.9417 -1.0315  0.1798
 1626SOL    HW2 5689   2.994   5.271   3.324  0.9459 -0.2490  0.7585
 1627SOL     OW 5690   6.157   4.332   2.285 -0.1173  0.0985  0.5741
 1627SOL    HW1 5691   6.086   4.373   2.235  0.1426 -0.1632 -0.0191
 1627SOL    HW2 5692   6.209   4.285   2.219  0.1863 -0.3189  1.1014
 1628SOL     OW 5693   3.911   0.863   5.986  0.0862  0.0595 -0.2673
 1628SOL    HW1 5694   3.901   0.940   5.930  2.4602 -0.6297 -1.7844
 1628SOL    HW2 5695   3.834   0.810   5.967 -1.0489  1.5327  0.0077
 1629SOL     OW 5696   4.102   6.880   1.540  0.2257 -0.1167 -0.1008
 1629SOL    HW1 5697   4.027   6.821   1.552  0.6308 -0.7498 -0.6230
 1629SOL    HW2 5698   4.178   6.827   1.565  0.4437  0.7918  1.2471
 1630SOL     OW 5699   1.072   2.638   7.657 -0.1699  0.2504  0.3960
 1630SOL    HW1 5700   1.010   2.658   7.587  0.3876  0.3922 -0.0675
 1630SOL    HW2 5701   1.077   2.542   7.658 -2.5242  0.0613  2.3350
 1631SOL     OW 5702   3.357   3.774   3.841 -0.1176  0.1015  0.7237
 1631SOL    HW1 5703   3.330   3.700   3.787 -0.2024 -0.0059  0.9105
 1631SOL    HW2 5704   3.445   3.751   3.872 -0.3993 -0.2189  1.3053
 1632SOL     OW 5705   0.643   1.132   2.526  0.0683 -0.1657 -0.1344
 1632SOL    HW1 5706   0.572   1.110   2.586 -0.5913  0.3438 -0.7116
 1632SOL    HW2 5707   0.721   1.094   2.566 -0.7456 -1.9939 -0.2097
 1633SOL     OW 5708   7.645   5.298   1.312 -0.0110 -0.3373 -0.1541
 1633SOL    HW1 5709   7.579   5.262   1.371  1.5580 -1.0004  1.2593
 1633SOL    HW2 5710   7.677   5.377   1.357  1.6293 -1.1803  0.2177
 1634SOL     OW 5711   2.698   7.413   4.317 -0.3135 -0.4136 -0.8213
 1634SOL    HW1 5712   2.635   7.482   4.340  0.2014 -0.4166  0.7667
 1634SOL    HW2 5713   2.648   7.332   4.322 -0.1447 -0.4558  0.8334
 1635SOL     OW 5714   5.341   2.544   4.300 -0.2063  0.3467  0.4837
 1635SOL    HW1 5715   5.259   2.507   4.267 -0.0044  0.7007 -0.4688
 1635SOL    HW2 5716   5.373   2.481   4.364 -0.7326 -0.2674  0.1476
 1636SOL     OW 5717   3.993   1.204   0.510 -0.2513  0.8125  0.7002
 1636SOL    HW1 5718   3.955   1.118   0.490 -0.5427  0.5383  2.2989
 1636SOL    HW2 5719   3.973   1.257   0.433 -0.7558 -0.3396  0.0110
 1637SOL     OW 5720   3.228   4.400   4.938 -0.0142 -0.0877 -0.7016
 1637SOL    HW1 5721   3.221   4.319   4.887  0.7906 -0.0205 -0.9260
 1637SOL    HW2 5722   3.322   4.416   4.945 -0.1526  0.5121 -0.1518
 1638SOL     OW 5723   1.034   2.383   7.567  0.6248 -0.1529 -0.5869
 1638SOL    HW1 5724   1.080   2.306   7.534  2.1673  0.3862  0.2646
 1638SOL    HW2 5725   0.944   2.353   7.580  1.0342 -1.6033 -0.9530
 1639SOL     OW 5726   2.959   2.271   7.391 -0.3026  0.3368 -0.1103
 1639SOL    HW1 5727   2.942   2.220   7.312 -2.6555  1.6867 -0.5676
 1639SOL    HW2 5728   2.998   2.353   7.359 -0.8238  0.6963  0.1669
 1640SOL     OW 5729   1.696   7.497   0.013  0.1930  0.0436 -0.0506
 1640SOL    HW1 5730   1.646   7.451  -0.054  3.1210  0.2256 -2.5576
 1640SOL    HW2 5731   1.713   7.432   0.080  0.0883 -1.1690 -1.1615
 1641SOL     OW 5732   3.850   1.136   6.810 -0.3121 -0.2100  0.2664
 1641SOL    HW1 5733   3.890   1.202   6.753 -2.4469  0.7490 -0.2352
 1641SOL    HW2 5734   3.921   1.074   6.828  0.6600 -0.2480 -2.9389
 1642SOL     OW 5735   1.074   6.169   4.516  0.8206  0.2053 -0.4608
 1642SOL    HW1 5736   1.041   6.106   4.452  1.1710  1.5798 -2.0748
 1642SOL    HW2 5737   1.069   6.123   4.600  0.2644 -1.6416 -1.4462
 1643SOL     OW 5738   4.201   2.231   3.602 -0.2219 -0.8312 -0.0883
 1643SOL    HW1 5739   4.159   2.298   3.656  0.4884 -0.7992  0.4310
 1643SOL    HW2 5740   4.244   2.281   3.532 -0.9638 -0.8597 -0.5833
 1644SOL     OW 5741   7.934   1.931   1.276  0.0486  0.4205 -0.3349
 1644SOL    HW1 5742   7.978   1.915   1.360 -2.1721  2.5020  1.3794
 1644SOL    HW2 5743   7.992   1.992   1.231  0.1491  1.1693  0.7639
 1645SOL     OW 5744   6.237   0.799   7.245 -0.2547 -0.3570  0.3423
 1645SOL    HW1 5745   6.190   0.781   7.164 -1.7688 -1.3800  1.4055
 1645SOL    HW2 5746   6.267   0.890   7.235 -1.0426 -0.2122 -1.0372
 1646SOL     OW 5747   3.785   6.164   3.259 -0.1629  0.4054  0.5432
 1646SOL    HW1 5748   3.759   6.110   3.334 -0.4729  0.0522  0.1863
 1646SOL    HW2 5749   3.731   6.133   3.187 -0.9760  1.7594  0.5187
 1647SOL     OW 5750   7.156   1.992   2.231 -0.0556 -0.3200  0.1965
 1647SOL    HW1 5751   7.088   2.058   2.217  1.0612  0.4052 -2.4194
 1647SOL    HW2 5752   7.147   1.932   2.157  1.8594 -0.4412  0.0128
 1648SOL     OW 5753   2.274   6.103   7.092 -0.1610  0.6295 -0.0845
 1648SOL    HW1 5754   2.323   6.027   7.125 -0.5213  0.5588  0.2959
 1648SOL    HW2 5755   2.238   6.074   7.008 -0.6647  0.2200  0.2636
 1649SOL     OW 5756   1.158   3.769   1.439  0.7613 -0.1083 -0.2925
 1649SOL    HW1 5757   1.226   3.702   1.429  0.4407 -0.3837 -0.6558
 1649SOL    HW2 5758   1.129   3.787   1.349 -1.1191 -1.5241 -0.0425
 1650SOL     OW 5759   0.717   3.504   6.933 -0.4259 -0.4263  0.0102
 1650SOL    HW1 5760   0.638   3.554   6.955  0.0787  0.5757 -0.3882
 1650SOL    HW2 5761   0.717   3.501   6.837  0.5530  0.4943 -0.0370
 1651SOL     OW 5762   7.538   6.887   5.625  0.5520  0.0238 -0.3237
 1651SOL    HW1 5763   7.535   6.973   5.667  2.0462  0.7206 -1.5339
 1651SOL    HW2 5764   7.588   6.902   5.545 -1.0528 -1.5299 -1.6882
 1652SOL     OW 5765   1.235   6.573   0.800 -0.1640  0.0225 -0.2918
 1652SOL    HW1 5766   1.311   6.514   0.800 -1.4152 -1.6788 -1.3695
 1652SOL    HW2 5767   1.180   6.541   0.872 -0.2108  0.7733  0.0070
 1653SOL     OW 5768   1.913   6.136   5.368 -0.4623  0.5728 -0.8584
 1653SOL    HW1 5769   1.959   6.053   5.354  1.7667  0.5376  4.3308
 1653SOL    HW2 5770   1.823   6.111   5.386  0.3586 -1.0125  1.5137
 1654SOL     OW 5771   2.258   4.317   7.688 -0.4017 -0.2746 -0.1643
 1654SOL    HW1 5772   2.257   4.408   7.717 -2.6890 -0.0698 -0.7025
 1654SOL    HW2 5773   2.325   4.315   7.619  0.1344  0.8302  0.2979
 1655SOL     OW 5774   5.233   0.147   1.373  0.5592 -0.2058  0.3068
 1655SOL    HW1 5775   5.252   0.066   1.421 -1.2907  0.0647  1.5933
 1655SOL    HW2 5776   5.315   0.198   1.379  1.1011 -1.1368  1.2221
 1656SOL     OW 5777   6.772   6.266   6.725  0.0891 -0.1835 -0.1546
 1656SOL    HW1 5778   6.753   6.197   6.788 -0.2393 -0.3546 -0.4359
 1656SOL    HW2 5779   6.786   6.219   6.642 -0.6523  0.1209 -0.4630
 1657SOL     OW 5780   6.529   4.841   2.890  0.3938  0.6841  0.2678
 1657SOL    HW1 5781   6.461   4.907   2.902 -0.4041 -0.1468  0.4445
 1657SOL    HW2 5782   6.490   4.777   2.831  0.3148 -0.7440  1.7979
 1658SOL     OW 5783   6.826   2.790   5.561 -0.0720  0.4388  0.0407
 1658SOL    HW1 5784   6.747   2.837   5.589 -1.0590 -1.6898  1.0565
 1658SOL    HW2 5785   6.842   2.727   5.631  1.3851 -0.5333 -1.1060
 1659SOL     OW 5786   4.221   2.505   0.717  0.4218 -0.1038  0.3318
 1659SOL    HW1 5787   4.181   2.548   0.642  0.8912 -1.0180 -0.4589
 1659SOL    HW2 5788   4.305   2.550   0.729  0.7852 -0.5923 -0.3163
 1660SOL     OW 5789   3.140   3.527   5.604  0.4261 -0.1176 -0.1102
 1660SOL    HW1 5790   3.070   3.576   5.562  1.8732  2.7557  0.6021
 1660SOL    HW2 5791   3.166   3.580   5.679  3.2531 -1.1121 -0.2603
 1661SOL     OW 5792   4.897   1.791   4.997 -0.2411  0.7258  0.0117
 1661SOL    HW1 5793   4.869   1.796   5.088 -0.3420 -1.4055  0.1606
 1661SOL    HW2 5794   4.846   1.857   4.952 -1.3767  0.7234  1.2411
 1662SOL     OW 5795   3.079   7.126   5.172 -0.2853 -0.3947  0.2258
 1662SOL    HW1 5796   3.135   7.050   5.187 -0.2039 -0.2878  0.4584
 1662SOL    HW2 5797   3.069   7.129   5.076 -0.0111 -0.4989  0.1917
 1663SOL     OW 5798   7.842   0.588   2.335  0.2282 -0.6434 -0.6094
 1663SOL    HW1 5799   7.771   0.564   2.274  0.5702 -1.6101 -0.6469
 1663SOL    HW2 5800   7.801   0.647   2.397  0.3715  2.2361 -3.0452
 1664SOL     OW 5801   3.021   2.941   6.680 -0.4915 -0.1796  0.4124
 1664SOL    HW1 5802   2.980   2.920   6.764 -2.0734  0.2515 -0.2159
 1664SOL    HW2 5803   3.064   2.860   6.653 -3.0773 -1.4711 -0.0812
 1665SOL     OW 5804   5.515   5.840   3.084 -0.3819  0.1261 -0.1021
 1665SOL    HW1 5805   5.431   5.819   3.041 -0.9992  0.0423  1.0992
 1665SOL    HW2 5806   5.552   5.909   3.030 -1.2124  0.1428 -0.6831
 1666SOL     OW 5807   2.447   5.872   7.176  0.2753  0.4787  0.1350
 1666SOL    HW1 5808   2.524   5.817   7.188 -1.1250 -1.4813  0.5480
 1666SOL    HW2 5809   2.413   5.887   7.264 -1.2457 -0.8808 -0.1705
 1667SOL     OW 5810   5.171   4.718   1.396 -0.5872 -0.8706  0.6792
 1667SOL    HW1 5811   5.146   4.800   1.438 -4.1485 -1.1751 -0.4453
 1667SOL    HW2 5812   5.163   4.652   1.465  3.2991 -0.3471  1.8661
 1668SOL     OW 5813   6.677   5.403   4.725 -0.2383 -0.3230 -0.1418
 1668SOL    HW1 5814   6.767   5.421   4.697 -0.1556  0.2630  0.4873
 1668SOL    HW2 5815   6.660   5.467   4.794 -1.6518  0.5490 -1.2489
 1669SOL     OW 5816   4.331   0.167   4.762  0.3950 -0.0146 -0.2586
 1669SOL    HW1 5817   4.345   0.251   4.807 -1.1083  0.5085 -0.7115
 1669SOL    HW2 5818   4.263   0.123   4.813  0.2071 -0.3630 -0.7997
 1670SOL     OW 5819   5.648   7.100   2.058 -0.4197  0.8815 -0.1352
 1670SOL    HW1 5820   5.722   7.043   2.074 -0.1285  1.0927 -0.6911
 1670SOL    HW2 5821   5.652   7.119   1.964 -1.5041  0.4359 -0.2893
 1671SOL     OW 5822   5.981   7.616   3.513  0.6237  0.4455  0.0587
 1671SOL    HW1 5823   5.928   7.617   3.433  0.3397  2.9094  0.1975
 1671SOL    HW2 5824   6.004   7.524   3.526 -0.5649 -0.2019 -2.0253
 1672SOL     OW 5825   8.000   7.994   1.332 -0.6081  0.0373  0.2997
 1672SOL    HW1 5826   7.952   7.979   1.251 -1.3392 -0.1382  0.7522
 1672SOL    HW2 5827   7.961   7.933   1.395  0.0073  0.1044  0.7633
 1673SOL     OW 5828   2.702   6.944   2.171 -0.0974  0.5111  0.4201
 1673SOL    HW1 5829   2.726   7.029   2.135  1.1383 -1.1469 -3.1663
 1673SOL    HW2 5830   2.782   6.911   2.210 -0.2723  0.5152  0.7863
 1674SOL     OW 5831   0.674   1.764   1.470 -0.3834  0.1120 -0.2150
 1674SOL    HW1 5832   0.636   1.803   1.391  0.4032  0.6300 -0.3544
 1674SOL    HW2 5833   0.598   1.745   1.526 -0.8307  1.5873 -0.2657
 1675SOL     OW 5834   2.550   1.686   4.863 -0.1484 -0.9906 -0.2962
 1675SOL    HW1 5835   2.612   1.665   4.933  0.9713  1.4272 -0.4544
 1675SOL    HW2 5836   2.594   1.657   4.783  1.2455  1.3509 -0.4826
 1676SOL     OW 5837   0.015   5.001   4.974 -0.3252 -0.5484 -0.0982
 1676SOL    HW1 5838   0.000   4.998   5.069 -0.0820 -0.2539 -0.0491
 1676SOL    HW2 5839  -0.054   5.059   4.941 -0.8621 -1.2275 -0.1981
 1677SOL     OW 5840   4.589   5.594   7.619 -0.2550  0.6250  0.0253
 1677SOL    HW1 5841   4.613   5.684   7.599  0.5283  0.0487 -1.7445
 1677SOL    HW2 5842   4.651   5.567   7.687 -0.7189  1.4968  0.8240
 1678SOL     OW 5843   7.390   3.349   5.619  0.4466  0.4931  0.1024
 1678SOL    HW1 5844   7.371   3.275   5.562 -1.9816  0.3509  0.9781
 1678SOL    HW2 5845   7.344   3.423   5.580  1.7342  1.2703 -0.0276
 1679SOL     OW 5846   1.542   1.551   2.098  0.0201  0.5115 -0.1652
 1679SOL    HW1 5847   1.566   1.584   2.011  1.9166  1.1595  0.5607
 1679SOL    HW2 5848   1.618   1.569   2.153 -1.1213  0.0871  1.6484
 1680SOL     OW 5849   5.650   3.465   7.474 -0.6717 -0.1169  0.0392
 1680SOL    HW1 5850   5.730   3.418   7.497 -1.2131 -0.6792  0.8360
 1680SOL    HW2 5851   5.680   3.541   7.425  0.3578 -0.2894  0.3765
 1681SOL     OW 5852   6.609   2.454   7.377 -0.2104  0.2321  0.2132
 1681SOL    HW1 5853   6.580   2.445   7.467  0.7563 -0.6544  0.4536
 1681SOL    HW2 5854   6.642   2.368   7.353  0.0563  0.5956 -0.8077
 1682SOL     OW 5855   5.357   7.215   3.697 -0.3751 -0.2792  0.3860
 1682SOL    HW1 5856   5.373   7.139   3.753  1.1577 -0.9214 -0.8246
 1682SOL    HW2 5857   5.262   7.218   3.686 -0.5031 -1.6338  0.9875
 1683SOL     OW 5858   3.310   6.936   0.088  0.2322  0.0516 -0.3828
 1683SOL    HW1 5859   3.354   6.932   0.173 -0.4164 -0.9015 -0.0675
 1683SOL    HW2 5860   3.258   7.017   0.092 -0.0129 -0.1335  0.2414
 1684SOL     OW 5861   4.351   7.495   3.444 -0.5434  0.8239  0.2773
 1684SOL    HW1 5862   4.345   7.522   3.536 -0.5435 -0.4464  0.6593
 1684SOL    HW2 5863   4.265   7.459   3.424 -0.9502  2.2123 -0.6078
 1685SOL     OW 5864   2.326   5.551   7.888  0.4559 -0.1284 -0.3344
 1685SOL    HW1 5865   2.273   5.631   7.882 -0.5408 -0.5206  1.9501
 1685SOL    HW2 5866   2.405   5.571   7.838  0.1290  2.2058 -0.0523
 1686SOL     OW 5867   7.269   6.893   1.670  0.7141  0.2197  0.1220
 1686SOL    HW1 5868   7.301   6.804   1.688  1.4565  0.0406 -1.8446
 1686SOL    HW2 5869   7.202   6.908   1.737  0.6071 -1.8119  0.5431
 1687SOL     OW 5870   5.135   0.723   2.244  0.3797  0.9657  0.3752
 1687SOL    HW1 5871   5.145   0.702   2.151  0.8051 -1.8265  0.9539
 1687SOL    HW2 5872   5.044   0.754   2.251 -0.5218 -1.1816 -0.6745
 1688SOL     OW 5873   5.386   6.354   7.739  0.2046 -0.4134  0.6212
 1688SOL    HW1 5874   5.386   6.385   7.830 -0.5113 -0.5183  0.6634
 1688SOL    HW2 5875   5.371   6.432   7.686 -0.8284 -0.5472  0.6853
 1689SOL     OW 5876   4.467   7.440   4.591 -0.4214 -0.0007 -0.2052
 1689SOL    HW1 5877   4.461   7.447   4.687 -0.9742  0.3146 -0.2607
 1689SOL    HW2 5878   4.399   7.499   4.558 -1.0233 -0.9938 -0.7811
 1690SOL     OW 5879   6.101   4.829   1.904 -0.1774 -0.2865 -0.2520
 1690SOL    HW1 5880   6.100   4.781   1.821 -0.2959  0.2945 -0.5878
 1690SOL    HW2 5881   6.165   4.782   1.958  0.3493 -0.3015 -0.8838
 1691SOL     OW 5882   7.713   5.307   3.372  0.0402  0.5408 -0.5496
 1691SOL    HW1 5883   7.717   5.347   3.459 -0.6340  2.0368 -1.1692
 1691SOL    HW2 5884   7.672   5.222   3.387 -1.0542  1.2139  0.4696
 1692SOL     OW 5885   7.056   2.011   0.141  0.6496  0.4577  0.0394
 1692SOL    HW1 5886   7.023   1.999   0.230 -1.1820  2.0162 -0.3625
 1692SOL    HW2 5887   7.078   1.923   0.111 -0.3372 -0.3012  1.4429
 1693SOL     OW 5888   1.359   2.270   1.509  0.1876  0.1944  0.6147
 1693SOL    HW1 5889   1.411   2.242   1.434 -1.6755  2.7208 -1.8661
 1693SOL    HW2 5890   1.416   2.331   1.556  0.8600 -0.2338  0.3733
 1694SOL     OW 5891   4.074   4.972   4.812 -0.2915 -0.1994 -0.0605
 1694SOL    HW1 5892   4.096   4.892   4.765 -0.7375 -1.1243  1.2576
 1694SOL    HW2 5893   4.158   5.018   4.822  0.1107 -0.9213 -0.0689
 1695SOL     OW 5894   4.577   7.002   6.690 -0.0018 -0.1967  0.4180
 1695SOL    HW1 5895   4.546   7.061   6.758  1.9919  0.1221  1.1267
 1695SOL    HW2 5896   4.505   6.941   6.676 -1.5025  1.4223  0.7883
 1696SOL     OW 5897   0.464   3.327   6.285  0.3743  0.0539 -0.2562
 1696SOL    HW1 5898   0.515   3.399   6.321 -0.6936  0.9063 -0.3986
 1696SOL    HW2 5899   0.419   3.366   6.209 -2.7532  0.1790  1.5048
 1697SOL     OW 5900   3.589   7.337   5.325  0.3030 -0.6424 -0.5170
 1697SOL    HW1 5901   3.649   7.287   5.269  0.7906 -1.0322  0.3391
 1697SOL    HW2 5902   3.637   7.418   5.343 -0.2093 -0.1372 -1.3521
 1698SOL     OW 5903   0.882   0.100   2.196 -0.2601  0.6932 -0.2405
 1698SOL    HW1 5904   0.957   0.153   2.169 -0.5742  0.7601 -0.9997
 1698SOL    HW2 5905   0.831   0.158   2.252 -0.5969  1.2031 -1.0621
 1699SOL     OW 5906   5.168   2.731   6.073  0.3931  0.3986 -0.4123
 1699SOL    HW1 5907   5.241   2.767   6.124  1.6761 -3.0564  0.5037
 1699SOL    HW2 5908   5.106   2.700   6.139 -0.1282 -0.0118 -1.0826
 1700SOL     OW 5909   0.271   4.140   6.410  0.0272 -0.7059 -0.3125
 1700SOL    HW1 5910   0.262   4.235   6.421  1.0136 -0.7679  1.2775
 1700SOL    HW2 5911   0.326   4.130   6.333  0.6872  0.0544  0.0485
 1701SOL     OW 5912   2.204   7.839   4.572 -0.2758  0.3654  0.0679
 1701SOL    HW1 5913   2.236   7.750   4.582 -0.5782  0.3297  0.7193
 1701SOL    HW2 5914   2.236   7.866   4.486  1.6486  0.3928  0.7559
 1702SOL     OW 5915   7.859   5.388   5.389 -0.0225  0.0448 -0.1164
 1702SOL    HW1 5916   7.802   5.339   5.330 -0.3737  1.0497 -0.6255
 1702SOL    HW2 5917   7.818   5.474   5.398  2.1214  1.3577 -1.7147
 1703SOL     OW 5918   4.303   4.550   0.957 -0.2687 -0.6807 -0.4935
 1703SOL    HW1 5919   4.395   4.574   0.942  0.1622 -3.2346 -2.6887
 1703SOL    HW2 5920   4.256   4.590   0.884 -0.7011 -0.4765 -0.1046
 1704SOL     OW 5921   2.640   3.505   6.815 -0.5205  0.0388 -0.2303
 1704SOL    HW1 5922   2.597   3.521   6.898  0.6076 -0.0035  0.3813
 1704SOL    HW2 5923   2.580   3.449   6.766 -0.7712 -0.7313  0.9323
 1705SOL     OW 5924   5.180   2.435   3.861 -0.0266  0.3294 -0.3782
 1705SOL    HW1 5925   5.194   2.521   3.899  0.0486 -0.1050  0.6144
 1705SOL    HW2 5926   5.266   2.408   3.829  0.4876 -0.3664  1.4783
 1706SOL     OW 5927   1.760   1.791   6.808 -0.4773  0.4594 -0.6714
 1706SOL    HW1 5928   1.849   1.759   6.791 -0.7596 -0.6266 -0.2167
 1706SOL    HW2 5929   1.728   1.736   6.879  0.2635  4.0623  2.7577
 1707SOL     OW 5930   5.474   0.433   5.747 -0.3847 -0.0319  0.1714
 1707SOL    HW1 5931   5.379   0.435   5.748 -0.4449 -1.5737  1.1183
 1707SOL    HW2 5932   5.497   0.435   5.654 -1.5361 -3.2866 -0.3147
 1708SOL     OW 5933   7.746   4.942   5.064  0.5089 -0.2348  0.0921
 1708SOL    HW1 5934   7.721   4.971   4.975  1.0854 -0.9032 -0.2933
 1708SOL    HW2 5935   7.694   4.863   5.078  1.1802 -0.7137 -0.0691
 1709SOL     OW 5936   3.075   4.476   0.715 -0.0462  0.3545  0.6220
 1709SOL    HW1 5937   2.990   4.518   0.699  0.0221 -0.1442 -1.3026
 1709SOL    HW2 5938   3.120   4.535   0.775 -1.4731  0.9910  1.1175
 1710SOL     OW 5939   2.797   1.539   6.423  0.2524 -0.3086  0.6024
 1710SOL    HW1 5940   2.709   1.556   6.389  1.0040  1.8440 -0.5058
 1710SOL    HW2 5941   2.807   1.603   6.494  1.1541 -0.0229  0.2287
 1711SOL     OW 5942   2.049   3.239   0.806 -0.1623 -0.0212 -0.1834
 1711SOL    HW1 5943   2.050   3.197   0.720  0.6167 -0.9427  0.2496
 1711SOL    HW2 5944   2.029   3.330   0.788 -0.0434 -0.2070 -1.3433
 1712SOL     OW 5945   6.441   7.132   6.438  0.2182  0.2710 -1.1651
 1712SOL    HW1 5946   6.411   7.056   6.488 -1.3815  1.1195 -0.7665
 1712SOL    HW2 5947   6.526   7.154   6.476  1.1861 -1.8434 -1.9137
 1713SOL     OW 5948   1.421   6.772   0.579  0.7933  0.4210 -0.4500
 1713SOL    HW1 5949   1.485   6.836   0.548  0.8291  0.6948  0.1782
 1713SOL    HW2 5950   1.466   6.688   0.573  0.5911  0.3829 -1.7133
 1714SOL     OW 5951   4.995   0.068   2.554  0.0779 -0.0112  0.3682
 1714SOL    HW1 5952   4.938   0.074   2.631 -0.0124 -1.8894  0.4926
 1714SOL    HW2 5953   5.060   0.138   2.567 -0.5050  0.3239  1.6631
 1715SOL     OW 5954   3.655   6.135   6.885  0.5203  0.6473 -0.0208
 1715SOL    HW1 5955   3.693   6.214   6.923  0.3645  0.1162  1.2699
 1715SOL    HW2 5956   3.726   6.096   6.834  2.1046 -0.8282  3.0896
 1716SOL     OW 5957   0.055   3.764   2.556  0.1405 -0.4369 -0.4496
 1716SOL    HW1 5958   0.108   3.722   2.488  0.8141  1.6915 -1.3239
 1716SOL    HW2 5959  -0.036   3.744   2.532  0.3405  0.7388 -2.3476
 1717SOL     OW 5960   2.363   2.019   1.746  0.7735 -0.2771 -0.9783
 1717SOL    HW1 5961   2.358   1.991   1.655  2.7709 -0.1394 -1.1658
 1717SOL    HW2 5962   2.398   1.944   1.793  0.3668 -0.1307 -0.4342
 1718SOL     OW 5963   4.122   5.727   7.403  0.2528 -0.6126 -0.3908
 1718SOL    HW1 5964   4.049   5.714   7.343 -0.1085 -0.8585  0.0859
 1718SOL    HW2 5965   4.118   5.819   7.427  0.8813 -0.3310 -1.3488
 1719SOL     OW 5966   5.244   6.620   6.069 -0.1726  0.8320 -0.3603
 1719SOL    HW1 5967   5.253   6.710   6.101 -0.3970  0.8519 -0.3512
 1719SOL    HW2 5968   5.151   6.601   6.077 -0.2280  0.8217 -0.9520
 1720SOL     OW 5969   3.328   7.913   6.010 -0.0534 -0.3354  0.4801
 1720SOL    HW1 5970   3.410   7.906   6.059 -0.5592 -1.5957  1.2012
 1720SOL    HW2 5971   3.305   7.823   5.988  0.6687  0.2155 -3.0655
 1721SOL     OW 5972   1.259   5.711   5.602 -0.0114  0.3175 -0.3117
 1721SOL    HW1 5973   1.237   5.737   5.691  1.4101  0.7520 -0.0607
 1721SOL    HW2 5974   1.350   5.737   5.591  0.1164 -0.5630 -1.5887
 1722SOL     OW 5975   1.492   2.400   2.970 -0.0459 -0.4077 -0.1869
 1722SOL    HW1 5976   1.445   2.465   3.023 -0.0916 -1.8639  1.6702
 1722SOL    HW2 5977   1.451   2.406   2.883 -1.9319  0.1482  0.6778
 1723SOL     OW 5978   6.271   6.314   1.169  0.2253 -0.3198 -0.3892
 1723SOL    HW1 5979   6.346   6.354   1.126 -0.2918  1.3299  0.1572
 1723SOL    HW2 5980   6.222   6.388   1.205 -0.6680 -1.4800  0.8788
 1724SOL     OW 5981   5.621   2.017   0.183  0.2263  0.2645 -0.0256
 1724SOL    HW1 5982   5.592   2.090   0.129  1.4855  0.4449 -0.4984
 1724SOL    HW2 5983   5.588   2.037   0.270  2.8057  2.9004  0.5160
 1725SOL     OW 5984   4.206   1.285   6.109 -0.2993  0.1198 -0.4445
 1725SOL    HW1 5985   4.242   1.330   6.185  0.1182 -0.0869 -0.5151
 1725SOL    HW2 5986   4.266   1.211   6.094 -0.4047  0.1296 -0.9398
 1726SOL     OW 5987   5.197   6.974   3.697  0.6103  0.1703 -0.3036
 1726SOL    HW1 5988   5.134   7.008   3.634 -0.4761 -0.3031  0.4889
 1726SOL    HW2 5989   5.143   6.933   3.765  1.5048  3.1359  2.4839
 1727SOL     OW 5990   7.932   4.502   5.532 -0.1216 -0.8526 -0.0187
 1727SOL    HW1 5991   8.025   4.515   5.552 -0.1017  1.5574 -1.3086
 1727SOL    HW2 5992   7.902   4.587   5.499 -2.9249 -1.4199  0.7695
 1728SOL     OW 5993   0.771   6.951   0.073 -0.6815  0.2968 -0.4521
 1728SOL    HW1 5994   0.713   6.952  -0.003 -3.1476 -0.7234  1.2880
 1728SOL    HW2 5995   0.826   6.873   0.060  0.0155  0.9686 -1.8504
 1729SOL     OW 5996   4.811   3.796   4.813  0.5925  0.0968 -0.6488
 1729SOL    HW1 5997   4.836   3.887   4.829  1.4885 -0.0959 -0.8590
 1729SOL    HW2 5998   4.860   3.771   4.735  4.1659 -1.9578  1.9197
 1730SOL     OW 5999   1.179   2.028   0.772 -0.4712 -0.4873 -0.4534
 1730SOL    HW1 6000   1.232   2.106   0.784  0.6242 -1.1499 -0.7880
 1730SOL    HW2 6001   1.148   2.005   0.860 -1.4257  0.7205 -0.4510
 1731SOL     OW 6002   6.821   2.699   5.084  0.4069  0.2937 -0.2314
 1731SOL    HW1 6003   6.806   2.772   5.144 -1.1828  1.1798 -1.5937
 1731SOL    HW2 6004   6.914   2.678   5.093  0.2073  0.2578  2.6030
 1732SOL     OW 6005   5.319   7.059   7.396 -0.7516 -0.5884 -0.7717
 1732SOL    HW1 6006   5.360   7.089   7.315 -1.3221  1.1827 -0.4511
 1732SOL    HW2 6007   5.362   6.976   7.415  1.9042  0.5950 -1.0539
 1733SOL     OW 6008   6.088   6.067   4.837  0.1820 -0.1860 -0.1762
 1733SOL    HW1 6009   6.095   5.996   4.901 -0.5244 -0.7258 -0.6708
 1733SOL    HW2 6010   5.994   6.076   4.822  0.2406  1.1540  0.1934
 1734SOL     OW 6011   1.864   5.324   6.861 -0.2781  0.5948 -0.6886
 1734SOL    HW1 6012   1.822   5.314   6.775  0.7870 -0.7815 -1.0836
 1734SOL    HW2 6013   1.955   5.299   6.846 -0.3054 -0.7541  1.0509
 1735SOL     OW 6014   7.422   5.039   2.457 -0.1040 -0.0856 -0.3907
 1735SOL    HW1 6015   7.386   4.982   2.390 -0.1152  0.1128 -0.5545
 1735SOL    HW2 6016   7.394   4.999   2.540  2.0073 -1.7455 -0.3927
 1736SOL     OW 6017   0.327   4.897   2.855  0.2390  0.5846  0.5258
 1736SOL    HW1 6018   0.241   4.899   2.812  1.3951 -1.5856 -2.1928
 1736SOL    HW2 6019   0.384   4.947   2.797  0.9678  1.6121  2.0700
 1737SOL     OW 6020   6.683   0.238   5.077 -0.2325  0.5808  0.3470
 1737SOL    HW1 6021   6.674   0.333   5.079  0.5118  0.6712 -0.1354
 1737SOL    HW2 6022   6.607   0.205   5.124 -1.9107  1.3398 -1.6842
 1738SOL     OW 6023   6.014   4.522   4.735 -0.2047  0.1467 -0.1801
 1738SOL    HW1 6024   6.041   4.502   4.645  2.3564  0.1972  0.4742
 1738SOL    HW2 6025   5.970   4.442   4.765 -0.2881 -0.2075 -1.1931
 1739SOL     OW 6026   1.200   5.259   4.672  0.0968  0.6952  0.0632
 1739SOL    HW1 6027   1.207   5.166   4.694  0.6223  1.2681  2.7486
 1739SOL    HW2 6028   1.226   5.264   4.580  0.7533 -1.7134  0.0309
 1740SOL     OW 6029   6.843   2.641   1.875 -0.2375  0.0698 -0.3615
 1740SOL    HW1 6030   6.884   2.586   1.807  2.3714  2.8580 -1.2797
 1740SOL    HW2 6031   6.754   2.655   1.844 -0.0132 -1.1106 -1.6711
 1741SOL     OW 6032   6.641   6.639   7.762 -0.4478  0.5260  0.6448
 1741SOL    HW1 6033   6.711   6.700   7.739 -1.0380  0.6314 -1.0081
 1741SOL    HW2 6034   6.647   6.569   7.697 -1.3013  0.0711  1.0276
 1742SOL     OW 6035   5.583   5.024   0.471 -0.0936  0.0619 -0.4983
 1742SOL    HW1 6036   5.525   4.971   0.416 -1.6358 -1.5344  2.4397
 1742SOL    HW2 6037   5.524   5.083   0.519  0.9767  0.2139  0.6838
 1743SOL     OW 6038   1.914   5.260   0.920 -0.1996 -0.2339  0.7042
 1743SOL    HW1 6039   1.821   5.276   0.906 -0.2347 -0.3459  0.8136
 1743SOL    HW2 6040   1.921   5.235   1.012 -0.2436 -1.5710  0.3622
 1744SOL     OW 6041   4.733   2.448   1.454 -0.1083  0.5977 -0.0965
 1744SOL    HW1 6042   4.699   2.526   1.409 -0.8962  0.1041 -0.3847
 1744SOL    HW2 6043   4.669   2.380   1.434  1.8393 -0.8082 -1.9532
 1745SOL     OW 6044   7.138   3.275   5.313  0.2518 -0.2540 -0.3432
 1745SOL    HW1 6045   7.210   3.216   5.332  0.1922 -0.2274 -0.0329
 1745SOL    HW2 6046   7.086   3.277   5.394  1.0295  1.3400  0.1623
 1746SOL     OW 6047   2.488   4.274   6.529 -0.6130 -0.7484  0.2918
 1746SOL    HW1 6048   2.494   4.218   6.607  0.1947  0.9072  1.4799
 1746SOL    HW2 6049   2.407   4.323   6.541  0.1278  0.4032  0.7473
 1747SOL     OW 6050   0.484   1.650   5.881 -0.3084 -0.0796  0.0673
 1747SOL    HW1 6051   0.524   1.731   5.847 -1.0817 -0.5779 -2.1874
 1747SOL    HW2 6052   0.417   1.681   5.941 -0.4320  0.9802 -0.5724
 1748SOL     OW 6053   5.280   2.341   0.453 -1.1118  0.2807  0.1544
 1748SOL    HW1 6054   5.248   2.427   0.428  0.5865  1.2977  1.2707
 1748SOL    HW2 6055   5.299   2.348   0.547  1.4771 -0.4651 -0.2238
 1749SOL     OW 6056   6.638   4.054   6.532  0.7809 -0.4346  0.5160
 1749SOL    HW1 6057   6.733   4.059   6.529  0.7222  1.9422  0.6109
 1749SOL    HW2 6058   6.610   4.065   6.441  0.5972  1.5315  0.7555
 1750SOL     OW 6059   2.363   6.638   2.023  0.3992 -0.0150  0.2770
 1750SOL    HW1 6060   2.433   6.701   2.010  0.2855 -0.2312 -1.5533
 1750SOL    HW2 6061   2.397   6.578   2.090  2.0849 -0.2808 -0.7656
 1751SOL     OW 6062   2.673   0.481   5.963 -0.2044 -0.5252 -0.0932
 1751SOL    HW1 6063   2.749   0.535   5.943 -0.4027 -0.3441 -0.3816
 1751SOL    HW2 6064   2.628   0.472   5.879 -0.7267 -0.2703  0.1531
 1752SOL     OW 6065   4.909   1.685   4.328 -0.3431 -0.4354  0.3841
 1752SOL    HW1 6066   4.937   1.776   4.315  0.7804 -0.4754  2.1568
 1752SOL    HW2 6067   4.814   1.688   4.320 -0.5052  1.2761  2.1227
 1753SOL     OW 6068   3.201   6.629   4.896 -1.1511 -0.0913 -0.0460
 1753SOL    HW1 6069   3.115   6.636   4.937 -1.5743 -2.2005 -0.4511
 1753SOL    HW2 6070   3.254   6.696   4.940 -2.7559  0.6849  0.7963
 1754SOL     OW 6071   4.793   5.519   7.801 -0.2184  0.3982  0.1731
 1754SOL    HW1 6072   4.803   5.427   7.827  0.0564 -0.1645 -1.7435
 1754SOL    HW2 6073   4.826   5.569   7.876 -0.0501 -1.0628  1.1163
 1755SOL     OW 6074   3.671   4.085   0.662  0.2508  0.4268  0.3236
 1755SOL    HW1 6075   3.576   4.095   0.660  0.2665  0.4681 -0.5182
 1755SOL    HW2 6076   3.685   3.990   0.667  0.1680  0.4269  0.5713
 1756SOL     OW 6077   6.672   3.424   5.193  0.0284  0.4101  0.1473
 1756SOL    HW1 6078   6.748   3.479   5.210 -0.6039  1.3977 -0.1362
 1756SOL    HW2 6079   6.700   3.335   5.215  1.0642  0.8493  0.6120
 1757SOL     OW 6080   6.719   3.384   0.687 -0.3149  0.4030 -0.1320
 1757SOL    HW1 6081   6.801   3.343   0.717  0.0449  0.5131 -0.9364
 1757SOL    HW2 6082   6.674   3.315   0.639 -0.7311  0.3288  0.3511
 1758SOL     OW 6083   0.677   6.845   1.921  0.2888 -0.2550  0.0033
 1758SOL    HW1 6084   0.617   6.871   1.991 -0.3174  0.8360 -0.8939
 1758SOL    HW2 6085   0.668   6.749   1.917 -1.1508 -0.1518  0.1057
 1759SOL     OW 6086   0.772   1.084   2.113 -0.1544 -0.2587  0.1071
 1759SOL    HW1 6087   0.760   1.113   2.022 -0.5235  0.0479  0.2491
 1759SOL    HW2 6088   0.790   0.990   2.106  0.0469 -0.1928 -0.2969
 1760SOL     OW 6089   3.130   1.921   7.222  0.2227 -0.1388 -0.9725
 1760SOL    HW1 6090   3.193   1.903   7.152  0.8566  0.2189 -0.5036
 1760SOL    HW2 6091   3.078   1.995   7.190  0.9666  0.4761 -0.7869
 1761SOL     OW 6092   5.711   4.398   2.631 -0.4054 -0.5898  0.1858
 1761SOL    HW1 6093   5.807   4.392   2.639 -0.3631 -1.0176 -0.6130
 1761SOL    HW2 6094   5.680   4.394   2.722  0.3667  0.2364  0.5008
 1762SOL     OW 6095   7.277   2.869   3.525 -0.2752  0.8514 -0.3871
 1762SOL    HW1 6096   7.351   2.885   3.585  0.3290  0.6797 -1.0683
 1762SOL    HW2 6097   7.232   2.793   3.562  0.4743  0.3410 -0.4884
 1763SOL     OW 6098   1.825   3.960   1.239 -0.4365 -0.0607 -0.5786
 1763SOL    HW1 6099   1.829   4.052   1.212 -0.6094 -0.3846 -1.7521
 1763SOL    HW2 6100   1.870   3.912   1.169  0.6053 -0.7780  0.5367
 1764SOL     OW 6101   6.529   7.985   2.233 -0.7301 -0.3001  0.1193
 1764SOL    HW1 6102   6.570   8.051   2.177 -1.9520  0.2100 -0.2111
 1764SOL    HW2 6103   6.505   8.033   2.312 -0.0707 -0.7524  0.5990
 1765SOL     OW 6104   5.120   7.832   5.404  0.0700 -0.1310 -0.4196
 1765SOL    HW1 6105   5.133   7.907   5.347  0.6521  0.7204  0.7989
 1765SOL    HW2 6106   5.028   7.808   5.392  0.2464 -0.1485 -1.8858
 1766SOL     OW 6107   5.611   7.538   3.031 -0.9947  0.0925  0.3881
 1766SOL    HW1 6108   5.689   7.491   3.059  0.0723  1.3464 -0.3784
 1766SOL    HW2 6109   5.569   7.565   3.113 -0.7456 -0.7740  0.8059
 1767SOL     OW 6110   2.243   3.074   2.808  0.6994  0.0527  0.3313
 1767SOL    HW1 6111   2.169   3.015   2.793  0.3471  0.5533  0.0509
 1767SOL    HW2 6112   2.318   3.017   2.818  0.5328 -0.4109 -0.9246
 1768SOL     OW 6113   3.857   0.986   0.444  0.0473 -0.3661  0.1687
 1768SOL    HW1 6114   3.790   0.969   0.510 -1.9466 -1.1640 -1.9273
 1768SOL    HW2 6115   3.808   0.999   0.363  2.2773  2.1256 -0.9492
 1769SOL     OW 6116   5.392   7.039   6.016 -0.1651 -0.1563  0.5858
 1769SOL    HW1 6117   5.465   7.100   6.012  1.1291 -1.7124 -0.9300
 1769SOL    HW2 6118   5.418   6.972   6.079  0.2890 -1.3438 -0.8031
 1770SOL     OW 6119   0.910   1.819   7.514 -0.2904 -0.5652 -0.1222
 1770SOL    HW1 6120   0.820   1.835   7.542  0.0738  0.5289  0.4803
 1770SOL    HW2 6121   0.918   1.865   7.431  0.3383  1.2686  0.9103
 1771SOL     OW 6122   4.283   1.831   6.630  0.1048 -0.2456 -0.2399
 1771SOL    HW1 6123   4.272   1.841   6.725 -1.6501  1.5784 -0.5697
 1771SOL    HW2 6124   4.286   1.921   6.597 -2.1761 -0.7848 -2.1751
 1772SOL     OW 6125   2.111   7.201   7.740 -0.3962  0.3726 -0.6023
 1772SOL    HW1 6126   2.184   7.145   7.768 -0.4588  0.3512 -0.4820
 1772SOL    HW2 6127   2.033   7.155   7.770 -0.4328  0.7153 -0.1542
 1773SOL     OW 6128   5.664   7.158   2.385 -0.0700  0.0763 -0.2327
 1773SOL    HW1 6129   5.635   7.088   2.443 -0.6514  0.1478 -0.4386
 1773SOL    HW2 6130   5.736   7.200   2.433 -2.4258  2.0366  1.8283
 1774SOL     OW 6131   4.695   4.687   0.370  0.2055  0.1132  0.4654
 1774SOL    HW1 6132   4.705   4.635   0.450 -1.0659  0.7752  1.0721
 1774SOL    HW2 6133   4.772   4.745   0.369  0.7941 -0.6476  0.6137
 1775SOL     OW 6134   6.052   1.713   4.736 -0.0147 -0.0401  0.9577
 1775SOL    HW1 6135   6.063   1.640   4.675 -0.1732 -0.5106  1.4892
 1775SOL    HW2 6136   5.988   1.770   4.694  1.5845  0.8407 -0.4271
 1776SOL     OW 6137   7.857   0.117   4.911  0.1335 -0.0158 -0.0971
 1776SOL    HW1 6138   7.916   0.132   4.838 -0.0154  0.9254 -0.0357
 1776SOL    HW2 6139   7.871   0.025   4.935  1.8157  0.2680  0.1451
 1777SOL     OW 6140   4.478   7.421   1.485 -0.0110  0.3304  0.4566
 1777SOL    HW1 6141   4.444   7.422   1.574  1.0506  1.7767  0.8879
 1777SOL    HW2 6142   4.425   7.484   1.438  1.0002  1.4243  0.7323
 1778SOL     OW 6143   0.800   5.781   2.965 -0.6270  0.6494 -0.0969
 1778SOL    HW1 6144   0.892   5.762   2.949 -0.9634 -1.7151  0.3867
 1778SOL    HW2 6145   0.753   5.737   2.894 -1.4692 -0.0804  0.8783
 1779SOL     OW 6146   6.543   1.593   7.920 -0.4310  0.4297 -0.2414
 1779SOL    HW1 6147   6.553   1.601   8.015  0.4848  1.1322 -0.3867
 1779SOL    HW2 6148   6.527   1.682   7.890 -0.9449  0.1790 -0.7316
 1780SOL     OW 6149   2.529   4.836   2.133 -0.0715 -0.3572  0.1084
 1780SOL    HW1 6150   2.482   4.875   2.059  1.7003 -0.7531 -1.3045
 1780SOL    HW2 6151   2.543   4.745   2.107  3.0318  0.1725 -0.4583
 1781SOL     OW 6152   1.210   4.247   5.428  0.1007 -0.2063 -0.3707
 1781SOL    HW1 6153   1.236   4.157   5.408  0.0945 -1.1758  3.2630
 1781SOL    HW2 6154   1.124   4.257   5.388 -0.3148 -2.2046 -0.0859
 1782SOL     OW 6155   5.532   2.808   6.962  0.1306 -0.5916  0.2054
 1782SOL    HW1 6156   5.437   2.807   6.947  0.2597 -0.7257 -0.6610
 1782SOL    HW2 6157   5.542   2.785   7.055 -0.7659  1.2002  0.7816
 1783SOL     OW 6158   6.672   6.678   6.181  0.2493  0.4404 -0.3172
 1783SOL    HW1 6159   6.696   6.688   6.089 -0.0640 -1.6523 -0.6697
 1783SOL    HW2 6160   6.581   6.649   6.179  0.1102  0.7597  0.6915
 1784SOL     OW 6161   6.041   0.794   3.631 -0.2205 -0.8525  0.5063
 1784SOL    HW1 6162   6.098   0.748   3.692  0.3267 -1.7668 -0.6448
 1784SOL    HW2 6163   6.082   0.781   3.545 -0.0633  1.8087  0.1143
 1785SOL     OW 6164   5.781   7.169   7.194 -0.4302  0.3138  0.2791
 1785SOL    HW1 6165   5.755   7.207   7.278  0.7385 -0.6102  1.0901
 1785SOL    HW2 6166   5.876   7.169   7.196 -0.3877 -1.1455 -0.3785
 1786SOL     OW 6167   2.015   3.396   3.145 -0.5033 -0.5773 -0.1815
 1786SOL    HW1 6168   2.039   3.370   3.233 -2.2851  1.5221  1.0347
 1786SOL    HW2 6169   2.046   3.486   3.137 -1.4340 -0.3207 -1.2223
 1787SOL     OW 6170   0.982   6.188   7.656 -0.5676 -0.2157  0.2876
 1787SOL    HW1 6171   0.926   6.263   7.639 -0.7382 -0.6188 -1.0478
 1787SOL    HW2 6172   1.051   6.221   7.713 -0.2377  1.1336 -0.8586
 1788SOL     OW 6173   5.368   2.663   1.714 -0.3181 -0.0358 -0.4657
 1788SOL    HW1 6174   5.390   2.671   1.807 -0.0864  0.6751 -0.5759
 1788SOL    HW2 6175   5.278   2.630   1.714 -0.4062  0.1944  0.0122
 1789SOL     OW 6176   4.383   4.211   4.600  0.8980  0.6188  0.1434
 1789SOL    HW1 6177   4.387   4.118   4.623  0.5222  0.6816  0.4739
 1789SOL    HW2 6178   4.417   4.215   4.511 -1.2786 -0.1627 -0.7679
 1790SOL     OW 6179   5.195   2.664   7.404 -0.3732  0.4510 -0.2423
 1790SOL    HW1 6180   5.114   2.613   7.401 -0.4871  0.5636  0.7144
 1790SOL    HW2 6181   5.248   2.620   7.470 -0.5978  1.7385  0.8283
 1791SOL     OW 6182   6.907   7.860   0.649  0.1598 -0.2079  0.0604
 1791SOL    HW1 6183   6.845   7.854   0.722  0.2059 -1.3691  0.0286
 1791SOL    HW2 6184   6.989   7.888   0.689 -0.4694  1.7853  0.0384
 1792SOL     OW 6185   4.085   1.593   3.740 -0.2532  0.1616  0.2295
 1792SOL    HW1 6186   4.178   1.575   3.749 -0.3833 -1.0987 -0.7240
 1792SOL    HW2 6187   4.042   1.517   3.778 -0.8310 -0.8786 -2.2620
 1793SOL     OW 6188   4.985   5.824   6.722  0.5215 -0.6111  0.1093
 1793SOL    HW1 6189   4.975   5.891   6.790  0.8506  1.0330 -1.3705
 1793SOL    HW2 6190   4.978   5.741   6.768 -0.9622  0.4322  1.8881
 1794SOL     OW 6191   7.351   2.032   3.002 -0.2150  0.2246  0.1730
 1794SOL    HW1 6192   7.314   2.105   3.051  2.8022  0.6118  2.1092
 1794SOL    HW2 6193   7.386   1.973   3.069  1.7252 -0.5529 -1.4278
 1795SOL     OW 6194   0.433   1.341   6.549 -0.0485  0.1315  0.1130
 1795SOL    HW1 6195   0.521   1.372   6.570 -0.0448  0.3725 -0.2420
 1795SOL    HW2 6196   0.438   1.246   6.559  0.5911  0.0218 -1.0772
 1796SOL     OW 6197   6.844   2.225   3.615 -0.1075 -0.5120 -0.1987
 1796SOL    HW1 6198   6.756   2.188   3.608 -0.0573 -0.3722 -1.7251
 1796SOL    HW2 6199   6.885   2.207   3.531  0.7860  0.8190 -0.0744
 1797SOL     OW 6200   6.559   6.378   4.162 -0.0748  0.1834  0.4340
 1797SOL    HW1 6201   6.477   6.339   4.133 -0.1298  0.8381 -0.3483
 1797SOL    HW2 6202   6.602   6.310   4.214 -0.9680 -0.2688  0.5905
 1798SOL     OW 6203   6.342   3.460   1.948  0.0513  1.1183 -0.1039
 1798SOL    HW1 6204   6.360   3.481   1.857  0.0001  0.1105 -0.3567
 1798SOL    HW2 6205   6.427   3.434   1.985  0.1720  2.0345  0.2861
 1799SOL     OW 6206   1.623   6.524   1.916 -0.0640 -0.5248  0.3763
 1799SOL    HW1 6207   1.579   6.531   1.831  0.5519 -1.4416 -0.0342
 1799SOL    HW2 6208   1.619   6.612   1.952  2.3152  0.6643 -1.9495
 1800SOL     OW 6209   4.233   4.023   3.342 -0.5553  0.0482  0.3678
 1800SOL    HW1 6210   4.318   4.064   3.326 -0.6934  0.5880  0.9798
 1800SOL    HW2 6211   4.180   4.091   3.384 -2.0325  0.4307 -1.9268
 1801SOL     OW 6212   4.764   3.032   7.466  0.1283 -0.3323 -0.5466
 1801SOL    HW1 6213   4.835   3.079   7.422  0.4664  0.1548  0.4789
 1801SOL    HW2 6214   4.694   3.029   7.401  0.7948 -0.1148 -1.3033
 1802SOL     OW 6215   2.584   3.700   7.279  0.4004  0.6487 -0.2999
 1802SOL    HW1 6216   2.514   3.652   7.323 -0.3446  0.4615 -1.6457
 1802SOL    HW2 6217   2.663   3.648   7.297 -0.2278 -0.5590 -0.8576
 1803SOL     OW 6218   3.090   5.336   1.451  0.0625 -0.1745 -0.2971
 1803SOL    HW1 6219   3.093   5.241   1.454 -0.1311 -0.1913 -0.6054
 1803SOL    HW2 6220   3.142   5.364   1.526 -0.2387 -0.5235  0.0468
 1804SOL     OW 6221   6.006   2.994   2.938  0.2515 -0.1531  0.4955
 1804SOL    HW1 6222   5.987   3.088   2.940  0.1447 -0.0470 -2.2566
 1804SOL    HW2 6223   5.936   2.955   2.990 -0.6948  1.1631  0.2637
 1805SOL     OW 6224   7.517   5.400   7.361 -0.2221 -0.3158 -0.2380
 1805SOL    HW1 6225   7.555   5.357   7.438 -1.0441  0.7531  0.8084
 1805SOL    HW2 6226   7.422   5.394   7.376 -0.3684  1.9343  0.0345
 1806SOL     OW 6227   6.759   4.240   1.450 -0.1601  0.2482 -0.3673
 1806SOL    HW1 6228   6.801   4.325   1.434  0.6444  0.1634  1.0675
 1806SOL    HW2 6229   6.738   4.241   1.544  0.5267 -1.4281 -0.1609
 1807SOL     OW 6230   3.557   6.936   3.891 -0.1647  0.0290 -0.0989
 1807SOL    HW1 6231   3.538   6.985   3.971  1.4237 -0.2524  0.4927
 1807SOL    HW2 6232   3.652   6.943   3.880  0.0841 -2.5464 -0.2077
 1808SOL     OW 6233   1.233   3.339   2.730 -0.4962 -0.2268  0.1747
 1808SOL    HW1 6234   1.246   3.261   2.785 -2.9466 -0.3495  0.7180
 1808SOL    HW2 6235   1.139   3.339   2.713 -0.7601  3.2055  1.0583
 1809SOL     OW 6236   3.923   4.556   7.342  0.0225 -0.7759 -0.0445
 1809SOL    HW1 6237   3.975   4.486   7.381  0.3770 -1.4918 -1.6967
 1809SOL    HW2 6238   3.866   4.586   7.412  0.6282 -1.9725  1.0016
 1810SOL     OW 6239   4.490   4.879   5.624  0.0427 -0.2229 -0.0392
 1810SOL    HW1 6240   4.424   4.927   5.574 -0.7127  1.1607  2.1302
 1810SOL    HW2 6241   4.572   4.922   5.602 -0.2151  0.0918 -0.4002
 1811SOL     OW 6242   7.812   4.477   6.376 -0.1886 -0.1782  0.8539
 1811SOL    HW1 6243   7.716   4.472   6.369 -0.2326 -2.9172  2.0104
 1811SOL    HW2 6244   7.842   4.392   6.345  1.8533  0.4604  0.9738
 1812SOL     OW 6245   6.149   6.021   5.630 -0.3377  0.1058 -0.0883
 1812SOL    HW1 6246   6.120   6.058   5.713 -0.9412 -0.4796 -0.0274
 1812SOL    HW2 6247   6.135   6.090   5.566 -3.8107 -0.7234 -0.4393
 1813SOL     OW 6248   0.032   6.242   3.600  0.1944  0.5207  0.0164
 1813SOL    HW1 6249   0.102   6.237   3.666  0.6039 -0.7696 -0.4752
 1813SOL    HW2 6250   0.054   6.172   3.538 -1.0803  0.6588 -0.6075
 1814SOL     OW 6251   6.959   0.271   6.820 -0.1372 -0.1441  0.0947
 1814SOL    HW1 6252   6.985   0.282   6.728  0.8581  0.3557  0.4211
 1814SOL    HW2 6253   7.009   0.196   6.851  1.5359  1.2435  0.9209
 1815SOL     OW 6254   0.388   0.464   3.029 -0.1735  0.3301  0.5135
 1815SOL    HW1 6255   0.302   0.422   3.035 -1.1928  1.9750 -1.1681
 1815SOL    HW2 6256   0.411   0.456   2.937  1.8370 -0.6326  1.0530
 1816SOL     OW 6257   5.157   0.782   0.426  0.4908 -0.3398  0.4834
 1816SOL    HW1 6258   5.224   0.734   0.475 -1.5391 -1.2836  2.4581
 1816SOL    HW2 6259   5.083   0.722   0.421 -0.4193  0.8589 -1.2307
 1817SOL     OW 6260   2.015   2.459   3.873  0.4077 -0.1778  0.0327
 1817SOL    HW1 6261   2.093   2.420   3.914  0.0252  0.0980  1.0640
 1817SOL    HW2 6262   2.039   2.469   3.781  1.6696  0.0709  0.3626
 1818SOL     OW 6263   4.562   2.341   6.819 -0.3872  0.2166 -0.1604
 1818SOL    HW1 6264   4.632   2.392   6.861  0.1065 -0.2672 -0.3819
 1818SOL    HW2 6265   4.576   2.355   6.725 -1.1456  0.8429 -0.1942
 1819SOL     OW 6266   5.003   5.062   2.355 -0.0398 -0.4910 -0.0328
 1819SOL    HW1 6267   5.062   4.988   2.341  0.0340 -0.3771 -0.3410
 1819SOL    HW2 6268   4.958   5.042   2.437 -1.1749 -1.6683 -0.9064
 1820SOL     OW 6269   1.622   3.807   0.371 -0.2552  0.2090 -0.0097
 1820SOL    HW1 6270   1.576   3.875   0.419 -0.7950  1.9721 -2.8022
 1820SOL    HW2 6271   1.555   3.742   0.351 -0.8139  1.0962 -1.1305
 1821SOL     OW 6272   1.024   1.232   5.739  0.0865 -0.5574 -0.5545
 1821SOL    HW1 6273   0.999   1.291   5.811 -0.6829 -0.1933 -1.0984
 1821SOL    HW2 6274   0.968   1.259   5.666  1.2403 -0.5530 -1.4622
 1822SOL     OW 6275   0.855   6.027   4.959 -0.3865  0.3148 -0.2860
 1822SOL    HW1 6276   0.926   5.974   4.996 -1.9244 -1.3351  0.5101
 1822SOL    HW2 6277   0.882   6.118   4.974  1.6662 -0.2433 -0.3006
 1823SOL     OW 6278   2.768   5.556   4.125  0.1694 -0.2974  0.0219
 1823SOL    HW1 6279   2.717   5.493   4.175 -1.0532  0.5820 -0.0780
 1823SOL    HW2 6280   2.810   5.505   4.056 -1.2600 -0.9162 -0.4127
 1824SOL     OW 6281   5.525   2.324   1.406 -0.2181  0.2905 -0.6381
 1824SOL    HW1 6282   5.605   2.375   1.419 -0.7527  1.5653 -1.9339
 1824SOL    HW2 6283   5.511   2.278   1.488  0.2871  2.3213  0.6630
 1825SOL     OW 6284   1.913   1.546   4.848  0.1081 -0.8031 -0.2147
 1825SOL    HW1 6285   1.979   1.591   4.794 -0.7168  0.7193 -0.0236
 1825SOL    HW2 6286   1.962   1.481   4.897  1.3605 -0.1913 -0.6101
 1826SOL     OW 6287   2.392   6.121   2.459 -0.0715 -0.2843 -0.1253
 1826SOL    HW1 6288   2.370   6.028   2.455  1.2108 -0.6633  1.0604
 1826SOL    HW2 6289   2.364   6.149   2.546 -0.0123  0.3275 -0.2968
 1827SOL     OW 6290   1.850   5.806   7.501  0.3869  0.3269 -0.0737
 1827SOL    HW1 6291   1.776   5.860   7.529 -0.1156  0.5253 -1.6937
 1827SOL    HW2 6292   1.810   5.737   7.447  1.4179  0.9010 -1.6383
 1828SOL     OW 6293   1.301   6.275   2.083 -0.0854  0.0371  0.0918
 1828SOL    HW1 6294   1.380   6.240   2.123  0.5055  0.1397 -0.9511
 1828SOL    HW2 6295   1.325   6.364   2.057 -1.3722  1.0615  2.1577
 1829SOL     OW 6296   0.753   2.753   5.983  0.1557 -0.2054 -0.7983
 1829SOL    HW1 6297   0.680   2.815   5.987 -0.4201 -0.8230 -1.5443
 1829SOL    HW2 6298   0.735   2.690   6.052  0.7309  0.4177 -0.0525
 1830SOL     OW 6299   5.062   7.903   0.385 -0.2915  0.0041 -0.1509
 1830SOL    HW1 6300   5.153   7.886   0.362 -0.5860 -0.3469 -1.1653
 1830SOL    HW2 6301   5.030   7.961   0.316 -1.1438 -0.8415 -0.5112
 1831SOL     OW 6302   4.481   5.481   6.003  0.1462  0.4624  0.3757
 1831SOL    HW1 6303   4.479   5.386   6.019  2.1793  0.0616 -1.3359
 1831SOL    HW2 6304   4.509   5.518   6.087 -0.2370 -0.4939  0.9466
 1832SOL     OW 6305   4.207   7.258   6.008 -0.7572  0.0658 -0.0652
 1832SOL    HW1 6306   4.165   7.313   5.942 -0.4840 -1.0601 -1.2036
 1832SOL    HW2 6307   4.144   7.254   6.080 -1.0777  1.2632 -0.2506
 1833SOL     OW 6308   4.299   2.877   3.791  0.6025  0.2825  0.6725
 1833SOL    HW1 6309   4.263   2.866   3.704  0.2476  0.3956  0.8056
 1833SOL    HW2 6310   4.341   2.963   3.789 -1.2790  1.2604  1.2586
 1834SOL     OW 6311   2.219   4.781   0.862  0.6248  0.0643 -0.5064
 1834SOL    HW1 6312   2.288   4.747   0.919 -1.0451  0.1773  1.7589
 1834SOL    HW2 6313   2.138   4.744   0.898 -0.4588 -0.9793 -3.7402
 1835SOL     OW 6314   3.309   6.024   3.928  0.1858  0.0482  0.3439
 1835SOL    HW1 6315   3.242   6.066   3.873 -1.9530 -1.5480  1.5743
 1835SOL    HW2 6316   3.316   6.081   4.005  0.7514  0.5617 -0.0820
 1836SOL     OW 6317   3.921   2.218   0.053 -0.2425  1.1752 -0.4191
 1836SOL    HW1 6318   3.858   2.285   0.080 -0.2184  1.0955 -0.1588
 1836SOL    HW2 6319   3.991   2.266   0.010  0.6177  1.5126  1.2723
 1837SOL     OW 6320   6.131   7.815   2.504 -0.4462 -0.3160  0.3790
 1837SOL    HW1 6321   6.207   7.767   2.471 -1.5641 -1.2089 -1.0498
 1837SOL    HW2 6322   6.144   7.905   2.474  2.2273  0.7187  4.0264
 1838SOL     OW 6323   2.120   3.364   3.409 -0.2163 -0.2542  0.3948
 1838SOL    HW1 6324   2.072   3.404   3.482  0.2443  0.1777  0.4660
 1838SOL    HW2 6325   2.203   3.410   3.407  1.2415 -2.5974  1.8243
 1839SOL     OW 6326   3.031   7.994   2.825  0.0863  0.1005 -0.3676
 1839SOL    HW1 6327   3.103   7.951   2.778  0.0147 -0.0740 -0.3218
 1839SOL    HW2 6328   2.954   7.976   2.771 -0.1041 -0.6433  0.1316
 1840SOL     OW 6329   4.487   3.703   5.352 -0.3364 -0.2149  0.1497
 1840SOL    HW1 6330   4.546   3.711   5.427 -0.2277  2.1742 -0.1188
 1840SOL    HW2 6331   4.505   3.616   5.316  2.9002  0.3088  0.1820
 1841SOL     OW 6332   1.066   3.498   2.976  0.4257 -0.4657 -0.2892
 1841SOL    HW1 6333   1.062   3.405   2.999 -4.5705 -0.8385 -1.5137
 1841SOL    HW2 6334   1.023   3.543   3.049 -2.2766  0.0452 -2.0420
 1842SOL     OW 6335   2.045   7.145   6.949 -0.1825  0.6101 -0.0281
 1842SOL    HW1 6336   2.064   7.178   6.861 -1.0389 -0.7390 -0.7590
 1842SOL    HW2 6337   1.951   7.159   6.960 -0.4303 -0.8695 -0.0817
 1843SOL     OW 6338   4.632   6.965   2.193  0.1676  0.1492  0.1637
 1843SOL    HW1 6339   4.693   6.926   2.256  1.6701  1.2336 -0.5900
 1843SOL    HW2 6340   4.683   6.979   2.114 -1.1497  0.7934 -0.6126
 1844SOL     OW 6341   3.735   6.121   0.798 -0.0525  0.0061  0.3086
 1844SOL    HW1 6342   3.654   6.082   0.765 -0.3775 -0.2353  1.3657
 1844SOL    HW2 6343   3.715   6.215   0.806  0.4039  0.2616 -1.2574
 1845SOL     OW 6344   0.286   1.282   6.258  0.4134 -0.5013  0.2571
 1845SOL    HW1 6345   0.289   1.264   6.352 -0.8378 -0.0465  0.4082
 1845SOL    HW2 6346   0.364   1.239   6.222 -0.1913 -2.5246  1.1927
 1846SOL     OW 6347   7.763   6.621   7.263 -0.2885  0.3721 -0.1758
 1846SOL    HW1 6348   7.805   6.641   7.180  0.4190  0.1588  0.1212
 1846SOL    HW2 6349   7.669   6.630   7.246 -0.1063  1.8419 -0.6051
 1847SOL     OW 6350   4.182   7.577   5.409  0.6755 -0.0041  0.0759
 1847SOL    HW1 6351   4.169   7.524   5.487 -2.6646  1.0063  0.3671
 1847SOL    HW2 6352   4.161   7.518   5.336 -1.2424  0.3248  0.3031
 1848SOL     OW 6353   7.577   6.187   1.225 -0.7004 -0.7007  0.8607
 1848SOL    HW1 6354   7.568   6.091   1.223  0.2684 -0.8034 -1.0754
 1848SOL    HW2 6355   7.627   6.204   1.305  1.5163 -2.1281 -0.1112
 1849SOL     OW 6356   5.131   1.896   4.531  0.1692  0.0318  0.3318
 1849SOL    HW1 6357   5.082   1.940   4.462 -0.3089 -0.7146  0.1817
 1849SOL    HW2 6358   5.190   1.837   4.485  1.0750  0.7794  0.5197
 1850SOL     OW 6359   4.435   4.116   0.238  0.0196  0.3695  0.2152
 1850SOL    HW1 6360   4.491   4.110   0.315  0.4578 -1.5760 -0.1933
 1850SOL    HW2 6361   4.346   4.104   0.273  0.2403 -0.8298  0.4177
 1851SOL     OW 6362   2.279   7.399   0.870 -0.1097 -0.2402 -0.1212
 1851SOL    HW1 6363   2.197   7.447   0.885  0.3235  0.1619  1.0309
 1851SOL    HW2 6364   2.348   7.459   0.897  0.5149 -0.9681 -0.0655
 1852SOL     OW 6365   4.432   2.933   5.687  0.3688 -0.2055  0.4643
 1852SOL    HW1 6366   4.366   2.866   5.673  0.3505 -0.3945  1.4168
 1852SOL    HW2 6367   4.417   2.996   5.617 -0.3065 -0.6453  0.2029
 1853SOL     OW 6368   5.975   2.562   3.999 -0.7367 -0.1322  0.0017
 1853SOL    HW1 6369   5.991   2.521   3.914 -0.6204 -1.6399  0.7288
 1853SOL    HW2 6370   5.940   2.648   3.977 -0.4138 -0.3658 -1.5732
 1854SOL     OW 6371   4.317   4.951   1.045  0.1988  0.3630  0.8866
 1854SOL    HW1 6372   4.401   4.974   1.083  0.2835 -0.4453  1.1926
 1854SOL    HW2 6373   4.280   4.886   1.104 -0.9405  1.1815  1.1135
 1855SOL     OW 6374   0.872   2.052   5.887 -0.3033  0.3089 -0.2790
 1855SOL    HW1 6375   0.860   1.965   5.850 -3.2365  0.4072  0.2343
 1855SOL    HW2 6376   0.798   2.103   5.855 -1.2698  1.2786  3.0645
 1856SOL     OW 6377   1.669   2.969   6.234 -0.3814 -0.1767  0.5174
 1856SOL    HW1 6378   1.597   2.929   6.282 -0.6524  2.0946  2.1078
 1856SOL    HW2 6379   1.736   2.900   6.230 -2.5858 -2.4298 -1.1923
 1857SOL     OW 6380   4.006   2.498   5.527  0.1883 -0.4045 -0.2963
 1857SOL    HW1 6381   4.006   2.445   5.606  0.0150  0.9110  0.6288
 1857SOL    HW2 6382   3.942   2.567   5.544  1.3075  0.8417 -0.9203
 1858SOL     OW 6383   5.757   3.412   5.972 -0.8037  0.0017 -0.2479
 1858SOL    HW1 6384   5.810   3.340   5.937 -1.2006 -0.1823 -0.4729
 1858SOL    HW2 6385   5.819   3.484   5.984 -0.6232  0.0032 -1.1302
 1859SOL     OW 6386   6.034   2.136   5.646  0.7747  0.1716  0.2515
 1859SOL    HW1 6387   6.019   2.042   5.633 -0.4628  0.6539 -2.4175
 1859SOL    HW2 6388   6.130   2.144   5.648  0.9298 -1.0530 -0.6084
 1860SOL     OW 6389   6.489   7.767   6.171  0.2703  0.2445  0.4797
 1860SOL    HW1 6390   6.411   7.717   6.148  0.6778 -0.1020 -0.2034
 1860SOL    HW2 6391   6.545   7.761   6.093  2.2879 -2.0746  1.9187
 1861SOL     OW 6392   3.753   1.489   6.050 -0.6170 -0.0351  0.6548
 1861SOL    HW1 6393   3.739   1.564   5.992  0.8880 -0.1751  0.0861
 1861SOL    HW2 6394   3.700   1.419   6.011  0.9380 -0.3483 -1.0409
 1862SOL     OW 6395   7.955   3.714   7.117  0.0797 -0.1617  0.5243
 1862SOL    HW1 6396   7.938   3.751   7.204  0.3448  1.0711  0.0586
 1862SOL    HW2 6397   7.874   3.730   7.068  0.4475  0.4248  0.1066
 1863SOL     OW 6398   0.599   6.947   7.853 -0.0583  0.4933  0.1574
 1863SOL    HW1 6399   0.521   6.919   7.901  0.7030 -0.6591  0.7715
 1863SOL    HW2 6400   0.586   6.913   7.764 -0.8581  1.4849 -0.1310
 1864SOL     OW 6401   6.812   7.608   0.247  0.1261  0.3333  0.8089
 1864SOL    HW1 6402   6.809   7.606   0.343  1.5003 -1.3338  0.8815
 1864SOL    HW2 6403   6.741   7.551   0.219  0.7694 -0.5505  0.9225
 1865SOL     OW 6404   4.313   7.010   6.516 -0.4225  0.3004  0.0587
 1865SOL    HW1 6405   4.402   7.014   6.483  1.3920  0.7568  4.4402
 1865SOL    HW2 6406   4.289   6.917   6.510  0.9902 -0.0963  0.2790
 1866SOL     OW 6407   2.608   4.717   0.328  0.1145 -1.0802 -0.0667
 1866SOL    HW1 6408   2.576   4.805   0.308  0.0666 -0.9402  0.6340
 1866SOL    HW2 6409   2.557   4.689   0.403  0.1071 -1.7257 -0.3054
 1867SOL     OW 6410   6.844   2.633   4.329 -0.3392  0.1804 -0.6805
 1867SOL    HW1 6411   6.752   2.607   4.320  0.1831 -1.2996 -2.5653
 1867SOL    HW2 6412   6.845   2.726   4.309 -1.4055  0.1630 -0.8753
 1868SOL     OW 6413   0.773   4.035   7.010  0.5803  0.2557 -0.5313
 1868SOL    HW1 6414   0.819   3.953   7.025  0.2378  0.6407  4.1661
 1868SOL    HW2 6415   0.839   4.103   7.027 -0.1750  0.8636  0.0568
 1869SOL     OW 6416   4.756   2.726   0.415  0.0023  1.0194  0.1806
 1869SOL    HW1 6417   4.691   2.792   0.391 -0.9905 -0.1196 -0.4129
 1869SOL    HW2 6418   4.787   2.691   0.331 -1.5738 -1.1883  0.4207
 1870SOL     OW 6419   6.441   7.562   0.837 -0.1801 -0.4143  0.1489
 1870SOL    HW1 6420   6.345   7.567   0.842 -0.2063 -1.5576  1.2295
 1870SOL    HW2 6421   6.471   7.649   0.862 -0.9475  0.4201 -1.6522
 1871SOL     OW 6422   4.061   3.363   0.644  0.1220  0.5097 -0.6553
 1871SOL    HW1 6423   4.089   3.434   0.585  0.6781 -0.3706 -1.4904
 1871SOL    HW2 6424   3.966   3.376   0.652  0.0552  0.7559 -1.6194
 1872SOL     OW 6425   0.332   4.416   5.004  0.2995 -0.0324 -0.1898
 1872SOL    HW1 6426   0.318   4.477   4.932  2.3490 -0.4406 -1.0077
 1872SOL    HW2 6427   0.375   4.468   5.072  2.1021 -0.4757 -0.9103
 1873SOL     OW 6428   6.734   6.370   3.850 -0.3442  0.3111  0.5533
 1873SOL    HW1 6429   6.658   6.345   3.797 -0.4423 -0.6818  1.1349
 1873SOL    HW2 6430   6.747   6.296   3.909  2.6365 -0.7681 -1.2180
 1874SOL     OW 6431   0.749   0.176   3.545 -0.5552 -0.6092 -0.1828
 1874SOL    HW1 6432   0.658   0.200   3.561 -0.4853 -0.8616  0.6342
 1874SOL    HW2 6433   0.799   0.233   3.603 -0.2209 -0.7792 -0.3058
 1875SOL     OW 6434   6.177   7.913   5.553 -0.0186 -0.4917  0.8236
 1875SOL    HW1 6435   6.201   7.992   5.505  1.4622 -2.0591 -1.1943
 1875SOL    HW2 6436   6.146   7.852   5.486 -1.3321 -1.5865  2.3470
 1876SOL     OW 6437   7.411   2.640   2.611  0.0712  0.0057 -0.5233
 1876SOL    HW1 6438   7.479   2.643   2.679 -0.2080 -2.5173 -0.0359
 1876SOL    HW2 6439   7.407   2.729   2.577  2.9031  0.4716  0.1347
 1877SOL     OW 6440   4.928   3.739   7.373  0.2972  0.3394  0.1774
 1877SOL    HW1 6441   4.925   3.789   7.292  2.4804 -0.5608 -0.5144
 1877SOL    HW2 6442   5.004   3.773   7.420 -1.4653  1.5503  2.4036
 1878SOL     OW 6443   4.099   6.682   2.597  0.3043  0.8895 -0.6372
 1878SOL    HW1 6444   4.119   6.724   2.513  1.4621  2.4152  0.3379
 1878SOL    HW2 6445   4.012   6.715   2.621 -0.5333 -0.4417 -1.7340
 1879SOL     OW 6446   7.922   5.545   1.692  0.4712 -0.7574 -0.1465
 1879SOL    HW1 6447   7.992   5.502   1.643  0.8687 -1.3053  0.8745
 1879SOL    HW2 6448   7.966   5.613   1.743  0.3348 -1.4047  0.8516
 1880SOL     OW 6449   3.726   1.767   0.738 -0.1548 -0.2187  0.0171
 1880SOL    HW1 6450   3.808   1.762   0.689 -0.0100  1.6189 -0.0063
 1880SOL    HW2 6451   3.704   1.860   0.738 -1.0997 -0.3979  1.9229
 1881SOL     OW 6452   6.491   5.002   1.295  0.7084 -0.3020  0.5809
 1881SOL    HW1 6453   6.407   5.006   1.247  0.5324  2.7521  0.9365
 1881SOL    HW2 6454   6.557   4.997   1.226  0.3141  0.7102  0.0975
 1882SOL     OW 6455   0.462   1.156   7.163 -0.0073 -0.3320 -0.2846
 1882SOL    HW1 6456   0.428   1.128   7.247  0.2769  1.3871  0.4417
 1882SOL    HW2 6457   0.531   1.093   7.143 -0.9523 -1.5219  0.1142
 1883SOL     OW 6458   1.069   5.567   1.387 -0.1118 -0.0149  0.1220
 1883SOL    HW1 6459   1.115   5.595   1.308 -0.9956  1.0474 -0.0480
 1883SOL    HW2 6460   1.131   5.583   1.458 -0.0733  1.0746 -0.1385
 1884SOL     OW 6461   3.039   4.952   3.547 -0.6344  0.2857 -0.5459
 1884SOL    HW1 6462   3.094   4.878   3.520 -0.2281  0.4577 -0.1966
 1884SOL    HW2 6463   3.060   5.021   3.484 -0.0519  0.5261 -0.0891
 1885SOL     OW 6464   2.424   4.278   5.262 -0.2092 -0.5338  0.4061
 1885SOL    HW1 6465   2.402   4.366   5.231  1.0081 -0.3628 -0.0288
 1885SOL    HW2 6466   2.419   4.285   5.357  0.6621  0.2434  0.4128
 1886SOL     OW 6467   1.155   4.107   3.591  0.4541 -0.1849 -0.4227
 1886SOL    HW1 6468   1.243   4.109   3.552  0.6137 -0.3778 -0.0752
 1886SOL    HW2 6469   1.161   4.162   3.668 -0.2409  1.3628 -1.4273
 1887SOL     OW 6470   4.282   2.016   5.313 -0.7578  0.4807 -0.2951
 1887SOL    HW1 6471   4.320   1.997   5.227 -1.4720  1.4263 -0.8310
 1887SOL    HW2 6472   4.200   2.061   5.294 -2.4171 -1.8587  0.8163
 1888SOL     OW 6473   7.668   0.618   4.653 -0.8276 -1.0307 -0.3151
 1888SOL    HW1 6474   7.706   0.621   4.741  0.7678  0.8797 -0.9768
 1888SOL    HW2 6475   7.574   0.609   4.667 -0.5796 -1.1300  1.5513
 1889SOL     OW 6476   5.774   5.794   2.137  0.7367 -0.0660 -0.3731
 1889SOL    HW1 6477   5.783   5.887   2.155 -0.3199  0.1699 -0.9822
 1889SOL    HW2 6478   5.716   5.790   2.061 -1.1798 -1.2773  1.0617
 1890SOL     OW 6479   1.294   3.384   6.919 -0.6163  0.2904  0.6739
 1890SOL    HW1 6480   1.363   3.450   6.924  1.1143 -1.4436  1.7530
 1890SOL    HW2 6481   1.286   3.352   7.009  0.9719 -3.1194 -0.2286
 1891SOL     OW 6482   4.278   0.494   3.514  0.0427  0.0558  0.2632
 1891SOL    HW1 6483   4.364   0.533   3.499 -0.5749  0.6635 -2.1810
 1891SOL    HW2 6484   4.283   0.409   3.469 -0.0426 -0.7816  1.7836
 1892SOL     OW 6485   6.205   4.696   1.661 -0.3476  0.1813 -0.0455
 1892SOL    HW1 6486   6.248   4.759   1.603 -0.5484  1.4601  1.1493
 1892SOL    HW2 6487   6.131   4.664   1.610  0.9394 -0.7227 -1.4626
 1893SOL     OW 6488   4.728   4.181   7.263 -0.8148 -0.0879 -0.8150
 1893SOL    HW1 6489   4.658   4.201   7.201 -1.4531 -1.2522 -0.5117
 1893SOL    HW2 6490   4.694   4.210   7.348  0.4849  2.4861 -1.0883
 1894SOL     OW 6491   4.636   7.237   0.429  0.3004  0.0743  0.5915
 1894SOL    HW1 6492   4.702   7.267   0.491  2.0955  0.1499 -1.2438
 1894SOL    HW2 6493   4.675   7.160   0.388 -0.4053  0.5691 -1.0954
 1895SOL     OW 6494   1.248   2.037   3.032  0.4647  0.1682 -0.0410
 1895SOL    HW1 6495   1.208   1.968   2.979 -0.7545  1.3680 -0.7303
 1895SOL    HW2 6496   1.282   2.100   2.969  0.3735  0.8528  0.5823
 1896SOL     OW 6497   0.791   3.859   1.770 -0.1844 -0.7503 -0.0912
 1896SOL    HW1 6498   0.755   3.816   1.847  3.1286 -1.4624  1.2628
 1896SOL    HW2 6499   0.821   3.788   1.714 -2.3720 -0.2350 -2.0690
 1897SOL     OW 6500   5.102   6.662   4.360 -0.1380  0.2535  0.2366
 1897SOL    HW1 6501   5.049   6.686   4.436  0.6884  2.1771  0.2433
 1897SOL    HW2 6502   5.192   6.663   4.392  0.0151 -2.8092  0.1804
 1898SOL     OW 6503   2.879   0.806   4.039  0.2863  0.5761 -0.1766
 1898SOL    HW1 6504   2.894   0.900   4.052  0.1214  0.6473 -0.4790
 1898SOL    HW2 6505   2.857   0.799   3.946  0.5452  0.2059 -0.2094
 1899SOL     OW 6506   5.555   6.231   5.523 -0.2061 -0.1613 -0.0890
 1899SOL    HW1 6507   5.507   6.202   5.601  1.1101 -0.7617  0.5369
 1899SOL    HW2 6508   5.538   6.164   5.457 -0.0670 -0.4843  0.1999
 1900SOL     OW 6509   4.221   0.497   7.953 -0.4382  0.5128  0.0968
 1900SOL    HW1 6510   4.269   0.572   7.989  0.1149  0.7568 -1.1169
 1900SOL    HW2 6511   4.216   0.513   7.859 -0.0826 -1.0932 -0.2382
 1901SOL     OW 6512   0.778   7.011   7.358  0.3588  0.1064 -0.4312
 1901SOL    HW1 6513   0.850   6.974   7.409 -0.8933 -2.2500 -0.2199
 1901SOL    HW2 6514   0.769   6.953   7.283 -1.1499  0.4692 -0.5692
 1902SOL     OW 6515   1.843   2.102   6.515  0.0914  0.1161 -0.0300
 1902SOL    HW1 6516   1.894   2.097   6.596  0.6526 -0.0345 -0.3876
 1902SOL    HW2 6517   1.888   2.044   6.454  0.1741  0.8784 -0.7214
 1903SOL     OW 6518   4.910   2.425   5.795 -0.0938  0.3366  0.0704
 1903SOL    HW1 6519   4.901   2.344   5.845 -0.2769  1.7300  2.4027
 1903SOL    HW2 6520   4.833   2.427   5.738 -0.7470 -0.5305  0.8983
 1904SOL     OW 6521   3.465   1.333   3.364  0.1102  0.0997  0.2799
 1904SOL    HW1 6522   3.405   1.378   3.424  0.6308 -0.9971  1.6873
 1904SOL    HW2 6523   3.533   1.398   3.346 -0.3437  0.6270  0.4445
 1905SOL     OW 6524   2.228   5.070   3.096 -0.5302  0.1675  0.0716
 1905SOL    HW1 6525   2.175   5.097   3.171  0.1246  0.2040  0.5268
 1905SOL    HW2 6526   2.165   5.059   3.025 -1.2204 -0.3811  0.7616
 1906SOL     OW 6527   7.580   3.889   2.484 -0.0846  0.3712  0.2919
 1906SOL    HW1 6528   7.491   3.862   2.506  0.5994 -0.8518  1.7917
 1906SOL    HW2 6529   7.570   3.972   2.437 -2.0621 -0.3397 -0.6455
 1907SOL     OW 6530   7.854   0.850   1.046  0.0959  0.5932  0.1183
 1907SOL    HW1 6531   7.891   0.937   1.036  1.2675  0.0019 -1.0328
 1907SOL    HW2 6532   7.793   0.840   0.973 -2.3412  1.4981  1.9138
 1908SOL     OW 6533   5.302   3.219   3.023  0.4449  0.6362  0.6239
 1908SOL    HW1 6534   5.395   3.203   3.008  0.2692 -0.2646  0.4593
 1908SOL    HW2 6535   5.268   3.136   3.056 -0.7837  0.1899 -1.5711
 1909SOL     OW 6536   0.527   7.231   7.774 -0.0016  0.7247 -0.1336
 1909SOL    HW1 6537   0.576   7.188   7.843 -0.1634  1.0355  0.1813
 1909SOL    HW2 6538   0.560   7.193   7.693 -1.8314 -1.8353  0.1697
 1910SOL     OW 6539   5.387   1.503   4.102  0.4794 -0.7286  0.3881
 1910SOL    HW1 6540   5.309   1.481   4.153  0.4607 -0.8095  0.3246
 1910SOL    HW2 6541   5.395   1.432   4.038 -0.1902  0.0042 -0.5191
 1911SOL     OW 6542   1.377   2.195   4.988 -0.3434 -0.1525 -0.3771
 1911SOL    HW1 6543   1.290   2.224   5.017  0.1905  0.8007  0.3244
 1911SOL    HW2 6544   1.435   2.268   5.009  0.3326  0.0465 -2.6539
 1912SOL     OW 6545   6.629   6.644   4.024 -0.1748 -0.1342 -0.5383
 1912SOL    HW1 6546   6.708   6.636   3.972 -0.2444  0.1031 -0.6824
 1912SOL    HW2 6547   6.624   6.562   4.074 -0.9126 -1.0386 -2.0180
 1913SOL     OW 6548   0.274   2.502   7.244  0.3785  0.4118  0.7982
 1913SOL    HW1 6549   0.245   2.568   7.182  0.0308  0.9969  1.5683
 1913SOL    HW2 6550   0.217   2.513   7.320  1.6193  0.5625  1.7377
 1914SOL     OW 6551   4.259   3.636   3.679 -0.4379 -0.5738  0.3656
 1914SOL    HW1 6552   4.318   3.675   3.615  1.7610 -0.6761  2.1972
 1914SOL    HW2 6553   4.224   3.710   3.728 -2.1528 -0.4916 -0.9075
 1915SOL     OW 6554   0.840   0.162   1.881 -0.0267 -0.0868 -0.2793
 1915SOL    HW1 6555   0.787   0.179   1.959 -0.1079  1.7881 -0.6879
 1915SOL    HW2 6556   0.826   0.239   1.826  1.6883 -0.4044 -1.2180
 1916SOL     OW 6557   7.003   5.360   4.874 -0.1202 -0.7536 -0.0479
 1916SOL    HW1 6558   6.945   5.340   4.947  0.2543 -0.9377  0.2024
 1916SOL    HW2 6559   7.032   5.449   4.890  0.4102 -0.9886  0.3406
 1917SOL     OW 6560   1.739   5.335   0.620  0.0268  0.7334  0.0793
 1917SOL    HW1 6561   1.652   5.343   0.582  0.1178  0.7925 -0.1178
 1917SOL    HW2 6562   1.727   5.356   0.713 -0.5691 -1.4228  0.5366
 1918SOL     OW 6563   4.636   5.331   2.313  0.1706  0.0865  0.4371
 1918SOL    HW1 6564   4.649   5.256   2.372  1.3868  0.0258  0.1118
 1918SOL    HW2 6565   4.708   5.325   2.251 -0.3369  0.9315 -0.2448
 1919SOL     OW 6566   0.008   7.091   3.003 -0.3387  0.0190  0.2599
 1919SOL    HW1 6567  -0.015   7.058   3.090 -1.6150  0.1116 -0.0212
 1919SOL    HW2 6568   0.089   7.139   3.016 -0.2606 -0.3714  1.3058
 1920SOL     OW 6569   5.799   5.303   6.326 -0.3636 -0.9954  0.1531
 1920SOL    HW1 6570   5.709   5.287   6.298 -0.4597 -0.6824  0.2751
 1920SOL    HW2 6571   5.816   5.234   6.391 -0.1969 -1.6167 -0.5300
 1921SOL     OW 6572   1.417   1.684   2.620 -0.3329 -0.7133  0.1034
 1921SOL    HW1 6573   1.431   1.621   2.691  0.0577 -1.0596 -0.2773
 1921SOL    HW2 6574   1.447   1.638   2.541  0.6086  0.1874 -0.0825
 1922SOL     OW 6575   7.161   0.180   6.635  0.2131 -0.3511 -0.1270
 1922SOL    HW1 6576   7.253   0.174   6.660 -0.2749 -1.4235  1.5851
 1922SOL    HW2 6577   7.118   0.110   6.685 -1.6454  0.6101 -0.2990
 1923SOL     OW 6578   5.549   3.765   0.876  0.6154 -0.0629  0.3427
 1923SOL    HW1 6579   5.454   3.770   0.887  0.7511  2.4466  1.0229
 1923SOL    HW2 6580   5.562   3.737   0.785 -0.7822  0.2344  0.0313
 1924SOL     OW 6581   0.818   3.496   5.307 -0.5575 -0.5175  0.3272
 1924SOL    HW1 6582   0.734   3.534   5.333 -0.7941  2.0940 -3.3411
 1924SOL    HW2 6583   0.881   3.567   5.317  0.1413 -0.7824 -1.6180
 1925SOL     OW 6584   3.362   0.890   2.200  0.1483 -0.2412 -0.7884
 1925SOL    HW1 6585   3.326   0.803   2.219  0.6230 -0.2302  0.2801
 1925SOL    HW2 6586   3.366   0.932   2.286  1.0880  0.3803 -1.1281
 1926SOL     OW 6587   4.460   0.990   4.347 -0.5866  0.1523  0.5040
 1926SOL    HW1 6588   4.518   1.001   4.272  0.0212  1.7543  1.1511
 1926SOL    HW2 6589   4.399   0.922   4.321 -1.2927  1.6280 -2.0106
 1927SOL     OW 6590   0.349   7.626   6.996  0.1070  0.3490  0.2603
 1927SOL    HW1 6591   0.330   7.720   6.985  0.2205  0.3113 -0.3052
 1927SOL    HW2 6592   0.264   7.588   7.020  0.2959  0.7599  1.6904
 1928SOL     OW 6593   0.569   5.718   5.391  0.1493 -0.0614 -0.0928
 1928SOL    HW1 6594   0.522   5.660   5.330  1.7294 -1.0467 -0.4603
 1928SOL    HW2 6595   0.606   5.786   5.334 -1.5178  1.2255  0.3112
 1929SOL     OW 6596   0.603   7.890   4.392  0.6540 -0.3309  0.1470
 1929SOL    HW1 6597   0.627   7.813   4.444 -1.0533 -0.8111  0.2561
 1929SOL    HW2 6598   0.571   7.953   4.455  0.4771 -0.1559 -0.1155
 1930SOL     OW 6599   7.461   4.286   0.541 -0.4799  0.1640 -0.1333
 1930SOL    HW1 6600   7.425   4.202   0.513 -1.8792  1.1180 -1.3122
 1930SOL    HW2 6601   7.536   4.263   0.595 -1.4462 -1.8709  0.4351
 1931SOL     OW 6602   6.740   0.801   3.216  0.6573  0.3295 -0.4721
 1931SOL    HW1 6603   6.794   0.855   3.273  1.5112 -0.1352 -0.8204
 1931SOL    HW2 6604   6.710   0.729   3.273 -1.4513  1.7373  0.3048
 1932SOL     OW 6605   0.488   1.979   5.306  0.7187 -0.0509 -0.3439
 1932SOL    HW1 6606   0.458   2.065   5.276 -1.7207 -1.0125 -0.9430
 1932SOL    HW2 6607   0.582   1.978   5.288  1.0233  2.7908  0.5124
 1933SOL     OW 6608   4.076   3.440   4.471  0.0290  0.2710  0.1876
 1933SOL    HW1 6609   3.987   3.468   4.450 -0.2241 -0.5540  0.1136
 1933SOL    HW2 6610   4.127   3.461   4.393 -0.2060  0.2832  0.0354
 1934SOL     OW 6611   3.092   4.842   5.606 -0.3736  0.3241  0.0943
 1934SOL    HW1 6612   3.133   4.763   5.570 -1.0896  0.0157 -0.0590
 1934SOL    HW2 6613   3.162   4.907   5.607  0.4167 -0.5099  0.8748
 1935SOL     OW 6614   3.177   5.661   0.181 -0.0113  0.3571  0.0039
 1935SOL    HW1 6615   3.272   5.662   0.188 -0.0645 -0.3975  1.0527
 1935SOL    HW2 6616   3.147   5.636   0.268 -1.1891  1.1083 -0.1757
 1936SOL     OW 6617   2.026   3.757   5.010  0.8318 -0.5383 -0.2202
 1936SOL    HW1 6618   1.973   3.815   5.066 -0.8450 -0.1982 -2.0407
 1936SOL    HW2 6619   2.098   3.813   4.979  0.9672 -0.3264  0.4674
 1937SOL     OW 6620   5.488   0.621   1.916  0.1461 -0.3643  0.2912
 1937SOL    HW1 6621   5.466   0.584   1.830 -0.4388  0.3188  0.1306
 1937SOL    HW2 6622   5.409   0.668   1.941  0.8430  0.7029  0.5173
 1938SOL     OW 6623   7.926   0.418   4.644 -1.2033 -0.3061 -0.2913
 1938SOL    HW1 6624   7.914   0.323   4.633 -0.7865 -0.4298  0.2574
 1938SOL    HW2 6625   7.889   0.437   4.730  2.4201 -0.7375  1.5471
 1939SOL     OW 6626   3.150   0.763   4.072 -0.1260  0.4111 -0.2521
 1939SOL    HW1 6627   3.056   0.754   4.059 -0.2245 -2.0453  1.5344
 1939SOL    HW2 6628   3.164   0.858   4.077 -2.5199  0.8324 -0.2382
 1940SOL     OW 6629   6.438   0.751   5.335  1.0719 -0.3244  0.0935
 1940SOL    HW1 6630   6.520   0.708   5.360  1.0907 -1.2489 -1.3912
 1940SOL    HW2 6631   6.466   0.827   5.285  1.0203  0.7380  1.6215
 1941SOL     OW 6632   7.682   2.272   4.042 -0.3971 -0.5113 -0.2511
 1941SOL    HW1 6633   7.595   2.292   4.006 -0.1294 -0.4627 -0.8797
 1941SOL    HW2 6634   7.698   2.181   4.017  0.5226  0.0481 -1.7789
 1942SOL     OW 6635   3.020   1.216   1.650 -0.0842 -0.0422 -0.0605
 1942SOL    HW1 6636   3.026   1.122   1.665 -1.1961  0.1702  2.0998
 1942SOL    HW2 6637   3.110   1.248   1.661  0.3022 -0.8310 -0.8063
 1943SOL     OW 6638   2.322   0.258   1.044  0.1015  0.2134  0.3593
 1943SOL    HW1 6639   2.298   0.239   0.953 -0.8611  0.8003  0.4808
 1943SOL    HW2 6640   2.369   0.342   1.039  1.2834 -0.4302  0.2503
 1944SOL     OW 6641   2.852   5.067   0.647 -0.5085 -0.4679  0.1422
 1944SOL    HW1 6642   2.808   5.129   0.706 -0.9526 -0.7069  0.0700
 1944SOL    HW2 6643   2.922   5.029   0.699  0.0203  0.3865  0.0671
 1945SOL     OW 6644   3.659   0.452   7.377  0.8391  0.3411 -0.2722
 1945SOL    HW1 6645   3.662   0.547   7.386  0.9295  0.5717 -2.2227
 1945SOL    HW2 6646   3.724   0.419   7.438  0.0527  1.4478  1.2165
 1946SOL     OW 6647   5.697   2.178   4.747 -0.2570 -0.1833  0.3915
 1946SOL    HW1 6648   5.712   2.262   4.703  0.9991 -0.5762  0.0202
 1946SOL    HW2 6649   5.613   2.148   4.713 -0.2818  0.4992 -0.1720
 1947SOL     OW 6650   5.803   6.702   6.995  0.1283 -1.0317  0.8762
 1947SOL    HW1 6651   5.752   6.734   7.069  0.0862  2.9420 -0.6629
 1947SOL    HW2 6652   5.754   6.626   6.963 -2.1999 -0.2096  2.3013
 1948SOL     OW 6653   7.791   1.273   3.532 -0.0659 -0.1070 -0.9215
 1948SOL    HW1 6654   7.738   1.349   3.554  0.3074 -0.3653  1.0435
 1948SOL    HW2 6655   7.849   1.261   3.607  1.6595 -0.8138 -2.2903
 1949SOL     OW 6656   1.873   2.730   1.296  0.5832 -0.4278  0.3957
 1949SOL    HW1 6657   1.964   2.721   1.326  0.2254  0.2867  1.7893
 1949SOL    HW2 6658   1.835   2.794   1.356 -0.8732 -0.7923 -0.1128
 1950SOL     OW 6659   2.856   3.908   5.173 -0.4348 -0.5083  0.3667
 1950SOL    HW1 6660   2.767   3.944   5.178 -0.6122 -0.2904 -2.5744
 1950SOL    HW2 6661   2.890   3.939   5.089  2.8080  0.1654  1.7794
 1951SOL     OW 6662   6.108   4.640   4.957  0.0986 -0.1668 -0.5028
 1951SOL    HW1 6663   6.097   4.573   5.024 -0.5325 -0.5155 -0.9481
 1951SOL    HW2 6664   6.086   4.596   4.875  0.0834  0.4727 -0.8469
 1952SOL     OW 6665   2.422   2.006   6.819  0.2740  0.3788  0.0058
 1952SOL    HW1 6666   2.482   2.067   6.861 -0.3804 -0.1192  1.7565
 1952SOL    HW2 6667   2.342   2.012   6.870 -0.5305 -0.3734 -1.1162
 1953SOL     OW 6668   1.201   3.738   3.552 -0.8692 -0.3269  0.0529
 1953SOL    HW1 6669   1.220   3.645   3.560  0.3497 -0.0386  0.7733
 1953SOL    HW2 6670   1.265   3.770   3.487 -0.2237  0.2754  0.9626
 1954SOL     OW 6671   3.525   4.406   4.826  0.0414 -0.3227  0.1473
 1954SOL    HW1 6672   3.588   4.447   4.885 -0.7638 -1.5997  1.9844
 1954SOL    HW2 6673   3.577   4.341   4.777  0.2740 -1.0376  1.3048
 1955SOL     OW 6674   0.245   1.900   0.831  0.4994  0.3065 -0.3280
 1955SOL    HW1 6675   0.155   1.900   0.863 -0.0353 -0.8435 -1.6943
 1955SOL    HW2 6676   0.299   1.917   0.908 -0.8736  0.8702  0.5346
 1956SOL     OW 6677   0.518   2.594   5.252  0.1172  0.3987  0.0732
 1956SOL    HW1 6678   0.442   2.596   5.194 -0.6682 -1.9348  0.8832
 1956SOL    HW2 6679   0.548   2.685   5.256 -2.7470  1.4622 -0.1365
 1957SOL     OW 6680   5.478   2.996   1.540  0.3519  0.1402 -0.9315
 1957SOL    HW1 6681   5.438   3.004   1.627 -2.5431 -0.3735 -2.1020
 1957SOL    HW2 6682   5.432   2.924   1.498  1.5422  0.4747 -2.9806
 1958SOL     OW 6683   1.520   0.762   2.810  0.2302  0.3523 -0.5411
 1958SOL    HW1 6684   1.446   0.701   2.812  0.3941  0.1823  1.1131
 1958SOL    HW2 6685   1.564   0.742   2.727 -0.6952 -0.6000 -0.8310
 1959SOL     OW 6686   7.332   2.001   1.682 -0.0941 -0.2988 -0.0282
 1959SOL    HW1 6687   7.319   1.983   1.776 -2.5509 -0.7414 -0.3947
 1959SOL    HW2 6688   7.342   2.096   1.677  1.3861 -0.3768  0.7742
 1960SOL     OW 6689   1.632   1.095   3.721  0.1343  0.0584 -0.0095
 1960SOL    HW1 6690   1.610   1.060   3.635 -0.5615 -0.3966  0.3433
 1960SOL    HW2 6691   1.708   1.043   3.748 -0.0952 -0.3038 -0.0442
 1961SOL     OW 6692   3.781   3.282   3.961  0.4056 -0.2629  0.1838
 1961SOL    HW1 6693   3.873   3.309   3.962  0.3441 -0.0519  0.7015
 1961SOL    HW2 6694   3.783   3.187   3.950  0.7115 -0.3556  0.9901
 1962SOL     OW 6695   7.308   4.848   1.254  0.4392  0.0476  0.0641
 1962SOL    HW1 6696   7.325   4.765   1.299 -0.7808  0.1161  0.6895
 1962SOL    HW2 6697   7.253   4.824   1.179  1.4670  0.0936 -0.7285
 1963SOL     OW 6698   1.379   2.771   1.576 -0.5738 -0.3993  0.1269
 1963SOL    HW1 6699   1.449   2.818   1.622 -1.2086 -0.9499  1.7291
 1963SOL    HW2 6700   1.299   2.817   1.602 -1.1083 -1.7417  0.9245
 1964SOL     OW 6701   7.566   5.414   2.024  0.2840 -0.4950  0.5833
 1964SOL    HW1 6702   7.481   5.455   2.036  0.5416 -0.1503  1.3183
 1964SOL    HW2 6703   7.614   5.472   1.965  0.4383 -0.0324  1.1504
 1965SOL     OW 6704   6.249   6.886   6.507 -0.2470  0.0839  0.4245
 1965SOL    HW1 6705   6.184   6.817   6.521 -1.8951  1.1703 -1.3397
 1965SOL    HW2 6706   6.213   6.962   6.552  0.1795  0.5063  0.0549
 1966SOL     OW 6707   7.047   6.868   0.777  0.1341 -0.1015  0.1925
 1966SOL    HW1 6708   7.072   6.908   0.861  3.0993 -0.6003 -0.3541
 1966SOL    HW2 6709   7.094   6.920   0.711 -0.6508 -0.8804 -1.0121
 1967SOL     OW 6710   5.074   0.382   2.407 -0.0871  0.3360 -0.8533
 1967SOL    HW1 6711   5.071   0.363   2.501  1.4373  1.8786 -0.4456
 1967SOL    HW2 6712   5.148   0.442   2.397  0.5932 -0.8067 -3.2446
 1968SOL     OW 6713   1.145   2.139   2.466  0.0451  0.0427  0.3372
 1968SOL    HW1 6714   1.157   2.046   2.489  1.2543 -0.5064 -2.1618
 1968SOL    HW2 6715   1.059   2.142   2.424  0.0269  0.0334  0.3741
 1969SOL     OW 6716   6.253   7.944   0.266  0.6019 -0.0157 -0.0980
 1969SOL    HW1 6717   6.234   8.038   0.267 -0.4678 -0.2167  0.5334
 1969SOL    HW2 6718   6.182   7.906   0.214  0.8483 -0.5106 -0.0763
 1970SOL     OW 6719   1.351   7.529   7.376  0.2039 -0.0759  0.0561
 1970SOL    HW1 6720   1.293   7.552   7.449  0.8904 -2.1292  1.3462
 1970SOL    HW2 6721   1.424   7.592   7.382 -0.0047  0.1005  0.8324
 1971SOL     OW 6722   3.357   6.292   6.655  0.2787 -0.0593 -0.0705
 1971SOL    HW1 6723   3.291   6.361   6.648  1.7177  1.6641  2.0524
 1971SOL    HW2 6724   3.410   6.301   6.576 -0.9160 -0.3157 -0.9337
 1972SOL     OW 6725   7.364   4.401   5.079  0.4145  0.5691  0.7359
 1972SOL    HW1 6726   7.374   4.494   5.055 -1.5100  1.5044  3.1040
 1972SOL    HW2 6727   7.404   4.395   5.166  0.6478 -0.8954  0.5520
 1973SOL     OW 6728   3.522   6.384   5.874 -0.2861 -0.0938 -0.2329
 1973SOL    HW1 6729   3.472   6.350   5.948  0.8421  1.5707  1.3538
 1973SOL    HW2 6730   3.455   6.403   5.808 -1.3616 -1.2107  0.4915
 1974SOL     OW 6731   2.779   2.346   7.941 -0.2215  0.4885  0.1950
 1974SOL    HW1 6732   2.737   2.418   7.894 -0.8393 -0.0800 -0.1404
 1974SOL    HW2 6733   2.873   2.367   7.937 -0.3402  0.9496 -0.4522
 1975SOL     OW 6734   0.088   0.008   6.114 -0.1091  0.1153 -0.3711
 1975SOL    HW1 6735   0.106   0.086   6.166  0.5212 -1.3515  1.7448
 1975SOL    HW2 6736   0.174  -0.018   6.080 -0.2639  0.1306 -0.7825
 1976SOL     OW 6737   6.881   6.054   1.762  0.7812 -0.1124 -0.1858
 1976SOL    HW1 6738   6.861   5.967   1.729  0.3641 -0.0311 -0.1641
 1976SOL    HW2 6739   6.805   6.107   1.736  0.6326  0.0436  0.5481
 1977SOL     OW 6740   1.114   7.995   6.688  0.3845 -0.4512  0.3918
 1977SOL    HW1 6741   1.124   8.001   6.783 -0.0540  1.7624  0.3563
 1977SOL    HW2 6742   1.023   7.968   6.675 -0.3941  1.7903  0.6657
 1978SOL     OW 6743   4.849   0.146   6.392 -0.1092  0.1873 -0.3471
 1978SOL    HW1 6744   4.813   0.234   6.382 -0.2028  0.2619  0.5476
 1978SOL    HW2 6745   4.943   0.158   6.379 -0.3432  0.0333 -2.4240
 1979SOL     OW 6746   2.863   4.456   5.172  0.0129  0.2456 -0.3471
 1979SOL    HW1 6747   2.894   4.508   5.098 -0.7228  0.1374 -0.7440
 1979SOL    HW2 6748   2.892   4.505   5.249  1.1779  0.1231 -0.6946
 1980SOL     OW 6749   7.591   6.326   3.651 -0.7943  0.0550 -0.6854
 1980SOL    HW1 6750   7.575   6.342   3.558 -1.5688 -0.4589 -0.6530
 1980SOL    HW2 6751   7.512   6.356   3.694  0.6988  3.1860  0.1924
 1981SOL     OW 6752   6.196   0.629   0.154 -0.2803  0.0281 -0.2442
 1981SOL    HW1 6753   6.115   0.656   0.196  0.2194 -1.4144  1.7825
 1981SOL    HW2 6754   6.168   0.591   0.070 -1.7329 -0.7159  0.5461
 1982SOL     OW 6755   0.333   1.310   5.129 -0.1682  0.5319 -0.5301
 1982SOL    HW1 6756   0.277   1.381   5.099 -1.0913  0.9176  1.9062
 1982SOL    HW2 6757   0.352   1.331   5.220  1.4184 -1.1999 -0.4040
 1983SOL     OW 6758   5.649   6.024   5.120 -0.7384 -0.3177 -0.2473
 1983SOL    HW1 6759   5.697   6.097   5.157  0.3457 -1.1326  0.0044
 1983SOL    HW2 6760   5.562   6.059   5.102 -0.7784  0.5740  1.4599
 1984SOL     OW 6761   2.045   3.716   1.397  0.0063 -0.5385 -0.1544
 1984SOL    HW1 6762   2.007   3.652   1.457  0.2383 -0.2364  0.3207
 1984SOL    HW2 6763   2.134   3.728   1.428 -0.6475  1.6207  1.1294
 1985SOL     OW 6764   0.303   3.041   7.687  0.0781  0.1388 -0.3054
 1985SOL    HW1 6765   0.221   3.001   7.717  1.6506 -3.1803 -0.0186
 1985SOL    HW2 6766   0.352   3.059   7.767  0.3627  0.4791 -0.5520
 1986SOL     OW 6767   3.344   4.945   1.914  0.0545 -0.1824  0.3653
 1986SOL    HW1 6768   3.298   5.024   1.886 -2.1169 -1.5902 -0.3327
 1986SOL    HW2 6769   3.328   4.941   2.009 -0.1311  0.0423  0.3439
 1987SOL     OW 6770   3.643   1.954   1.068  0.4134 -0.7130 -0.1980
 1987SOL    HW1 6771   3.669   1.946   0.976  0.8109 -1.2553 -0.0401
 1987SOL    HW2 6772   3.703   1.897   1.115 -0.6599 -1.5122  0.2433
 1988SOL     OW 6773   1.429   1.045   7.228  0.0117  0.1628 -0.2154
 1988SOL    HW1 6774   1.396   1.002   7.307 -0.3785 -0.7900 -0.8748
 1988SOL    HW2 6775   1.453   0.973   7.170 -1.3477  0.7990 -1.6427
 1989SOL     OW 6776   7.811   6.275   3.351 -0.3059  0.0321 -0.5274
 1989SOL    HW1 6777   7.867   6.319   3.415  0.7333 -1.1882 -0.5425
 1989SOL    HW2 6778   7.722   6.298   3.376  0.0695 -0.4317  1.4073
 1990SOL     OW 6779   7.675   2.565   6.058  0.2733  0.3701 -0.1422
 1990SOL    HW1 6780   7.698   2.622   5.985  1.4134  0.3765  0.2031
 1990SOL    HW2 6781   7.758   2.550   6.104 -0.6788  1.9115  2.2680
 1991SOL     OW 6782   4.703   1.911   7.724  0.1001 -0.0583 -0.6625
 1991SOL    HW1 6783   4.696   1.987   7.666 -2.1227  0.3123 -0.0133
 1991SOL    HW2 6784   4.667   1.940   7.807  0.3928 -1.4728  0.0054
 1992SOL     OW 6785   6.107   7.317   4.182 -0.1177  0.5216  0.2067
 1992SOL    HW1 6786   6.030   7.294   4.130  1.4557 -0.5525 -1.7911
 1992SOL    HW2 6787   6.106   7.413   4.184 -1.4592  0.5230  0.1374
 1993SOL     OW 6788   5.059   7.166   6.879 -0.1447 -0.8652  0.2311
 1993SOL    HW1 6789   5.103   7.175   6.964 -2.8304  0.2862  1.6171
 1993SOL    HW2 6790   4.968   7.191   6.896 -0.6210  0.2937 -3.1810
 1994SOL     OW 6791   2.403   1.927   7.363 -0.3824 -0.5466  0.2224
 1994SOL    HW1 6792   2.431   1.845   7.321  0.1078  0.4212 -1.4419
 1994SOL    HW2 6793   2.421   1.914   7.456  1.5942 -1.6005 -0.2563
 1995SOL     OW 6794   5.316   7.404   1.357 -0.1439 -0.3595  0.8041
 1995SOL    HW1 6795   5.299   7.454   1.278 -0.2039  0.3102  1.2361
 1995SOL    HW2 6796   5.229   7.382   1.390 -0.1318  0.0989  1.1455
 1996SOL     OW 6797   1.618   6.950   7.668  0.3882  0.4752  0.0006
 1996SOL    HW1 6798   1.561   6.918   7.598  0.5609 -1.4147  0.6650
 1996SOL    HW2 6799   1.675   7.014   7.626 -0.5620  0.5462 -1.2241
 1997SOL     OW 6800   3.921   2.285   0.485 -0.8889  0.2726  0.0107
 1997SOL    HW1 6801   3.990   2.300   0.420 -1.1009  1.2953 -0.0059
 1997SOL    HW2 6802   3.870   2.212   0.450 -0.7055  0.4830 -0.7262
 1998SOL     OW 6803   2.405   7.312   7.480  0.4000 -0.3247  0.0091
 1998SOL    HW1 6804   2.466   7.257   7.530  0.6445 -0.5182 -0.4927
 1998SOL    HW2 6805   2.404   7.273   7.393 -0.0403 -0.0027 -0.1314
 1999SOL     OW 6806   2.986   0.493   4.382 -0.3501 -0.3254 -0.0869
 1999SOL    HW1 6807   2.916   0.552   4.410  0.3214  0.7953 -0.6746
 1999SOL    HW2 6808   3.052   0.551   4.344  0.9002 -1.3523  0.4362
 2000SOL     OW 6809   5.596   6.349   1.417  0.4437 -0.5057 -0.2794
 2000SOL    HW1 6810   5.585   6.389   1.503  1.3203 -0.9879  0.0651
 2000SOL    HW2 6811   5.653   6.410   1.370  0.7641 -0.7316 -0.1825
 2001SOL     OW 6812   2.794   5.323   4.380  0.3269  0.5029 -0.0805
 2001SOL    HW1 6813   2.721   5.332   4.318  0.5276 -0.2317 -0.4322
 2001SOL    HW2 6814   2.869   5.300   4.325  0.2707 -1.2512  0.5265
 2002SOL     OW 6815   6.477   1.192   1.340  0.1208 -0.1672 -0.5088
 2002SOL    HW1 6816   6.553   1.138   1.359  2.4394  2.6114 -1.0613
 2002SOL    HW2 6817   6.498   1.277   1.379 -2.6371  0.7859 -0.8940
 2003SOL     OW 6818   2.635   5.198   7.117  0.2635 -0.4005 -0.3502
 2003SOL    HW1 6819   2.709   5.181   7.059  1.3141 -0.5039  0.9780
 2003SOL    HW2 6820   2.663   5.166   7.203 -1.9569 -1.9871 -0.1277
 2004SOL     OW 6821   4.705   5.120   7.029 -0.1110  0.1278 -0.0293
 2004SOL    HW1 6822   4.653   5.055   6.982 -2.5948  1.4554  0.6971
 2004SOL    HW2 6823   4.661   5.129   7.113  2.6995 -0.3064  1.6108
 2005SOL     OW 6824   0.555   1.601   7.252 -0.2989  0.1372 -0.3377
 2005SOL    HW1 6825   0.570   1.696   7.243  2.4524 -0.2414 -0.6140
 2005SOL    HW2 6826   0.606   1.576   7.329 -2.1324 -0.9695  0.5900
 2006SOL     OW 6827   6.946   0.229   2.961 -0.3798  0.0285 -0.6143
 2006SOL    HW1 6828   6.941   0.152   2.904 -0.1849  0.2727 -0.9691
 2006SOL    HW2 6829   6.915   0.302   2.906 -0.3560  0.2381 -0.3535
 2007SOL     OW 6830   1.153   4.454   4.167 -0.8565 -0.3937 -0.2873
 2007SOL    HW1 6831   1.135   4.520   4.100 -3.5713  0.2385  0.9560
 2007SOL    HW2 6832   1.186   4.379   4.117 -0.3114  0.9178 -2.0215
 2008SOL     OW 6833   1.727   6.583   1.236  0.0095  0.1403  0.4003
 2008SOL    HW1 6834   1.704   6.596   1.143  0.5025  1.9436  0.4960
 2008SOL    HW2 6835   1.657   6.527   1.270 -1.0546  0.7450 -0.7038
 2009SOL     OW 6836   5.994   1.261   6.063  0.1761 -0.0467 -0.2280
 2009SOL    HW1 6837   6.014   1.311   5.984 -3.1183  1.7252 -0.1125
 2009SOL    HW2 6838   5.902   1.280   6.081 -0.3862 -3.7110  1.7209
 2010SOL     OW 6839   7.261   6.113   6.930  0.2526 -0.0743 -0.6594
 2010SOL    HW1 6840   7.187   6.160   6.968  0.3071  0.8973 -1.7097
 2010SOL    HW2 6841   7.264   6.142   6.839  2.7996  1.0234 -0.2928
 2011SOL     OW 6842   3.613   6.906   5.736  0.1749  0.7860  0.5378
 2011SOL    HW1 6843   3.709   6.916   5.738  0.1687  2.1056 -1.7596
 2011SOL    HW2 6844   3.580   6.992   5.762 -0.3604  0.6438  0.3350
 2012SOL     OW 6845   5.397   5.376   6.892 -0.2585  0.0566  0.1851
 2012SOL    HW1 6846   5.427   5.290   6.922 -1.3836 -0.7287 -0.7998
 2012SOL    HW2 6847   5.338   5.406   6.961  1.7566  1.0642  1.5572
 2013SOL     OW 6848   5.685   3.450   5.100  0.8679 -0.3167  0.2083
 2013SOL    HW1 6849   5.686   3.543   5.122  0.2281  0.1533 -1.5521
 2013SOL    HW2 6850   5.749   3.441   5.030 -1.9131 -0.3040 -2.5724
 2014SOL     OW 6851   1.158   2.270   7.007 -0.2509  0.2581 -0.4480
 2014SOL    HW1 6852   1.095   2.225   7.062 -0.3387  0.3495 -0.4731
 2014SOL    HW2 6853   1.226   2.300   7.067  0.1047 -0.4128 -0.5064
 2015SOL     OW 6854   7.163   6.526   5.610 -0.0188  0.2830  0.4347
 2015SOL    HW1 6855   7.184   6.544   5.702  1.0768 -0.4888  0.3611
 2015SOL    HW2 6856   7.207   6.595   5.562 -1.3867  1.2467  0.5254
 2016SOL     OW 6857   4.737   6.202   2.074 -0.6393  0.3455  0.6421
 2016SOL    HW1 6858   4.720   6.255   1.997  2.5713  2.2909  1.0860
 2016SOL    HW2 6859   4.747   6.113   2.040  1.0769  1.2020 -1.3257
 2017SOL     OW 6860   0.793   0.609   1.357 -0.4924  0.4901 -0.1307
 2017SOL    HW1 6861   0.785   0.649   1.271 -0.8375 -1.3466 -0.9957
 2017SOL    HW2 6862   0.794   0.515   1.340  0.1101  0.0957  1.8221
 2018SOL     OW 6863   6.836   2.815   6.847  0.1879  0.3235 -0.0163
 2018SOL    HW1 6864   6.926   2.835   6.870 -0.0261 -1.1265  2.4236
 2018SOL    HW2 6865   6.839   2.728   6.808 -0.2495 -0.4004  1.4718
 2019SOL     OW 6866   3.922   4.507   3.788 -0.6537  0.1064  0.8284
 2019SOL    HW1 6867   3.978   4.584   3.790 -0.7608  0.1964  0.5106
 2019SOL    HW2 6868   3.979   4.435   3.814 -0.3753  0.1872  0.4540
 2020SOL     OW 6869   2.254   3.029   7.982  0.1369  0.0737  0.7334
 2020SOL    HW1 6870   2.166   3.047   7.949 -0.7030 -1.4896  1.9868
 2020SOL    HW2 6871   2.297   2.982   7.912 -0.7511 -0.9569  0.8586
 2021SOL     OW 6872   2.953   1.832   1.981 -0.5784 -0.5153 -0.3215
 2021SOL    HW1 6873   2.912   1.751   2.013 -2.4601  0.4565 -0.1359
 2021SOL    HW2 6874   2.921   1.900   2.041  0.2757  0.5038 -0.9939
 2022SOL     OW 6875   5.504   1.822   5.220 -0.3854 -0.0865  0.2374
 2022SOL    HW1 6876   5.569   1.891   5.205 -0.4254 -0.0206  0.3753
 2022SOL    HW2 6877   5.550   1.741   5.195 -0.0115 -0.1199  1.0218
 2023SOL     OW 6878   7.827   3.639   6.304  0.1767 -0.1607 -0.0259
 2023SOL    HW1 6879   7.812   3.727   6.271  1.2510  0.2960  0.6486
 2023SOL    HW2 6880   7.865   3.652   6.391  0.7695 -1.2728 -0.0951
 2024SOL     OW 6881   5.269   2.089   2.627 -0.0581  0.2391 -0.0830
 2024SOL    HW1 6882   5.294   2.008   2.671 -1.0572  0.0945  0.2250
 2024SOL    HW2 6883   5.242   2.062   2.540 -1.4555  0.0937  0.3808
 2025SOL     OW 6884   7.946   0.964   3.384  0.0949 -0.8134 -0.3887
 2025SOL    HW1 6885   7.882   1.027   3.350 -0.9565 -1.4969  0.2735
 2025SOL    HW2 6886   8.029   1.012   3.385 -0.7268  0.6385  0.3245
 2026SOL     OW 6887   4.902   3.517   7.222  0.0192 -0.5597 -0.0081
 2026SOL    HW1 6888   4.903   3.587   7.287 -1.4431 -1.1259  0.6800
 2026SOL    HW2 6889   4.861   3.557   7.144 -1.0483 -0.6829  0.4667
 2027SOL     OW 6890   3.344   6.214   1.179  0.3051  0.1444 -0.3858
 2027SOL    HW1 6891   3.311   6.167   1.102 -1.5047 -0.0753  0.4880
 2027SOL    HW2 6892   3.436   6.187   1.186 -0.0494 -1.3863 -1.2782
 2028SOL     OW 6893   4.704   4.688   1.174  0.0741  0.0583 -0.1418
 2028SOL    HW1 6894   4.660   4.674   1.090 -2.6924 -1.6928  1.4242
 2028SOL    HW2 6895   4.746   4.604   1.193 -0.9597 -0.2014  1.0594
 2029SOL     OW 6896   1.990   0.651   3.389 -0.0485 -0.2171 -0.1937
 2029SOL    HW1 6897   2.040   0.630   3.467 -0.0836 -1.3012 -0.4455
 2029SOL    HW2 6898   2.040   0.612   3.317 -0.4526  0.0400 -0.6203
 2030SOL     OW 6899   2.935   0.116   1.642 -0.2043 -0.1588  0.0481
 2030SOL    HW1 6900   2.853   0.073   1.669  0.1345 -0.1556  1.1535
 2030SOL    HW2 6901   2.984   0.047   1.597 -0.9906 -0.0394 -1.0382
 2031SOL     OW 6902   6.479   7.263   2.734 -0.4779 -0.0638  0.2738
 2031SOL    HW1 6903   6.428   7.228   2.807  1.2008  0.0736  1.5635
 2031SOL    HW2 6904   6.522   7.341   2.770 -0.8563  0.9432 -1.3432
 2032SOL     OW 6905   4.815   5.734   2.189 -0.0597 -0.5041 -0.3034
 2032SOL    HW1 6906   4.781   5.770   2.107 -0.1029 -0.6542 -0.3527
 2032SOL    HW2 6907   4.747   5.754   2.253 -0.7583 -1.7213 -0.6058
 2033SOL     OW 6908   1.061   1.807   5.612  0.7831 -0.1518  0.6692
 2033SOL    HW1 6909   1.042   1.833   5.522  0.3755 -0.2052  0.7366
 2033SOL    HW2 6910   1.059   1.890   5.661  0.2642 -0.2073  0.7510
 2034SOL     OW 6911   7.713   2.981   3.479  0.3086 -0.2667  0.0235
 2034SOL    HW1 6912   7.729   2.959   3.388  0.2303  2.3458 -0.7066
 2034SOL    HW2 6913   7.633   3.033   3.478  2.2478  3.0309  0.9691
 2035SOL     OW 6914   5.159   1.933   3.320 -0.4799 -0.3964 -0.2998
 2035SOL    HW1 6915   5.218   1.869   3.279 -0.6113 -0.9927  0.4203
 2035SOL    HW2 6916   5.210   1.970   3.392 -0.8327 -0.6203  0.0728
 2036SOL     OW 6917   2.589   4.722   2.722  0.1123  0.1836  0.3518
 2036SOL    HW1 6918   2.497   4.702   2.735  0.2631 -0.4633  0.4417
 2036SOL    HW2 6919   2.622   4.651   2.668  0.4654  0.6398 -0.0469
 2037SOL     OW 6920   3.571   0.162   0.645  0.0151 -0.2829 -0.1619
 2037SOL    HW1 6921   3.524   0.085   0.613  0.7675 -0.5402 -0.6662
 2037SOL    HW2 6922   3.573   0.222   0.571 -1.5761  0.7384  0.5623
 2038SOL     OW 6923   6.966   5.410   3.594  0.1828  0.5418 -0.1525
 2038SOL    HW1 6924   7.034   5.363   3.643  0.1021  0.2473 -0.3161
 2038SOL    HW2 6925   6.996   5.500   3.590  1.6331  0.0283 -2.0681
 2039SOL     OW 6926   1.353   7.958   4.275  0.0659  0.2850 -0.0761
 2039SOL    HW1 6927   1.267   7.949   4.316  0.8864  0.2722  1.7530
 2039SOL    HW2 6928   1.351   8.044   4.233 -0.3758  0.9107  1.1825
 2040SOL     OW 6929   5.786   3.629   0.912 -0.8530 -0.0067 -0.0965
 2040SOL    HW1 6930   5.821   3.589   0.991  0.3185  0.0063 -0.5905
 2040SOL    HW2 6931   5.692   3.611   0.916 -0.7650 -0.2761  1.1306
 2041SOL     OW 6932   2.463   1.668   6.618 -0.1446  0.2134  0.0253
 2041SOL    HW1 6933   2.422   1.654   6.704 -0.7133 -0.1155 -0.2925
 2041SOL    HW2 6934   2.465   1.581   6.578 -1.1422  0.5643 -0.8413
 2042SOL     OW 6935   1.421   5.871   3.773  0.0085  0.5720 -0.2033
 2042SOL    HW1 6936   1.434   5.942   3.710  1.0034  0.3343 -0.2769
 2042SOL    HW2 6937   1.460   5.794   3.732 -0.9882 -0.0176 -0.0895
 2043SOL     OW 6938   5.270   7.216   6.337  0.0736  0.2918  0.8417
 2043SOL    HW1 6939   5.347   7.166   6.363 -0.3585 -2.2799 -2.2986
 2043SOL    HW2 6940   5.196   7.165   6.370 -0.3777  1.3640  1.5531
 2044SOL     OW 6941   4.297   7.127   7.213  0.0408 -0.0431 -0.2499
 2044SOL    HW1 6942   4.273   7.078   7.134 -0.4910  1.4968 -1.0804
 2044SOL    HW2 6943   4.308   7.217   7.183  1.3124  0.3171  1.1793
 2045SOL     OW 6944   5.180   5.471   2.404 -0.0793  0.0626 -0.0433
 2045SOL    HW1 6945   5.145   5.559   2.395 -0.8385  0.0451  2.0345
 2045SOL    HW2 6946   5.103   5.415   2.413  0.4084 -0.4972  0.8314
 2046SOL     OW 6947   3.713   4.260   4.007 -0.4294 -0.3267  0.2945
 2046SOL    HW1 6948   3.735   4.190   3.946  0.7676 -0.1493  0.4963
 2046SOL    HW2 6949   3.721   4.340   3.955  1.7249 -0.0790  0.9211
 2047SOL     OW 6950   0.180   2.688   0.326  0.0817 -0.6984 -0.0075
 2047SOL    HW1 6951   0.206   2.607   0.281  0.7383  1.0452 -3.0404
 2047SOL    HW2 6952   0.135   2.739   0.259 -3.4222  0.1769  2.6799
 2048SOL     OW 6953   5.799   1.056   6.502  0.4326 -0.5689 -0.3432
 2048SOL    HW1 6954   5.762   1.138   6.470  2.0851  0.1623 -0.4735
 2048SOL    HW2 6955   5.893   1.063   6.485  0.8479 -1.7771  1.1488
 2049SOL     OW 6956   0.860   5.525   1.747 -0.0930  0.0353  0.0160
 2049SOL    HW1 6957   0.833   5.572   1.668 -0.1255 -0.1468 -0.0809
 2049SOL    HW2 6958   0.788   5.541   1.809  1.5397  3.3182  1.3415
 2050SOL     OW 6959   1.624   7.298   0.575 -0.3927  0.0207  0.0171
 2050SOL    HW1 6960   1.613   7.295   0.670  0.1379 -0.3726  0.0705
 2050SOL    HW2 6961   1.550   7.248   0.541 -0.6682  0.2900  0.2134
 2051SOL     OW 6962   7.923   2.340   2.020 -0.1739 -0.1132  0.2022
 2051SOL    HW1 6963   7.917   2.255   1.976 -1.0634 -0.1906  0.4695
 2051SOL    HW2 6964   7.953   2.400   1.951  0.0843 -0.5612 -0.0813
 2052SOL     OW 6965   4.986   1.787   3.131 -0.4058 -0.2149 -0.2587
 2052SOL    HW1 6966   4.895   1.812   3.117 -0.4691 -0.7271 -0.8235
 2052SOL    HW2 6967   5.007   1.818   3.219 -1.5850 -1.4212  0.4742
 2053SOL     OW 6968   0.248   4.767   3.379  0.1932  0.2373 -0.1125
 2053SOL    HW1 6969   0.187   4.696   3.400  0.2926  0.0554 -0.4289
 2053SOL    HW2 6970   0.217   4.801   3.295  0.0406  0.6860  0.1259
 2054SOL     OW 6971   5.154   1.027   0.540  0.0138 -0.4012  0.2382
 2054SOL    HW1 6972   5.106   0.948   0.513 -0.9487  0.2973 -0.1717
 2054SOL    HW2 6973   5.107   1.057   0.618  1.7457 -1.4540  1.7641
 2055SOL     OW 6974   3.541   1.873   2.840  0.3091 -0.4322  0.4241
 2055SOL    HW1 6975   3.560   1.833   2.755  1.0809 -2.0485  1.3211
 2055SOL    HW2 6976   3.538   1.800   2.901 -2.7737  0.3958  1.4321
 2056SOL     OW 6977   7.690   7.033   4.808 -0.5847  0.1766 -0.5983
 2056SOL    HW1 6978   7.715   6.952   4.764  1.1095  0.9482 -1.1185
 2056SOL    HW2 6979   7.760   7.095   4.788  0.1143  0.7257  2.8295
 2057SOL     OW 6980   6.077   1.160   2.665 -0.2447 -0.5416 -0.3762
 2057SOL    HW1 6981   5.991   1.187   2.698 -0.4440 -0.9055 -0.5846
 2057SOL    HW2 6982   6.058   1.119   2.580  0.2949  0.7363 -1.1446
 2058SOL     OW 6983   0.655   3.165   5.208  0.6855  0.7982  0.1929
 2058SOL    HW1 6984   0.698   3.231   5.153  3.1092 -0.5607  0.2962
 2058SOL    HW2 6985   0.718   3.147   5.278 -0.4239 -0.7267  0.8581
 2059SOL     OW 6986   5.673   3.346   3.433  0.0488  0.3260  0.3813
 2059SOL    HW1 6987   5.644   3.276   3.492  1.7154 -1.3765 -0.7151
 2059SOL    HW2 6988   5.674   3.425   3.488 -0.7383 -0.7360  1.9815
 2060SOL     OW 6989   6.979   6.823   7.447 -0.2446 -0.3680 -0.1498
 2060SOL    HW1 6990   6.972   6.918   7.444  0.6010 -0.3106 -1.9833
 2060SOL    HW2 6991   6.968   6.795   7.356  2.9382 -1.7165 -0.2629
 2061SOL     OW 6992   6.301   5.284   0.238  0.2397  0.1703  0.2531
 2061SOL    HW1 6993   6.370   5.220   0.223 -0.5199 -0.4020 -0.8882
 2061SOL    HW2 6994   6.231   5.234   0.280  0.1114  0.5317  0.4755
 2062SOL     OW 6995   7.298   2.482   3.466 -0.7737  0.1709  0.6935
 2062SOL    HW1 6996   7.333   2.413   3.521 -1.2707 -0.0553  0.7327
 2062SOL    HW2 6997   7.314   2.563   3.515 -0.2293  0.0796  0.6638
 2063SOL     OW 6998   0.250   2.487   4.829  0.3786 -0.5443 -0.1266
 2063SOL    HW1 6999   0.324   2.547   4.822 -0.1220  0.0260 -0.6131
 2063SOL    HW2 7000   0.227   2.488   4.922 -0.1592  0.6777 -0.2612
 2064SOL     OW 7001   0.086   5.634   3.446  0.0097 -0.0991 -0.3384
 2064SOL    HW1 7002   0.072   5.568   3.513 -0.9320  0.3729 -0.0615
 2064SOL    HW2 7003   0.023   5.703   3.466  0.1571  0.3411 -1.3309
 2065SOL     OW 7004   1.864   0.127   2.785 -0.6197  0.3305 -0.3741
 2065SOL    HW1 7005   1.785   0.180   2.784 -0.2429  1.1079  2.1713
 2065SOL    HW2 7006   1.861   0.081   2.869  2.3247  1.6466  0.6128
 2066SOL     OW 7007   0.464   7.076   6.229  0.1299  0.3657 -0.8353
 2066SOL    HW1 7008   0.430   7.034   6.150  0.6807  1.6152 -1.7833
 2066SOL    HW2 7009   0.524   7.143   6.196  0.6423  0.6828  0.6676
 2067SOL     OW 7010   6.474   6.127   5.003  0.1842 -0.3283 -0.0846
 2067SOL    HW1 7011   6.447   6.036   4.989 -0.8488 -0.3950  1.9322
 2067SOL    HW2 7012   6.397   6.170   5.041  1.2505  0.8705  0.8539
 2068SOL     OW 7013   3.190   3.427   3.082  0.2436 -0.3836 -0.2660
 2068SOL    HW1 7014   3.198   3.347   3.030  1.3874 -0.1188 -0.5316
 2068SOL    HW2 7015   3.109   3.468   3.051  0.1057 -0.9959 -0.7408
 2069SOL     OW 7016   1.637   4.550   3.315  0.2736  0.4598 -0.2668
 2069SOL    HW1 7017   1.565   4.599   3.276 -0.7345 -1.1315 -0.5091
 2069SOL    HW2 7018   1.687   4.517   3.240 -1.0381 -1.6940 -0.2555
 2070SOL     OW 7019   5.716   2.655   6.826  0.2592 -0.0824 -0.3795
 2070SOL    HW1 7020   5.722   2.589   6.896 -1.2345 -2.4669 -2.3257
 2070SOL    HW2 7021   5.657   2.721   6.861 -0.8555 -1.4717  0.5043
 2071SOL     OW 7022   6.502   2.748   2.626 -0.4061 -0.5344 -0.3658
 2071SOL    HW1 7023   6.548   2.663   2.629  0.8063  0.1161  0.3055
 2071SOL    HW2 7024   6.442   2.745   2.700 -0.2325 -0.7423 -0.2299
 2072SOL     OW 7025   6.370   0.361   3.716  0.1517  0.0307 -0.4330
 2072SOL    HW1 7026   6.444   0.330   3.665 -0.6115 -0.2467 -1.4210
 2072SOL    HW2 7027   6.369   0.307   3.795 -0.1277 -1.2992 -1.3138
 2073SOL     OW 7028   6.885   6.383   5.067 -0.7747 -0.8734  0.3862
 2073SOL    HW1 7029   6.829   6.458   5.047  2.0446  1.3347  0.0927
 2073SOL    HW2 7030   6.894   6.336   4.984  0.8699  1.0667 -0.6258
 2074SOL     OW 7031   7.757   2.268   5.381 -0.2812  0.0804  0.4857
 2074SOL    HW1 7032   7.809   2.193   5.351 -1.3393 -0.7852  0.7402
 2074SOL    HW2 7033   7.736   2.247   5.472  0.2306  1.1725  0.8665
 2075SOL     OW 7034   2.177   6.949   4.259  0.2606 -0.0299  0.1090
 2075SOL    HW1 7035   2.105   6.990   4.306 -0.1770 -1.4112  0.6862
 2075SOL    HW2 7036   2.254   6.999   4.286 -0.1713  0.0524  1.2744
 2076SOL     OW 7037   1.448   2.522   7.873 -0.1551 -0.2834 -0.1666
 2076SOL    HW1 7038   1.499   2.560   7.802  0.5191  0.6421  0.7832
 2076SOL    HW2 7039   1.394   2.455   7.831  0.7152 -0.2185 -1.4334
 2077SOL     OW 7040   7.190   4.610   7.176 -0.2283  0.4715 -0.1992
 2077SOL    HW1 7041   7.136   4.687   7.158  0.6834  0.9312 -1.1242
 2077SOL    HW2 7042   7.254   4.609   7.104  0.7404 -0.2682  0.6427
 2078SOL     OW 7043   1.381   0.508   2.205 -0.5622  0.5049 -0.3771
 2078SOL    HW1 7044   1.313   0.544   2.262  0.0088  2.2419 -0.7608
 2078SOL    HW2 7045   1.461   0.552   2.231  0.2087 -0.6004 -0.7911
 2079SOL     OW 7046   3.922   3.965   5.925 -0.1024  0.1513  0.1048
 2079SOL    HW1 7047   3.988   3.975   5.994  0.2288  0.6598 -0.2759
 2079SOL    HW2 7048   3.884   3.878   5.940  2.2455 -1.1783 -1.0356
 2080SOL     OW 7049   2.796   0.080   4.928  0.3512 -0.0300  0.2661
 2080SOL    HW1 7050   2.729   0.044   4.871  0.1299 -0.6037  0.8723
 2080SOL    HW2 7051   2.806   0.014   4.997  0.5151  0.7085  0.9583
 2081SOL     OW 7052   4.206   3.624   7.463 -0.2521  0.0529  0.6962
 2081SOL    HW1 7053   4.287   3.634   7.514  0.3445 -2.8304  0.5301
 2081SOL    HW2 7054   4.137   3.652   7.523  0.6263 -0.8890  2.2280
 2082SOL     OW 7055   2.639   0.543   2.705  0.0368  0.7545 -0.1006
 2082SOL    HW1 7056   2.605   0.454   2.713 -0.3706  1.0575  1.7948
 2082SOL    HW2 7057   2.733   0.531   2.689  0.1547 -0.0172  1.0669
 2083SOL     OW 7058   7.755   0.447   3.907  0.3237 -0.1488  0.1387
 2083SOL    HW1 7059   7.839   0.403   3.902  0.1939 -0.8592  2.6964
 2083SOL    HW2 7060   7.706   0.398   3.974 -2.6342 -0.5512 -2.0942
 2084SOL     OW 7061   6.375   1.843   2.710 -0.5209  0.7453  0.0858
 2084SOL    HW1 7062   6.436   1.801   2.770 -0.9725  0.6648  0.4957
 2084SOL    HW2 7063   6.421   1.921   2.678  1.1021 -1.0066 -2.1605
 2085SOL     OW 7064   2.699   1.967   7.841 -0.1090  0.0201 -0.9791
 2085SOL    HW1 7065   2.638   2.032   7.875  0.5127 -0.2651  0.7805
 2085SOL    HW2 7066   2.652   1.884   7.846  0.6188 -0.3427  1.2104
 2086SOL     OW 7067   3.649   6.051   3.065  0.5054 -0.1529  0.4200
 2086SOL    HW1 7068   3.683   5.962   3.055 -0.8147 -0.5001 -1.3551
 2086SOL    HW2 7069   3.668   6.093   2.981 -0.2533  0.7569  0.6900
 2087SOL     OW 7070   7.064   0.831   5.523  0.5117  0.2230 -0.4105
 2087SOL    HW1 7071   7.035   0.875   5.443 -0.2370  0.1157 -0.2059
 2087SOL    HW2 7072   6.983   0.815   5.572  1.0130  0.7643  0.6110
 2088SOL     OW 7073   4.439   3.386   2.807 -0.2613 -0.3343  0.8557
 2088SOL    HW1 7074   4.446   3.397   2.902 -0.0324  1.3544  0.6867
 2088SOL    HW2 7075   4.440   3.476   2.773 -0.3564 -0.9088 -0.7450
 2089SOL     OW 7076   1.104   2.031   1.071  0.2269  0.2344  0.4618
 2089SOL    HW1 7077   1.148   1.949   1.092  0.8339  0.2250 -0.7673
 2089SOL    HW2 7078   1.016   2.005   1.043  1.1414 -0.2753 -2.2247
 2090SOL     OW 7079   6.229   3.282   3.066  0.0750  0.0086 -0.2602
 2090SOL    HW1 7080   6.172   3.275   2.990 -0.6829 -0.0253  0.2970
 2090SOL    HW2 7081   6.177   3.330   3.131  1.0011  0.7330 -0.0376
 2091SOL     OW 7082   0.175   5.801   4.723 -0.4051 -0.0245  1.0760
 2091SOL    HW1 7083   0.102   5.850   4.684  1.2697  1.1567 -0.7751
 2091SOL    HW2 7084   0.212   5.752   4.650  1.0965 -0.0381  1.8095
 2092SOL     OW 7085   5.457   2.858   7.223  0.2577 -0.4547 -0.1462
 2092SOL    HW1 7086   5.366   2.850   7.253  0.5432 -2.2516  0.3804
 2092SOL    HW2 7087   5.478   2.951   7.235 -0.7424 -0.4475  2.0688
 2093SOL     OW 7088   6.783   2.893   3.777  0.1799 -0.3550  0.0364
 2093SOL    HW1 7089   6.823   2.969   3.735 -1.1231  0.3452  0.0224
 2093SOL    HW2 7090   6.857   2.834   3.795  1.4176  1.4392  1.1904
 2094SOL     OW 7091   6.663   7.618   1.310 -0.1418  0.0178  0.7293
 2094SOL    HW1 7092   6.581   7.642   1.267  0.3313 -1.0531 -0.8678
 2094SOL    HW2 7093   6.657   7.657   1.397 -0.8865  2.8880 -0.4830
 2095SOL     OW 7094   2.056   4.715   5.184  0.0411  0.2270 -0.0238
 2095SOL    HW1 7095   2.117   4.700   5.111  0.4883 -3.8103  0.9166
 2095SOL    HW2 7096   2.112   4.716   5.262 -0.7384  1.1465  0.5541
 2096SOL     OW 7097   1.774   1.616   2.217 -0.1229  0.0978 -0.1710
 2096SOL    HW1 7098   1.820   1.533   2.235  0.6321  0.4999 -0.2032
 2096SOL    HW2 7099   1.835   1.666   2.163 -0.3087  0.9384  0.3820
 2097SOL     OW 7100   7.509   5.675   1.349  0.5887 -0.0566  0.6446
 2097SOL    HW1 7101   7.459   5.606   1.306 -0.3273  0.5936  0.6291
 2097SOL    HW2 7102   7.540   5.636   1.430  0.5010 -0.6401  0.3982
 2098SOL     OW 7103   7.862   5.146   2.256 -0.1698 -0.6494 -0.4243
 2098SOL    HW1 7104   7.809   5.111   2.327 -1.8261  1.4142 -0.5275
 2098SOL    HW2 7105   7.810   5.220   2.222  2.6530  1.3685 -0.6874
 2099SOL     OW 7106   2.122   2.662   1.402 -0.4252  0.4921  0.5393
 2099SOL    HW1 7107   2.135   2.568   1.406  1.3562  0.5636 -1.5791
 2099SOL    HW2 7108   2.183   2.698   1.467  0.5769  0.2441 -0.2381
 2100SOL     OW 7109   2.559   4.517   5.019  0.2468 -0.1786 -0.2092
 2100SOL    HW1 7110   2.533   4.608   5.001  0.7413 -0.1525 -0.8103
 2100SOL    HW2 7111   2.544   4.507   5.113 -1.5654 -0.0502 -0.4442
 2101SOL     OW 7112   1.520   1.332   0.168 -0.3493 -0.0735  0.0971
 2101SOL    HW1 7113   1.502   1.320   0.075 -0.6691 -0.3444  0.1888
 2101SOL    HW2 7114   1.516   1.427   0.181  1.6309  0.1210 -0.5271
 2102SOL     OW 7115   2.235   5.335   7.487 -0.6664  0.5542 -0.1029
 2102SOL    HW1 7116   2.184   5.254   7.494  0.9467 -0.4557  0.3103
 2102SOL    HW2 7117   2.326   5.307   7.487 -0.0732  2.3235 -0.7644
 2103SOL     OW 7118   7.223   4.790   4.609 -0.2933  0.1654  0.4410
 2103SOL    HW1 7119   7.189   4.827   4.527  1.4181  0.2231 -0.2811
 2103SOL    HW2 7120   7.279   4.859   4.644  1.8751 -1.1790 -0.2332
 2104SOL     OW 7121   0.156   3.944   0.097 -0.4057 -0.1556  0.4300
 2104SOL    HW1 7122   0.133   3.884   0.168 -1.7643  0.9317  0.9432
 2104SOL    HW2 7123   0.161   4.030   0.138 -1.3879  0.5291 -0.8127
 2105SOL     OW 7124   2.034   5.916   5.240  0.1047  0.0416 -0.5677
 2105SOL    HW1 7125   2.071   5.939   5.155  0.8387 -0.5697 -0.4204
 2105SOL    HW2 7126   1.964   5.853   5.219  0.1993 -0.0127 -0.7241
 2106SOL     OW 7127   3.975   4.969   4.396  0.6402 -0.0630  0.6981
 2106SOL    HW1 7128   3.980   5.030   4.469  2.4406  1.2977 -0.4661
 2106SOL    HW2 7129   3.949   5.023   4.321 -0.8555 -1.3583  0.2269
 2107SOL     OW 7130   4.289   4.795   6.779  0.1808  0.2757  0.4429
 2107SOL    HW1 7131   4.296   4.887   6.753 -1.6665 -0.0819 -1.6958
 2107SOL    HW2 7132   4.199   4.786   6.811  0.8666 -0.4656  2.2855
 2108SOL     OW 7133   6.209   7.979   3.299 -0.0862 -0.2227  0.1477
 2108SOL    HW1 7134   6.172   7.917   3.363 -1.8560  1.7257  1.1155
 2108SOL    HW2 7135   6.134   8.006   3.246  0.5774  1.3143 -0.0377
 2109SOL     OW 7136   3.125   0.301   5.216  0.0624 -0.0655  0.0920
 2109SOL    HW1 7137   3.136   0.223   5.270 -0.9007 -0.1545  0.1771
 2109SOL    HW2 7138   3.213   0.320   5.183  0.4703 -0.6390  0.8167
 2110SOL     OW 7139   5.069   3.597   4.193 -0.0420 -0.0236 -0.1908
 2110SOL    HW1 7140   4.995   3.655   4.207 -0.8617 -1.0330 -0.2596
 2110SOL    HW2 7141   5.036   3.510   4.213  0.5540 -0.7471 -2.0830
 2111SOL     OW 7142   1.895   4.086   6.307 -0.0746  0.4441 -0.1024
 2111SOL    HW1 7143   1.864   4.060   6.394  1.2525 -1.1326 -0.0553
 2111SOL    HW2 7144   1.912   4.180   6.315 -1.9333  0.7640  0.7017
 2112SOL     OW 7145   7.071   4.595   7.853  0.5002 -0.1535 -0.2056
 2112SOL    HW1 7146   7.080   4.621   7.945  0.2931 -1.3361  0.1725
 2112SOL    HW2 7147   6.977   4.580   7.841  0.4865  0.3195 -0.7075
 2113SOL     OW 7148   0.584   3.631   1.897 -0.3838 -0.2877  0.1855
 2113SOL    HW1 7149   0.674   3.621   1.928 -0.4619 -1.5632  0.0245
 2113SOL    HW2 7150   0.583   3.591   1.810 -1.0929 -0.1960  0.1429
 2114SOL     OW 7151   7.714   3.042   2.428  0.0183  0.0570 -0.1857
 2114SOL    HW1 7152   7.625   3.079   2.431 -0.9480 -1.9623 -1.5950
 2114SOL    HW2 7153   7.714   2.978   2.500 -0.8166 -2.1289 -2.0045
 2115SOL     OW 7154   7.524   2.888   7.250 -0.3843 -0.2900 -0.3119
 2115SOL    HW1 7155   7.504   2.852   7.163  1.1272 -0.6001 -0.5551
 2115SOL    HW2 7156   7.608   2.931   7.240 -0.3177 -0.0813  0.9449
 2116SOL     OW 7157   2.053   7.580   0.955 -0.5308 -0.0929  0.1850
 2116SOL    HW1 7158   2.023   7.653   0.901 -0.2534  0.9482  1.3857
 2116SOL    HW2 7159   1.973   7.546   0.996 -0.5172  0.3750  0.6112
 2117SOL     OW 7160   7.443   2.524   6.603  0.3491  0.5685  0.2065
 2117SOL    HW1 7161   7.383   2.562   6.539 -0.1922  1.2221  1.0851
 2117SOL    HW2 7162   7.398   2.446   6.636  0.2618  0.6957  0.3909
 2118SOL     OW 7163   4.197   7.645   4.991 -0.0186  0.1638 -0.0649
 2118SOL    HW1 7164   4.161   7.610   4.910 -3.1506  0.5249  1.0311
 2118SOL    HW2 7165   4.178   7.577   5.056  2.6155 -0.2138  0.4394
 2119SOL     OW 7166   0.043   0.957   3.693  0.1289 -0.2790 -0.3195
 2119SOL    HW1 7167  -0.039   0.983   3.652  0.5820  1.0482 -0.4456
 2119SOL    HW2 7168   0.098   0.928   3.620  0.8724  1.9132 -0.7326
 2120SOL     OW 7169   6.431   7.853   7.108 -0.2267 -0.0577 -0.2097
 2120SOL    HW1 7170   6.437   7.764   7.073  1.5314 -0.0031 -0.1193
 2120SOL    HW2 7171   6.495   7.904   7.058 -0.1118  0.8016  0.7669
 2121SOL     OW 7172   4.089   0.032   7.064 -0.4040 -0.3305  0.7008
 2121SOL    HW1 7173   4.104   0.126   7.054  0.3150 -0.5756 -0.8205
 2121SOL    HW2 7174   4.142   0.007   7.140 -0.9602  0.5493  1.4009
 2122SOL     OW 7175   6.863   1.227   1.923 -0.6802  0.3487 -0.2494
 2122SOL    HW1 7176   6.925   1.267   1.861 -1.7653  1.5747 -0.5895
 2122SOL    HW2 7177   6.915   1.213   2.002  0.7861 -1.4061 -1.4285
 2123SOL     OW 7178   7.021   2.211   7.260 -0.1290 -0.3460 -0.3888
 2123SOL    HW1 7179   7.043   2.282   7.321  0.4137 -1.1489  0.3677
 2123SOL    HW2 7180   6.925   2.207   7.262 -0.1086 -1.3100  1.5739
 2124SOL     OW 7181   0.744   3.013   7.662 -0.1048  0.2633 -0.1161
 2124SOL    HW1 7182   0.784   2.978   7.741 -1.7846  2.2185  1.7347
 2124SOL    HW2 7183   0.694   2.940   7.625 -0.0356 -0.4413  1.1415
 2125SOL     OW 7184   3.118   3.542   6.126 -0.2602 -0.2256 -0.8576
 2125SOL    HW1 7185   3.137   3.589   6.207  3.4835  0.5171 -2.0005
 2125SOL    HW2 7186   3.038   3.493   6.146  1.0576 -1.0293  3.7127
 2126SOL     OW 7187   3.761   1.197   6.149  0.3905  0.3427 -0.5078
 2126SOL    HW1 7188   3.668   1.200   6.130  0.0839  0.6010  0.9158
 2126SOL    HW2 7189   3.799   1.146   6.078 -1.1136 -1.4440 -0.1004
 2127SOL     OW 7190   6.844   1.179   7.196  0.2753 -0.0972 -0.5677
 2127SOL    HW1 7191   6.885   1.116   7.136  2.8284  1.5019 -0.6729
 2127SOL    HW2 7192   6.915   1.238   7.220 -1.7744  2.1934  0.2597
 2128SOL     OW 7193   3.215   4.212   3.875  0.2052 -0.4796 -0.0007
 2128SOL    HW1 7194   3.229   4.216   3.970  0.0760 -1.8193  0.0937
 2128SOL    HW2 7195   3.138   4.156   3.864  0.2587 -0.3971 -0.9009
 2129SOL     OW 7196   4.100   6.517   7.046  0.1233  0.1101 -0.2525
 2129SOL    HW1 7197   4.144   6.437   7.077 -1.7691  0.1235  3.0229
 2129SOL    HW2 7198   4.128   6.585   7.108 -1.7054  0.8768 -0.1904
 2130SOL     OW 7199   0.401   6.179   5.642  0.1803  0.5562  0.7423
 2130SOL    HW1 7200   0.385   6.256   5.587  2.0522  1.5797  1.5453
 2130SOL    HW2 7201   0.334   6.184   5.711 -0.3205  0.9071  0.2367
 2131SOL     OW 7202   5.117   7.198   5.491 -0.5137 -0.1266  0.5346
 2131SOL    HW1 7203   5.033   7.241   5.508 -0.6068  1.2615 -2.8009
 2131SOL    HW2 7204   5.182   7.265   5.512 -0.4027 -0.1646  0.3092
 2132SOL     OW 7205   4.440   2.988   1.927 -0.4718  0.3605  0.2953
 2132SOL    HW1 7206   4.451   2.927   2.000  0.1048  0.5089  0.3308
 2132SOL    HW2 7207   4.509   2.964   1.865  0.7447  1.9619  0.9784
 2133SOL     OW 7208   4.298   1.913   5.900 -0.4256  0.0837  0.5842
 2133SOL    HW1 7209   4.253   1.911   5.816 -1.8784  0.0599  1.3327
 2133SOL    HW2 7210   4.246   1.972   5.954  2.1080  2.4793  0.6120
 2134SOL     OW 7211   3.572   5.711   2.411 -0.1608 -0.4042 -0.1665
 2134SOL    HW1 7212   3.653   5.665   2.433  0.0235 -0.1715 -0.3611
 2134SOL    HW2 7213   3.506   5.672   2.469  0.2276 -0.1057  0.4790
 2135SOL     OW 7214   6.108   2.643   6.244 -0.0162 -0.1285  0.2515
 2135SOL    HW1 7215   6.048   2.706   6.285  0.5746  0.9234 -0.4300
 2135SOL    HW2 7216   6.155   2.603   6.318 -0.2765  0.3737  0.6992
 2136SOL     OW 7217   2.581   7.934   0.261  0.2791 -0.1503 -0.1459
 2136SOL    HW1 7218   2.572   7.952   0.355  0.4210 -0.2998 -0.1036
 2136SOL    HW2 7219   2.620   8.013   0.225  2.1329 -0.8155  0.2473
 2137SOL     OW 7220   4.584   2.480   6.071  0.2475 -0.0658 -0.2705
 2137SOL    HW1 7221   4.546   2.542   6.132 -0.1229  0.4252 -0.9872
 2137SOL    HW2 7222   4.670   2.516   6.051 -0.1303  0.4650 -1.0117
 2138SOL     OW 7223   3.526   1.765   5.897 -0.0571  0.8620  0.2593
 2138SOL    HW1 7224   3.477   1.705   5.953 -0.2905  0.4766 -0.3367
 2138SOL    HW2 7225   3.534   1.845   5.948 -0.8300  0.7423  0.5866
 2139SOL     OW 7226   4.383   1.869   1.197  0.0201 -0.1735  0.3509
 2139SOL    HW1 7227   4.434   1.890   1.119 -0.5373  0.1188  0.0578
 2139SOL    HW2 7228   4.432   1.798   1.239  0.3951 -0.2456 -0.1938
 2140SOL     OW 7229   4.401   5.661   4.591 -0.0871  0.3647  0.0418
 2140SOL    HW1 7230   4.423   5.609   4.668 -0.1663  1.4679  0.8277
 2140SOL    HW2 7231   4.460   5.628   4.523  0.6167 -0.0080  0.8151
 2141SOL     OW 7232   7.735   4.287   7.250 -0.6115  0.0351  0.3113
 2141SOL    HW1 7233   7.673   4.353   7.221 -0.1026  0.4528  0.1471
 2141SOL    HW2 7234   7.759   4.240   7.171 -1.3043 -0.6457  0.4947
 2142SOL     OW 7235   2.465   3.339   6.232 -0.5014 -0.3738  0.1470
 2142SOL    HW1 7236   2.392   3.347   6.170 -0.6295 -0.0328  0.3329
 2142SOL    HW2 7237   2.496   3.429   6.243 -0.7981 -0.3626  0.9503
 2143SOL     OW 7238   2.186   2.107   7.846 -0.5039 -0.2422 -0.1177
 2143SOL    HW1 7239   2.140   2.058   7.915  1.2408 -2.1199 -0.1898
 2143SOL    HW2 7240   2.119   2.125   7.781 -1.5087 -1.4580  0.5219
 2144SOL     OW 7241   6.962   2.723   0.986  0.3148  0.2235  0.0038
 2144SOL    HW1 7242   6.944   2.659   0.917  0.2065 -2.1467  2.0723
 2144SOL    HW2 7243   7.057   2.726   0.992  0.3379  0.8710 -0.6072
 2145SOL     OW 7244   5.601   0.453   4.450 -0.1884  0.2982 -0.0060
 2145SOL    HW1 7245   5.651   0.397   4.509 -1.7581 -1.5734 -0.3512
 2145SOL    HW2 7246   5.510   0.432   4.468 -0.8268  2.1277 -0.8031
 2146SOL     OW 7247   0.666   2.490   4.852 -0.2334 -0.1105  0.3695
 2146SOL    HW1 7248   0.595   2.547   4.881 -1.3828 -1.8837  1.2018
 2146SOL    HW2 7249   0.700   2.450   4.932 -0.7020 -1.9600 -0.2873
 2147SOL     OW 7250   3.346   4.257   6.972 -0.6049  0.0460 -0.5202
 2147SOL    HW1 7251   3.414   4.317   6.940  0.9352 -1.0608  0.5509
 2147SOL    HW2 7252   3.306   4.221   6.892  1.4318 -0.7722 -1.2250
 2148SOL     OW 7253   3.807   5.819   3.193  0.4246  0.4248 -0.2107
 2148SOL    HW1 7254   3.751   5.794   3.266  1.2634  0.7570  0.5786
 2148SOL    HW2 7255   3.770   5.775   3.117 -0.7926  0.5117  0.3136
 2149SOL     OW 7256   4.098   7.884   4.876 -0.2261 -0.4072 -0.3741
 2149SOL    HW1 7257   4.129   7.814   4.933  1.3003 -0.0156 -0.6758
 2149SOL    HW2 7258   4.150   7.876   4.797 -1.2301  0.0245 -1.1052
 2150SOL     OW 7259   4.876   4.534   0.934  0.2247 -0.7420 -0.5224
 2150SOL    HW1 7260   4.788   4.571   0.920  0.6868  0.6432  0.0381
 2150SOL    HW2 7261   4.863   4.468   1.003  0.0903  1.8085  2.1012
 2151SOL     OW 7262   5.921   0.097   0.449 -0.4352 -0.0750 -0.4495
 2151SOL    HW1 7263   5.827   0.081   0.453 -0.8119  1.1882 -2.6945
 2151SOL    HW2 7264   5.937   0.161   0.519 -1.0417 -0.9468  0.5242
 2152SOL     OW 7265   0.478   2.161   1.268 -0.0261  0.3393 -0.1929
 2152SOL    HW1 7266   0.542   2.103   1.227 -1.4099 -1.2745 -0.1325
 2152SOL    HW2 7267   0.524   2.245   1.273  2.5131 -0.9767  0.8369
 2153SOL     OW 7268   3.253   4.597   6.931 -0.0642 -0.0383  0.4612
 2153SOL    HW1 7269   3.296   4.553   7.005  1.6709  0.0101 -0.4794
 2153SOL    HW2 7270   3.275   4.544   6.855 -1.5845  0.0801 -0.0992
 2154SOL     OW 7271   2.077   6.437   0.242 -0.7104 -0.0404  0.3156
 2154SOL    HW1 7272   2.010   6.406   0.181 -1.7636 -0.1658  1.4745
 2154SOL    HW2 7273   2.116   6.357   0.277 -1.4507 -0.0392  1.1966
 2155SOL     OW 7274   7.199   2.603   2.963  0.2134  0.4804  0.1601
 2155SOL    HW1 7275   7.111   2.640   2.957 -0.6026 -1.4257 -0.5407
 2155SOL    HW2 7276   7.219   2.604   3.056 -1.2055 -0.4528  0.5034
 2156SOL     OW 7277   5.739   3.016   1.435  0.2337 -0.5286 -0.0327
 2156SOL    HW1 7278   5.656   3.055   1.461  0.3615  0.0917 -0.5265
 2156SOL    HW2 7279   5.731   2.924   1.461 -0.2241 -0.2665  0.7937
 2157SOL     OW 7280   0.434   5.412   3.612  0.0288  0.0738  0.1626
 2157SOL    HW1 7281   0.381   5.340   3.649 -0.2100  0.8792  1.4462
 2157SOL    HW2 7282   0.457   5.382   3.524  0.7073 -1.9816  0.9862
 2158SOL     OW 7283   1.453   7.762   2.437 -0.4891  0.6714 -0.1661
 2158SOL    HW1 7284   1.376   7.811   2.466 -0.2396  0.6438  0.5688
 2158SOL    HW2 7285   1.475   7.800   2.352 -1.2672  0.7310 -0.3498
 2159SOL     OW 7286   4.387   0.940   1.873 -0.0122  0.4015  0.0790
 2159SOL    HW1 7287   4.308   0.994   1.877 -0.5327 -0.4058  1.5130
 2159SOL    HW2 7288   4.373   0.882   1.798 -0.0379  1.3319 -0.6586
 2160SOL     OW 7289   2.075   6.070   7.595  0.5995  0.4875  0.0531
 2160SOL    HW1 7290   2.037   6.038   7.513  0.3826  0.1805  0.2717
 2160SOL    HW2 7291   2.005   6.059   7.660  0.4785  1.5022  0.1086
 2161SOL     OW 7292   3.270   3.821   2.351 -0.0053  0.2241  0.2766
 2161SOL    HW1 7293   3.297   3.884   2.419  0.1473 -0.4671  0.8660
 2161SOL    HW2 7294   3.222   3.753   2.398  0.2805 -0.3744 -0.2765
 2162SOL     OW 7295   6.488   1.463   0.415 -0.1528  0.5025  1.1075
 2162SOL    HW1 7296   6.537   1.515   0.479  0.9201  0.9021  0.0000
 2162SOL    HW2 7297   6.432   1.527   0.371 -0.7634  0.2537  1.4984
 2163SOL     OW 7298   1.111   3.099   5.298  0.2853  0.6190 -0.9868
 2163SOL    HW1 7299   1.171   3.128   5.367  1.2737 -1.8607 -0.7058
 2163SOL    HW2 7300   1.135   3.151   5.222  2.1465  0.3989 -0.6084
 2164SOL     OW 7301   0.800   7.649   2.300 -0.0642  0.1617  0.4383
 2164SOL    HW1 7302   0.865   7.710   2.265  0.6810 -0.1612  1.2347
 2164SOL    HW2 7303   0.819   7.644   2.394 -0.5917 -0.7216  0.5139
 2165SOL     OW 7304   1.339   7.303   2.705 -0.1010 -0.1749 -0.7761
 2165SOL    HW1 7305   1.339   7.383   2.653  2.2252 -0.0927 -0.7421
 2165SOL    HW2 7306   1.405   7.318   2.773  2.2054 -2.9228 -2.1702
 2166SOL     OW 7307   2.799   5.491   4.603  0.2056  0.0295 -0.2341
 2166SOL    HW1 7308   2.804   5.453   4.515  0.1927  0.0793 -0.2566
 2166SOL    HW2 7309   2.890   5.494   4.633  0.1880 -0.1896 -0.1596
 2167SOL     OW 7310   3.882   7.678   6.577  0.1676  0.4624 -0.4671
 2167SOL    HW1 7311   3.841   7.591   6.570 -0.5220  0.4224  2.6892
 2167SOL    HW2 7312   3.972   7.664   6.546 -0.5148 -0.8169 -2.0562
 2168SOL     OW 7313   7.730   7.464   4.420 -0.3907  0.3645  0.0064
 2168SOL    HW1 7314   7.670   7.406   4.374 -0.1723  0.4691 -0.4102
 2168SOL    HW2 7315   7.805   7.473   4.361 -0.1500  0.5709  0.3404
 2169SOL     OW 7316   6.983   1.724   6.445  0.3580 -0.2655  0.8726
 2169SOL    HW1 7317   6.905   1.715   6.500  0.0428 -0.1160  0.4641
 2169SOL    HW2 7318   6.958   1.682   6.362  0.3062  0.7448  0.3528
 2170SOL     OW 7319   7.964   3.753   5.631  0.4440 -0.1897 -0.9520
 2170SOL    HW1 7320   7.903   3.783   5.564 -0.0180  0.4246 -0.2768
 2170SOL    HW2 7321   8.043   3.727   5.583 -0.2500 -0.7541 -1.8167
 2171SOL     OW 7322   2.073   5.837   5.734 -0.3612 -0.2371 -0.4067
 2171SOL    HW1 7323   1.990   5.791   5.749 -1.9538  2.5409 -0.1112
 2171SOL    HW2 7324   2.097   5.814   5.644 -1.3361 -1.2262 -0.4338
 2172SOL     OW 7325   0.652   7.868   3.710 -0.4452  0.5411 -0.1567
 2172SOL    HW1 7326   0.683   7.944   3.659 -0.1584  0.6521  0.1743
 2172SOL    HW2 7327   0.569   7.897   3.747 -1.4645 -0.0912 -1.8251
 2173SOL     OW 7328   6.863   0.511   7.810  0.3105  0.5966  0.2627
 2173SOL    HW1 7329   6.813   0.591   7.821  1.6622  1.4434  0.4593
 2173SOL    HW2 7330   6.853   0.489   7.717  0.2115  1.1948  0.1291
 2174SOL     OW 7331   2.263   4.538   3.605 -0.1528 -0.1683 -0.5272
 2174SOL    HW1 7332   2.279   4.623   3.563 -0.5560  0.1573 -0.0339
 2174SOL    HW2 7333   2.340   4.522   3.658 -0.3355  0.1787 -0.1531
 2175SOL     OW 7334   5.069   2.706   1.617 -0.5847  0.2674  0.1959
 2175SOL    HW1 7335   5.028   2.711   1.530 -2.1010 -0.3111  0.8379
 2175SOL    HW2 7336   5.017   2.640   1.663  1.1132 -0.5138  1.0743
 2176SOL     OW 7337   5.459   1.368   1.890 -0.5730 -0.3926  0.5258
 2176SOL    HW1 7338   5.449   1.392   1.982  1.0260  0.2106  0.5760
 2176SOL    HW2 7339   5.536   1.311   1.889  0.7645  1.3281 -0.6624
 2177SOL     OW 7340   7.092   6.813   5.944 -0.0556  0.3490 -0.3483
 2177SOL    HW1 7341   7.112   6.722   5.965  0.7522  0.8198  1.0790
 2177SOL    HW2 7342   7.168   6.843   5.894 -0.3379  0.2360 -0.8499
 2178SOL     OW 7343   4.104   7.049   1.052 -0.3552 -0.0937 -0.3724
 2178SOL    HW1 7344   4.160   7.127   1.047  0.3305 -0.5576 -0.0023
 2178SOL    HW2 7345   4.068   7.051   1.140 -0.1603 -0.3103 -0.2859
 2179SOL     OW 7346   7.454   0.012   5.314  0.0001  0.0342  0.3601
 2179SOL    HW1 7347   7.527  -0.045   5.292  0.3927  0.4730  0.5199
 2179SOL    HW2 7348   7.406   0.023   5.232  0.3981  0.1546  0.1412
 2180SOL     OW 7349   0.829   6.635   6.949  0.1585  0.1843 -0.2598
 2180SOL    HW1 7350   0.857   6.618   7.039  1.8833 -1.4024 -1.0504
 2180SOL    HW2 7351   0.777   6.558   6.925  0.5787  0.1020 -0.9437
 2181SOL     OW 7352   7.107   0.222   5.235  0.6666 -0.2310 -0.5608
 2181SOL    HW1 7353   7.132   0.156   5.170  0.7946  0.8032 -1.5784
 2181SOL    HW2 7354   7.026   0.188   5.274  0.3900 -0.6889 -1.5111
 2182SOL     OW 7355   4.116   0.003   0.977  0.0811  0.6109  0.8651
 2182SOL    HW1 7356   4.107  -0.022   0.885 -0.7480  1.0760  0.8193
 2182SOL    HW2 7357   4.091   0.095   0.980 -0.0887  0.5463  1.5925
 2183SOL     OW 7358   5.019   6.402   0.517 -0.3343 -0.4230  0.4927
 2183SOL    HW1 7359   5.059   6.345   0.583 -0.7144 -2.2774 -0.8041
 2183SOL    HW2 7360   5.090   6.460   0.490  0.3400 -0.9155  1.1508
 2184SOL     OW 7361   1.548   6.973   0.426  0.2649  0.3504  0.0987
 2184SOL    HW1 7362   1.639   6.999   0.442 -0.3372  1.1520  2.8304
 2184SOL    HW2 7363   1.496   7.044   0.466 -1.5386 -0.6584 -0.3642
 2185SOL     OW 7364   4.617   5.020   1.578  0.0655  0.3863 -0.3702
 2185SOL    HW1 7365   4.659   4.955   1.522  3.0082  0.2802  1.7603
 2185SOL    HW2 7366   4.557   4.970   1.633 -0.4523  0.0453 -1.2279
 2186SOL     OW 7367   7.413   1.331   1.879 -0.0329 -0.1421 -0.4934
 2186SOL    HW1 7368   7.382   1.324   1.970 -0.8817 -0.3135 -0.7863
 2186SOL    HW2 7369   7.487   1.392   1.884 -0.0825 -0.1333  0.3090
 2187SOL     OW 7370   4.953   6.989   0.763  0.2227  0.0111  0.0501
 2187SOL    HW1 7371   5.027   7.029   0.809  0.2060 -1.0388  1.0192
 2187SOL    HW2 7372   4.878   7.003   0.821  0.2935 -1.7534  0.6337
 2188SOL     OW 7373   0.880   3.412   3.599  0.0294 -0.3231 -0.2445
 2188SOL    HW1 7374   0.875   3.502   3.632  0.1590 -0.3574 -0.1335
 2188SOL    HW2 7375   0.919   3.362   3.670  1.4310 -0.1725 -0.8812
 2189SOL     OW 7376   1.978   0.986   7.875  0.4811 -0.5995 -0.1931
 2189SOL    HW1 7377   2.033   1.004   7.950  1.2254  0.2692 -0.9288
 2189SOL    HW2 7378   2.039   0.960   7.806 -0.0877 -0.3739 -0.7925
 2190SOL     OW 7379   2.937   3.464   2.928  0.1605  0.1182  0.6369
 2190SOL    HW1 7380   2.972   3.533   2.984  2.1279 -0.2617 -0.0138
 2190SOL    HW2 7381   2.915   3.508   2.846  0.8280  0.1025  0.4400
 2191SOL     OW 7382   3.862   5.337   0.761 -0.0894 -0.1102 -0.0714
 2191SOL    HW1 7383   3.833   5.343   0.853 -0.8537 -2.0213 -0.1482
 2191SOL    HW2 7384   3.925   5.408   0.752  0.3260 -0.1292  2.0670
 2192SOL     OW 7385   0.501   5.523   4.211  0.0304 -0.2534  0.0775
 2192SOL    HW1 7386   0.573   5.528   4.149  1.0478  0.6823  1.2771
 2192SOL    HW2 7387   0.445   5.598   4.189  0.3642  0.0484  0.2436
 2193SOL     OW 7388   7.464   1.000   1.455 -0.1435 -0.9404  0.0206
 2193SOL    HW1 7389   7.426   1.016   1.541  0.1708  1.0182 -0.1576
 2193SOL    HW2 7390   7.439   1.077   1.403  2.9474 -0.1063 -0.4592
 2194SOL     OW 7391   0.140   6.745   6.227 -0.1995  0.0433 -0.1235
 2194SOL    HW1 7392   0.112   6.790   6.147 -1.4725 -0.2299  0.1485
 2194SOL    HW2 7393   0.129   6.652   6.208  0.9203 -0.0985 -0.1355
 2195SOL     OW 7394   4.971   2.584   0.926  0.2431 -0.1608 -0.1835
 2195SOL    HW1 7395   5.066   2.598   0.924  0.2866 -0.1313  1.1272
 2195SOL    HW2 7396   4.955   2.538   1.009 -0.8538 -0.4665 -0.5439
 2196SOL     OW 7397   5.400   4.295   0.689  0.7432 -0.4807 -0.3770
 2196SOL    HW1 7398   5.341   4.355   0.642 -1.1445 -1.1419  1.0188
 2196SOL    HW2 7399   5.409   4.220   0.631  0.3938 -0.2532 -0.7331
 2197SOL     OW 7400   2.302   5.581   5.270  0.1153 -0.8031  0.3422
 2197SOL    HW1 7401   2.231   5.517   5.280 -2.3095  1.1309 -2.4777
 2197SOL    HW2 7402   2.345   5.556   5.188 -0.4597  0.7104 -0.4632
 2198SOL     OW 7403   6.135   4.201   0.873 -0.2884 -0.2021  0.1100
 2198SOL    HW1 7404   6.169   4.271   0.929  2.2733 -1.8607  0.7934
 2198SOL    HW2 7405   6.186   4.207   0.793 -1.9858  0.3866 -0.9698
 2199SOL     OW 7406   6.284   7.549   7.170  0.0453 -0.0265  0.2031
 2199SOL    HW1 7407   6.259   7.494   7.244 -1.4339 -0.3545 -0.5046
 2199SOL    HW2 7408   6.372   7.519   7.146 -0.4717 -1.6788  0.2269
 2200SOL     OW 7409   5.112   1.872   4.837  0.0883  0.5774  0.1791
 2200SOL    HW1 7410   5.088   1.899   4.749 -0.4502  1.5109  0.5945
 2200SOL    HW2 7411   5.029   1.846   4.878  0.3951 -0.3000  0.2722
 2201SOL     OW 7412   7.013   1.578   7.136  0.4674  0.5901  0.2520
 2201SOL    HW1 7413   7.018   1.483   7.132  0.5847  0.4846  2.0553
 2201SOL    HW2 7414   7.090   1.604   7.186 -0.5291  1.4444  1.4340
 2202SOL     OW 7415   4.266   7.640   3.120 -0.2068 -0.2966 -0.3474
 2202SOL    HW1 7416   4.237   7.706   3.057  0.2377  0.2312 -0.0111
 2202SOL    HW2 7417   4.304   7.571   3.066  0.7412  0.4324 -0.6405
 2203SOL     OW 7418   7.448   4.509   6.754  0.2162 -0.3559 -0.1942
 2203SOL    HW1 7419   7.468   4.471   6.668  1.5188  1.1104 -0.5853
 2203SOL    HW2 7420   7.353   4.504   6.761  0.1595 -1.3628 -1.3030
 2204SOL     OW 7421   7.937   5.080   1.976  0.0036  0.2279 -0.0802
 2204SOL    HW1 7422   7.979   5.159   1.943 -1.2202  0.5442 -0.9290
 2204SOL    HW2 7423   7.918   5.100   2.068 -2.2249  1.8005 -0.8022
 2205SOL     OW 7424   1.598   7.456   7.739 -0.1247 -0.3260 -0.7290
 2205SOL    HW1 7425   1.538   7.418   7.802  0.7046 -0.8960 -0.2592
 2205SOL    HW2 7426   1.574   7.416   7.655 -0.8163 -0.0492 -0.6660
 2206SOL     OW 7427   0.137   4.551   4.188 -0.1175 -0.1281  0.1268
 2206SOL    HW1 7428   0.105   4.581   4.273 -0.2117 -0.9184  0.3764
 2206SOL    HW2 7429   0.206   4.488   4.208 -0.1127 -0.2913 -0.3771
 2207SOL     OW 7430   5.238   4.280   6.914 -0.0765  1.0036 -0.1851
 2207SOL    HW1 7431   5.331   4.260   6.903  0.1644  0.5797  2.1246
 2207SOL    HW2 7432   5.231   4.374   6.897  0.9834  1.2534  0.6718
 2208SOL     OW 7433   2.765   0.789   5.994 -0.4205  0.1747 -0.1560
 2208SOL    HW1 7434   2.854   0.808   5.963 -0.3365  1.0031  0.5414
 2208SOL    HW2 7435   2.763   0.825   6.083 -1.2654 -0.3929  0.0667
 2209SOL     OW 7436   0.702   2.427   6.418  0.0214  0.1684  0.2145
 2209SOL    HW1 7437   0.754   2.379   6.483  0.1770 -0.0783 -0.0923
 2209SOL    HW2 7438   0.636   2.473   6.470  0.4334  0.3414  0.5930
 2210SOL     OW 7439   4.569   1.806   5.754 -0.0588 -0.4810  0.0226
 2210SOL    HW1 7440   4.593   1.890   5.792  1.7480 -0.6125 -0.7130
 2210SOL    HW2 7441   4.475   1.799   5.767  0.1342  0.4962  2.3600
 2211SOL     OW 7442   0.748   0.134   0.429 -0.4877 -0.2871 -0.1211
 2211SOL    HW1 7443   0.703   0.108   0.510  0.2331 -0.5262  0.2065
 2211SOL    HW2 7444   0.732   0.228   0.422 -0.8734 -0.3337  0.0985
 2212SOL     OW 7445   7.089   1.567   4.162 -0.0516  0.2590  0.1783
 2212SOL    HW1 7446   7.094   1.542   4.070  0.4464  0.7128  0.0785
 2212SOL    HW2 7447   7.117   1.658   4.164 -0.8379  0.5018  0.6793
 2213SOL     OW 7448   0.080   1.559   3.350  0.2702 -0.1364  0.0805
 2213SOL    HW1 7449   0.036   1.596   3.426  0.9904  0.4276  0.2422
 2213SOL    HW2 7450   0.145   1.625   3.326 -1.1005  0.5034 -2.1201
 2214SOL     OW 7451   7.565   3.374   7.700 -0.4246 -0.3526 -0.2485
 2214SOL    HW1 7452   7.598   3.317   7.769 -1.0324 -0.6024 -0.1600
 2214SOL    HW2 7453   7.609   3.344   7.620  2.8954  2.0565  0.4854
 2215SOL     OW 7454   5.992   5.567   0.658  0.3533 -0.1282  0.1137
 2215SOL    HW1 7455   5.959   5.525   0.737  0.6177 -0.2641  0.1549
 2215SOL    HW2 7456   5.944   5.649   0.651  0.3525 -0.1037  0.4319
 2216SOL     OW 7457   0.330   5.738   1.759  0.1784  0.3243 -0.2720
 2216SOL    HW1 7458   0.255   5.686   1.789 -0.1517  1.7156  1.4965
 2216SOL    HW2 7459   0.366   5.688   1.685 -2.9570  0.0262 -1.7399
 2217SOL     OW 7460   6.689   3.081   6.887  0.3031 -0.3029 -0.3171
 2217SOL    HW1 7461   6.617   3.025   6.858  0.8803 -1.6279  0.6758
 2217SOL    HW2 7462   6.768   3.028   6.871  0.9701  0.6806 -0.3734
 2218SOL     OW 7463   0.457   1.258   3.773  0.4200  0.2354  0.2283
 2218SOL    HW1 7464   0.500   1.290   3.853 -0.2950  2.2076 -0.1300
 2218SOL    HW2 7465   0.521   1.201   3.732  1.1761 -0.0164  1.7001
 2219SOL     OW 7466   5.032   5.750   7.769 -0.0609  0.1716 -0.0154
 2219SOL    HW1 7467   5.115   5.787   7.798  0.5759 -0.0255 -1.5055
 2219SOL    HW2 7468   4.979   5.746   7.848  1.0946  0.9586  0.8340
 2220SOL     OW 7469   6.234   5.482   6.693  0.0073 -0.4270 -0.0544
 2220SOL    HW1 7470   6.173   5.456   6.625  0.2364 -0.0666 -0.4062
 2220SOL    HW2 7471   6.179   5.501   6.769 -0.5790  1.9310 -0.9596
 2221SOL     OW 7472   3.619   4.712   5.551 -0.2226  1.1380 -0.1453
 2221SOL    HW1 7473   3.558   4.738   5.482  0.1058 -1.0679 -1.4038
 2221SOL    HW2 7474   3.602   4.618   5.564  2.0521  0.7146  0.2889
 2222SOL     OW 7475   6.633   6.098   3.412  0.2220 -0.0849 -0.8765
 2222SOL    HW1 7476   6.709   6.060   3.455 -0.2161  0.4028  0.3968
 2222SOL    HW2 7477   6.669   6.147   3.338  1.1383  0.0712 -0.3443
 2223SOL     OW 7478   4.233   1.456   5.871 -0.0152  0.8149  0.0495
 2223SOL    HW1 7479   4.204   1.392   5.936 -0.2335  1.9678  1.1383
 2223SOL    HW2 7480   4.265   1.530   5.923 -1.7060  2.4668 -1.1171
 2224SOL     OW 7481   0.214   3.553   2.437 -0.0831 -0.4208  0.3773
 2224SOL    HW1 7482   0.301   3.517   2.419 -0.1794 -0.1221 -0.7910
 2224SOL    HW2 7483   0.156   3.477   2.433  0.0507 -0.5304  0.5377
 2225SOL     OW 7484   4.762   0.823   0.937  0.2359  0.1083  0.1682
 2225SOL    HW1 7485   4.844   0.871   0.950 -0.5111  1.3701  0.3239
 2225SOL    HW2 7486   4.700   0.889   0.905 -0.9786 -0.6329  0.9353
 2226SOL     OW 7487   5.069   1.586   3.870  0.4778 -0.0274  0.4782
 2226SOL    HW1 7488   5.088   1.606   3.779  0.2396 -1.3136  0.1383
 2226SOL    HW2 7489   4.976   1.606   3.880  0.3615 -0.4757  0.2793
 2227SOL     OW 7490   0.691   6.382   7.674 -0.5121  0.2345  0.0654
 2227SOL    HW1 7491   0.597   6.362   7.665 -0.3703 -0.7104  0.5035
 2227SOL    HW2 7492   0.697   6.428   7.758 -0.3999 -1.1417  0.8424
 2228SOL     OW 7493   1.253   4.517   4.494  0.4661  0.1253 -0.4376
 2228SOL    HW1 7494   1.319   4.452   4.470  1.2730  0.1517  1.4875
 2228SOL    HW2 7495   1.173   4.487   4.452  1.2001 -1.1707 -0.9816
 2229SOL     OW 7496   7.087   7.752   7.113 -0.4140 -0.3613  0.0596
 2229SOL    HW1 7497   7.064   7.843   7.132 -1.1077  0.1789 -2.8835
 2229SOL    HW2 7498   7.016   7.721   7.057  0.7848 -2.0847 -0.5818
 2230SOL     OW 7499   0.261   1.411   1.445 -0.2838 -0.2763  0.1347
 2230SOL    HW1 7500   0.279   1.505   1.454  1.7718 -0.5232 -0.7271
 2230SOL    HW2 7501   0.315   1.370   1.513 -0.5191 -0.8708 -0.0322
 2231SOL     OW 7502   2.426   4.527   7.860 -0.2609 -0.1751  0.4467
 2231SOL    HW1 7503   2.366   4.592   7.896 -2.0881 -0.8542 -1.2137
 2231SOL    HW2 7504   2.488   4.577   7.807 -1.2486  0.2777 -0.2867
 2232SOL     OW 7505   3.580   2.722   2.498  0.0375 -0.5233 -0.2281
 2232SOL    HW1 7506   3.635   2.800   2.489 -1.8871  1.1724  1.7248
 2232SOL    HW2 7507   3.637   2.657   2.539  1.3312  0.2525 -0.7479
 2233SOL     OW 7508   5.624   5.320   5.843  0.1398 -0.4493  0.2632
 2233SOL    HW1 7509   5.687   5.373   5.794 -0.3629  0.9933  1.1267
 2233SOL    HW2 7510   5.665   5.306   5.928 -0.1492 -0.6525  0.3714
 2234SOL     OW 7511   1.761   7.703   0.888 -0.1180  0.1909 -0.3022
 2234SOL    HW1 7512   1.828   7.755   0.844  0.1141 -1.9583 -2.7158
 2234SOL    HW2 7513   1.705   7.671   0.818 -1.8091 -0.6958  1.3471
 2235SOL     OW 7514   5.245   0.214   7.038 -0.1100 -0.7101 -0.2674
 2235SOL    HW1 7515   5.169   0.226   7.095 -0.4411 -0.4946 -0.7524
 2235SOL    HW2 7516   5.214   0.160   6.966  0.4829 -1.5617  0.0943
 2236SOL     OW 7517   0.471   2.669   4.338  0.4077  0.0406  0.2977
 2236SOL    HW1 7518   0.553   2.658   4.385  0.1605 -0.6806  0.5804
 2236SOL    HW2 7519   0.420   2.729   4.392 -0.1549 -1.3438  1.3563
 2237SOL     OW 7520   3.566   5.308   7.304 -0.3816 -0.3151  0.1269
 2237SOL    HW1 7521   3.658   5.299   7.279 -0.5011  0.0090 -0.4369
 2237SOL    HW2 7522   3.521   5.238   7.254 -0.4943 -0.2213  0.0955
 2238SOL     OW 7523   6.117   7.948   0.583  0.1062  0.2004 -0.2951
 2238SOL    HW1 7524   6.039   7.986   0.541 -0.8058 -0.5131  0.6869
 2238SOL    HW2 7525   6.190   7.974   0.527 -0.3683  3.7601  0.5267
 2239SOL     OW 7526   0.081   5.206   3.395  0.2333 -0.3209  0.1884
 2239SOL    HW1 7527   0.068   5.283   3.451  0.9951 -0.9585  1.2894
 2239SOL    HW2 7528  -0.007   5.173   3.378 -0.0609  0.4294  0.2290
 2240SOL     OW 7529   7.948   2.844   6.899  0.5261 -0.3543  0.0973
 2240SOL    HW1 7530   7.855   2.863   6.886  0.3522 -1.3246 -0.1812
 2240SOL    HW2 7531   7.975   2.800   6.818  1.3381  0.2705  0.0108
 2241SOL     OW 7532   3.004   4.564   4.943 -0.2963  0.5810  0.1038
 2241SOL    HW1 7533   3.087   4.516   4.944 -0.8629 -0.5468  3.4574
 2241SOL    HW2 7534   3.003   4.607   4.857  2.2985 -1.8183 -1.3071
 2242SOL     OW 7535   4.694   7.349   2.664  0.4651 -0.9738  0.7366
 2242SOL    HW1 7536   4.713   7.262   2.628  1.1319 -0.7955  0.6509
 2242SOL    HW2 7537   4.603   7.365   2.640  0.6379 -1.2288 -0.1144
 2243SOL     OW 7538   5.384   0.894   5.675 -0.0931 -0.0524 -0.7785
 2243SOL    HW1 7539   5.435   0.964   5.714 -1.9077  0.7559  0.2737
 2243SOL    HW2 7540   5.412   0.892   5.584  3.2830 -1.0958  0.1569
 2244SOL     OW 7541   5.887   2.381   6.956  0.5580  0.3688 -0.4079
 2244SOL    HW1 7542   5.964   2.369   7.011  1.3155  2.6628 -0.8663
 2244SOL    HW2 7543   5.913   2.350   6.870  0.4943 -0.0978 -0.2642
 2245SOL     OW 7544   0.300   7.428   7.502  0.2906 -0.0799  0.1798
 2245SOL    HW1 7545   0.283   7.410   7.409 -1.8748  0.9036  0.3335
 2245SOL    HW2 7546   0.271   7.349   7.547 -0.7635  0.2944  0.1741
 2246SOL     OW 7547   3.418   1.860   7.195 -0.7100 -0.4519 -0.2580
 2246SOL    HW1 7548   3.384   1.817   7.274 -0.5833  0.2006  0.1604
 2246SOL    HW2 7549   3.453   1.788   7.142  1.7382 -0.6991  1.5130
 2247SOL     OW 7550   7.004   3.402   3.018 -0.1066 -0.5800  0.7478
 2247SOL    HW1 7551   6.947   3.343   3.067 -0.4103  0.3532  1.5655
 2247SOL    HW2 7552   6.965   3.406   2.930 -1.4580  0.1989  1.3510
 2248SOL     OW 7553   0.844   0.032   0.711  0.1313  0.0204  0.4654
 2248SOL    HW1 7554   0.915   0.063   0.768 -1.1813  0.3847  1.9915
 2248SOL    HW2 7555   0.780   0.103   0.712 -0.1410 -0.1605 -1.1464
 2249SOL     OW 7556   1.711   4.305   7.525 -0.0327 -0.1492  0.0056
 2249SOL    HW1 7557   1.657   4.315   7.447 -0.4266  0.8765  0.3871
 2249SOL    HW2 7558   1.670   4.233   7.574 -0.6591  0.1795 -0.0313
 2250SOL     OW 7559   7.516   4.046   2.243 -0.1991 -1.0789  0.6798
 2250SOL    HW1 7560   7.502   3.953   2.261  0.1394 -1.1936  0.3472
 2250SOL    HW2 7561   7.427   4.083   2.237 -0.5174 -2.0278 -2.6354
 2251SOL     OW 7562   7.748   7.469   3.784  0.8471  0.6842 -0.0051
 2251SOL    HW1 7563   7.675   7.525   3.758  0.3726 -0.2508 -0.7501
 2251SOL    HW2 7564   7.732   7.386   3.739  1.5735 -0.0289  0.9987
 2252SOL     OW 7565   7.830   2.159   6.799  0.0059 -0.6729 -0.2989
 2252SOL    HW1 7566   7.738   2.183   6.786  0.0791 -0.2099  0.0238
 2252SOL    HW2 7567   7.846   2.177   6.892  0.3271 -1.0772 -0.2733
 2253SOL     OW 7568   5.595   5.489   5.146  0.3986  0.1055  0.1218
 2253SOL    HW1 7569   5.670   5.455   5.097  0.0528 -1.4664  0.6365
 2253SOL    HW2 7570   5.523   5.489   5.082  0.7824  1.4819 -0.3331
 2254SOL     OW 7571   6.473   3.641   1.432  0.2340  0.3281  0.4473
 2254SOL    HW1 7572   6.444   3.732   1.424  1.6069  0.7916  0.5263
 2254SOL    HW2 7573   6.568   3.646   1.439  0.2365 -0.9942  2.2493
 2255SOL     OW 7574   0.789   3.249   0.549  0.2526  0.3642 -0.0160
 2255SOL    HW1 7575   0.754   3.161   0.534  1.2098  0.1172 -0.9115
 2255SOL    HW2 7576   0.731   3.287   0.615  2.1593 -2.4381  3.7348
 2256SOL     OW 7577   2.291   7.708   7.757 -0.0096 -0.0353 -0.1963
 2256SOL    HW1 7578   2.260   7.644   7.693 -0.3780  1.4210 -1.5699
 2256SOL    HW2 7579   2.214   7.762   7.776  0.7702  1.3558 -0.8077
 2257SOL     OW 7580   5.605   5.365   0.342 -0.4962 -0.1770 -0.0198
 2257SOL    HW1 7581   5.661   5.297   0.304 -0.4938 -0.0167 -0.3109
 2257SOL    HW2 7582   5.649   5.447   0.318  0.6900 -0.1003  2.1741
 2258SOL     OW 7583   5.625   2.619   4.461  0.2819  0.1189  0.2415
 2258SOL    HW1 7584   5.601   2.702   4.503  1.0688 -0.3651  1.7158
 2258SOL    HW2 7585   5.674   2.646   4.383 -0.2175  1.0423  0.2290
 2259SOL     OW 7586   0.162   3.292   3.927  0.0933  0.4137 -0.0660
 2259SOL    HW1 7587   0.242   3.294   3.875  0.9118 -2.3862  0.9300
 2259SOL    HW2 7588   0.155   3.380   3.963  1.1489  1.5483 -2.3719
 2260SOL     OW 7589   5.154   6.495   6.751 -0.0828 -0.4952  0.0413
 2260SOL    HW1 7590   5.189   6.460   6.669 -0.4083 -2.1570  0.5818
 2260SOL    HW2 7591   5.204   6.451   6.820 -0.8218 -0.2203  0.7665
 2261SOL     OW 7592   4.299   0.396   0.707 -0.1649 -0.0717  0.2156
 2261SOL    HW1 7593   4.348   0.413   0.627 -0.8120  0.8991  0.0049
 2261SOL    HW2 7594   4.208   0.419   0.686  0.1864  4.2599  2.2817
 2262SOL     OW 7595   3.698   3.535   5.330 -0.4368  0.2121  0.3375
 2262SOL    HW1 7596   3.771   3.523   5.391 -0.9113  1.4029  1.1705
 2262SOL    HW2 7597   3.668   3.446   5.310  0.7950 -0.2555  0.5206
 2263SOL     OW 7598   0.657   4.668   6.091 -0.6092  0.0989  0.2173
 2263SOL    HW1 7599   0.569   4.633   6.102 -1.1719  1.4507  0.3134
 2263SOL    HW2 7600   0.644   4.752   6.046  0.6092  0.3917  0.3579
 2264SOL     OW 7601   5.464   3.601   4.848  0.0941 -0.6430  0.5057
 2264SOL    HW1 7602   5.458   3.686   4.891 -0.2809 -0.9051  0.9877
 2264SOL    HW2 7603   5.393   3.550   4.887  0.9737 -1.5195  1.0050
 2265SOL     OW 7604   7.182   5.534   2.705  0.3960 -0.1053 -0.1552
 2265SOL    HW1 7605   7.195   5.505   2.796  0.1555  0.4184  0.0504
 2265SOL    HW2 7606   7.226   5.619   2.701  1.7592 -0.8118 -0.9581
 2266SOL     OW 7607   5.297   7.241   6.697 -0.1513 -0.0602 -0.1053
 2266SOL    HW1 7608   5.251   7.210   6.775  1.5218 -0.4432  0.7688
 2266SOL    HW2 7609   5.320   7.162   6.649 -1.3538  0.1807 -1.1442
 2267SOL     OW 7610   3.852   3.260   0.990  0.7808  0.2895  0.4221
 2267SOL    HW1 7611   3.763   3.281   0.962  0.8291 -0.7133 -0.5335
 2267SOL    HW2 7612   3.841   3.216   1.074  0.2202 -1.4713 -0.5387
 2268SOL     OW 7613   0.491   6.325   7.975  0.0533 -0.2796 -0.4397
 2268SOL    HW1 7614   0.481   6.276   7.894  0.0605 -1.3191  0.1673
 2268SOL    HW2 7615   0.409   6.313   8.021  0.2963 -0.2612  0.0041
 2269SOL     OW 7616   6.968   4.885   5.656  0.0837  0.5889  0.1199
 2269SOL    HW1 7617   6.961   4.857   5.565 -0.4124  2.2554 -0.3889
 2269SOL    HW2 7618   6.963   4.804   5.706 -1.1063 -0.2525 -1.2760
 2270SOL     OW 7619   5.026   7.640   1.213 -0.0315 -0.0945  0.4007
 2270SOL    HW1 7620   4.991   7.718   1.257  0.1893 -1.3916  3.0841
 2270SOL    HW2 7621   5.070   7.674   1.135  0.3805  2.5119  1.6684
 2271SOL     OW 7622   5.656   3.806   6.054  0.1204  0.1998  0.4268
 2271SOL    HW1 7623   5.561   3.800   6.067  0.0493 -1.7653 -0.5728
 2271SOL    HW2 7624   5.693   3.807   6.142 -0.8154  1.5181  0.8416
 2272SOL     OW 7625   2.938   5.997   0.557 -0.2460  0.2477 -0.1949
 2272SOL    HW1 7626   2.927   5.960   0.644 -1.1681  2.3575  0.6464
 2272SOL    HW2 7627   2.874   5.951   0.503 -0.4666 -0.2712  0.4878
 2273SOL     OW 7628   0.460   5.114   7.797 -0.3844 -0.5070  0.3359
 2273SOL    HW1 7629   0.429   5.172   7.867 -0.7331  0.8460 -0.9015
 2273SOL    HW2 7630   0.555   5.131   7.793 -0.3697 -0.5600  0.4682
 2274SOL     OW 7631   4.118   1.060   0.926  0.0247  0.3169 -0.0085
 2274SOL    HW1 7632   4.179   1.110   0.872  0.2585 -1.1608 -1.1669
 2274SOL    HW2 7633   4.166   1.045   1.008  0.0348  1.7316  0.2814
 2275SOL     OW 7634   3.955   2.847   1.027  0.2196 -0.1714 -0.6096
 2275SOL    HW1 7635   3.977   2.900   0.950 -1.1276 -0.1032 -0.9680
 2275SOL    HW2 7636   3.927   2.763   0.991  0.2372 -0.3745 -0.1546
 2276SOL     OW 7637   0.262   2.121   4.264 -0.5061 -0.2806 -0.2797
 2276SOL    HW1 7638   0.285   2.032   4.291  1.1165  0.2009  0.0780
 2276SOL    HW2 7639   0.194   2.148   4.325  0.1779 -0.7114  0.7060
 2277SOL     OW 7640   7.138   6.288   0.196  0.4362  0.2628  0.8602
 2277SOL    HW1 7641   7.069   6.328   0.249  0.9336  0.3458  1.4465
 2277SOL    HW2 7642   7.184   6.230   0.256 -0.5851 -1.6170 -0.0930
 2278SOL     OW 7643   2.947   2.724   1.460  0.0565 -0.1681 -0.1903
 2278SOL    HW1 7644   2.991   2.644   1.489  1.1808  1.0561  1.7407
 2278SOL    HW2 7645   2.994   2.750   1.381  0.4536 -0.8142 -0.1706
 2279SOL     OW 7646   4.711   3.461   5.989 -0.3559  0.8961  0.5221
 2279SOL    HW1 7647   4.623   3.436   5.959  0.1926 -1.0668  0.4293
 2279SOL    HW2 7648   4.712   3.438   6.082  0.7836 -1.3757  0.0127
 2280SOL     OW 7649   0.277   6.179   1.014 -0.2110  0.0891 -0.5920
 2280SOL    HW1 7650   0.300   6.140   1.098 -0.5071  0.3876 -0.3723
 2280SOL    HW2 7651   0.322   6.263   1.013 -1.8523  1.0216  0.1638
 2281SOL     OW 7652   0.324   3.966   3.032 -0.1952  0.2141  0.0246
 2281SOL    HW1 7653   0.335   3.979   2.938 -0.0808 -0.0294  0.0034
 2281SOL    HW2 7654   0.402   4.005   3.071 -0.9777  1.7528  0.1423
 2282SOL     OW 7655   4.560   2.375   5.432  0.3254  0.0511  0.1999
 2282SOL    HW1 7656   4.466   2.390   5.439  0.2842 -0.6924  1.7123
 2282SOL    HW2 7657   4.567   2.286   5.398  0.4661 -0.1043  0.6298
 2283SOL     OW 7658   2.888   1.164   0.997  0.2794  0.2984  0.0410
 2283SOL    HW1 7659   2.815   1.213   1.036  0.0896  0.6661 -0.7485
 2283SOL    HW2 7660   2.848   1.118   0.923  0.2210 -1.9352  1.3719
 2284SOL     OW 7661   2.372   7.244   7.188  0.0559 -0.0907 -0.0539
 2284SOL    HW1 7662   2.359   7.152   7.164 -0.2755  0.0712 -0.5180
 2284SOL    HW2 7663   2.417   7.282   7.113 -0.7599  0.3641 -0.3244
 2285SOL     OW 7664   7.653   7.214   2.086  0.0311 -0.3496  0.4241
 2285SOL    HW1 7665   7.654   7.134   2.138  3.1923 -0.4821  0.3372
 2285SOL    HW2 7666   7.635   7.185   1.996  0.5463 -0.8866  0.4947
 2286SOL     OW 7667   1.166   7.507   7.186 -0.6042  0.0221 -0.6800
 2286SOL    HW1 7668   1.229   7.521   7.257 -0.9838 -2.3499  0.2134
 2286SOL    HW2 7669   1.207   7.549   7.110  0.0973  2.1011  0.7305
 2287SOL     OW 7670   3.801   7.674   7.792  0.3761  0.7613 -0.0924
 2287SOL    HW1 7671   3.807   7.659   7.698  0.1459  0.5913 -0.0807
 2287SOL    HW2 7672   3.734   7.742   7.801  0.1262  0.5061 -0.0266
 2288SOL     OW 7673   5.843   6.495   1.051  0.5335  0.0664  0.4196
 2288SOL    HW1 7674   5.872   6.405   1.036  1.7766  0.4569  0.3433
 2288SOL    HW2 7675   5.831   6.532   0.964 -2.2879 -0.6755  0.3983
 2289SOL     OW 7676   7.094   6.446   0.561 -0.0854  0.1793 -0.1009
 2289SOL    HW1 7677   7.036   6.399   0.502  0.3037  0.6096 -0.8404
 2289SOL    HW2 7678   7.082   6.538   0.537 -1.1432  0.5318  1.5864
 2290SOL     OW 7679   2.221   4.058   2.749  0.0523  0.1715 -0.0253
 2290SOL    HW1 7680   2.214   4.035   2.841 -0.6279  1.4596  0.2637
 2290SOL    HW2 7681   2.131   4.072   2.720  0.1191 -1.6515 -1.3012
 2291SOL     OW 7682   4.336   0.051   5.855 -0.5024 -0.3045 -0.0999
 2291SOL    HW1 7683   4.395  -0.022   5.839  0.9573  0.8591 -0.2345
 2291SOL    HW2 7684   4.359   0.116   5.788 -1.4688  0.4553  0.2705
 2292SOL     OW 7685   3.040   6.237   0.586 -0.1056  0.8423 -0.1059
 2292SOL    HW1 7686   3.004   6.149   0.594  2.8829 -0.4378  0.6718
 2292SOL    HW2 7687   3.008   6.269   0.502 -0.3992 -1.4186 -0.9176
 2293SOL     OW 7688   3.667   5.112   1.611 -0.0066 -0.0674 -0.3172
 2293SOL    HW1 7689   3.579   5.081   1.628  0.1621 -1.5356 -1.9166
 2293SOL    HW2 7690   3.657   5.207   1.599 -1.2421 -0.1237  0.1192
 2294SOL     OW 7691   0.769   4.795   1.264 -0.1452 -0.3423 -0.5750
 2294SOL    HW1 7692   0.828   4.725   1.236 -1.2146 -1.0396 -1.1541
 2294SOL    HW2 7693   0.827   4.860   1.303  0.7725 -2.1985  1.3803
 2295SOL     OW 7694   4.168   2.014   7.619  0.4532  0.2260  0.2640
 2295SOL    HW1 7695   4.255   2.054   7.612  0.4424  0.2258  0.1155
 2295SOL    HW2 7696   4.116   2.058   7.551  0.5321 -0.2710 -0.1272
 2296SOL     OW 7697   2.892   4.054   1.010  0.3432 -0.1947  0.1277
 2296SOL    HW1 7698   2.901   3.959   0.999  0.1336 -0.1148 -0.7699
 2296SOL    HW2 7699   2.851   4.084   0.929  0.3246  0.6556  0.4432
 2297SOL     OW 7700   7.035   1.080   4.280 -0.2936 -0.3935  0.1425
 2297SOL    HW1 7701   7.039   1.014   4.349  0.3486 -1.0231 -0.4778
 2297SOL    HW2 7702   7.026   1.030   4.199 -1.7289  0.3536 -0.1922
 2298SOL     OW 7703   3.109   6.778   0.983  0.2453  0.1636 -0.0080
 2298SOL    HW1 7704   3.109   6.868   1.017  1.7396 -0.2324  1.1098
 2298SOL    HW2 7705   3.096   6.723   1.060 -0.8660 -0.5911 -0.7139
 2299SOL     OW 7706   7.127   7.294   1.474  0.0232  0.4499 -0.4545
 2299SOL    HW1 7707   7.045   7.305   1.524 -0.0366  0.4724 -0.5573
 2299SOL    HW2 7708   7.185   7.248   1.535  0.2531  1.2670 -0.0440
 2300SOL     OW 7709   1.137   1.858   2.499  0.2891  0.2313  0.4263
 2300SOL    HW1 7710   1.206   1.805   2.539 -0.1180 -0.9838 -0.4314
 2300SOL    HW2 7711   1.062   1.848   2.558  0.6104  0.9865  0.9860
 2301SOL     OW 7712   7.898   2.268   7.065  0.0557  0.3097  0.2009
 2301SOL    HW1 7713   7.896   2.245   7.158 -1.3950  0.8160  0.3144
 2301SOL    HW2 7714   7.888   2.363   7.063 -1.1570  0.1907 -0.4972
 2302SOL     OW 7715   5.723   3.418   7.060  0.3829 -0.3318 -0.0500
 2302SOL    HW1 7716   5.812   3.387   7.079  1.7814  1.8594 -2.3775
 2302SOL    HW2 7717   5.713   3.495   7.116  0.8998  0.7662 -1.4331
 2303SOL     OW 7718   3.741   6.584   0.307 -0.3005 -0.2961  0.4590
 2303SOL    HW1 7719   3.821   6.554   0.351 -0.0806  0.0918  0.3303
 2303SOL    HW2 7720   3.701   6.503   0.274  0.8551 -0.3755 -0.8423
 2304SOL     OW 7721   7.694   5.936   6.511 -0.2106  0.3260  0.1799
 2304SOL    HW1 7722   7.663   6.014   6.556 -2.5817 -0.3755 -0.1031
 2304SOL    HW2 7723   7.636   5.866   6.541  1.2729 -1.1621 -0.2680
 2305SOL     OW 7724   6.336   7.261   5.377  0.3247 -0.1933 -0.1119
 2305SOL    HW1 7725   6.286   7.230   5.302 -1.2910 -1.8207  1.5078
 2305SOL    HW2 7726   6.271   7.273   5.446  1.5496  2.5710  0.6984
 2306SOL     OW 7727   0.234   6.142   2.128 -0.0489  0.1527 -0.4393
 2306SOL    HW1 7728   0.239   6.118   2.036 -3.1478  0.4118 -0.7804
 2306SOL    HW2 7729   0.272   6.230   2.133  1.0471 -0.2583 -1.2411
 2307SOL     OW 7730   0.137   5.475   5.433  0.2747  0.4822 -0.7628
 2307SOL    HW1 7731   0.129   5.569   5.447 -1.8837  0.2653 -0.1652
 2307SOL    HW2 7732   0.047   5.443   5.429  0.8549 -1.2002 -3.7244
 2308SOL     OW 7733   1.915   2.302   1.670  0.4163 -0.5650 -0.0992
 2308SOL    HW1 7734   2.002   2.270   1.647  0.3076 -0.8625 -0.0921
 2308SOL    HW2 7735   1.855   2.232   1.644  0.3268 -1.1153  1.4546
 2309SOL     OW 7736   7.004   2.145   4.561  0.3127  0.0868  0.7909
 2309SOL    HW1 7737   7.023   2.054   4.539 -1.1788 -0.4151  1.4372
 2309SOL    HW2 7738   6.917   2.143   4.601 -0.3488  1.9856 -0.4056
 2310SOL     OW 7739   1.238   2.651   6.736  0.7747 -0.2811 -0.2231
 2310SOL    HW1 7740   1.173   2.684   6.673  1.2857  0.9803 -0.1231
 2310SOL    HW2 7741   1.203   2.566   6.764 -1.5365  0.9117  0.8290
 2311SOL     OW 7742   2.169   7.488   4.284  0.5614 -0.1379  0.1932
 2311SOL    HW1 7743   2.238   7.538   4.240  2.3794 -0.9298  2.0038
 2311SOL    HW2 7744   2.181   7.506   4.377 -1.1245 -1.0220  0.6307
 2312SOL     OW 7745   1.485   3.749   3.926  0.4650 -0.9019  0.0488
 2312SOL    HW1 7746   1.549   3.689   3.964  1.1670 -1.4085 -1.8297
 2312SOL    HW2 7747   1.538   3.821   3.892 -0.2786  0.2839  1.3197
 2313SOL     OW 7748   1.334   5.810   4.516 -0.7125  0.0424 -0.6264
 2313SOL    HW1 7749   1.284   5.747   4.463  0.1213 -0.5868 -0.6736
 2313SOL    HW2 7750   1.425   5.784   4.506 -0.4152  0.8070 -0.0370
 2314SOL     OW 7751   6.774   7.149   4.040  0.0141  0.4323  0.2630
 2314SOL    HW1 7752   6.775   7.210   3.967 -2.3859 -0.0286 -0.2207
 2314SOL    HW2 7753   6.841   7.084   4.018  0.8528  1.4845 -0.4104
 2315SOL     OW 7754   1.027   2.008   3.965 -0.2795 -0.4548 -0.2166
 2315SOL    HW1 7755   0.959   1.963   3.915 -0.1288  0.5052 -1.3529
 2315SOL    HW2 7756   1.109   1.971   3.934 -0.2266 -0.7676  0.2818
 2316SOL     OW 7757   6.597   7.752   1.961 -0.4360  0.0698  0.4772
 2316SOL    HW1 7758   6.595   7.703   2.043 -0.5423  1.3247  1.2637
 2316SOL    HW2 7759   6.689   7.772   1.947 -0.3067 -0.9379 -0.2313
 2317SOL     OW 7760   2.757   2.478   0.454 -0.2613  0.1084 -0.0325
 2317SOL    HW1 7761   2.694   2.547   0.430 -0.6706 -0.2443  0.0065
 2317SOL    HW2 7762   2.782   2.438   0.371 -0.1938  0.1630 -0.0378
 2318SOL     OW 7763   4.208   2.346   4.790  0.2740  0.4208 -0.4668
 2318SOL    HW1 7764   4.196   2.268   4.735 -0.6938 -1.3546  2.0518
 2318SOL    HW2 7765   4.170   2.417   4.739 -2.8719 -1.5589 -1.2000
 2319SOL     OW 7766   6.663   7.628   6.710  0.2816  0.3700  0.0238
 2319SOL    HW1 7767   6.682   7.671   6.626 -0.7338  3.1569  1.0853
 2319SOL    HW2 7768   6.749   7.602   6.743  1.0469  2.0034 -0.5426
 2320SOL     OW 7769   3.993   5.213   1.582 -0.5099  0.1077  0.1189
 2320SOL    HW1 7770   4.057   5.223   1.652 -0.2654 -2.5970  0.3900
 2320SOL    HW2 7771   3.912   5.251   1.617 -0.0960 -0.1795  1.4162
 2321SOL     OW 7772   1.971   6.630   3.540 -0.0372  0.4893 -0.5940
 2321SOL    HW1 7773   2.042   6.644   3.602  0.7371  1.9316 -1.7315
 2321SOL    HW2 7774   1.903   6.584   3.590  1.2581  0.0352  0.8001
 2322SOL     OW 7775   5.024   5.274   3.166 -0.1368 -0.0106 -0.2211
 2322SOL    HW1 7776   5.002   5.201   3.224 -1.0728  0.4564  0.0273
 2322SOL    HW2 7777   4.989   5.248   3.081 -0.8999  0.3377 -0.0269
 2323SOL     OW 7778   0.231   0.085   5.231 -0.3709  0.5567 -0.2925
 2323SOL    HW1 7779   0.290   0.087   5.156  0.3174  1.1330  0.2526
 2323SOL    HW2 7780   0.143   0.094   5.193 -0.2844 -1.8920 -1.2608
 2324SOL     OW 7781   1.312   5.414   0.265  0.0836 -0.3191  0.2875
 2324SOL    HW1 7782   1.278   5.461   0.342  0.5449 -0.1452  0.3903
 2324SOL    HW2 7783   1.384   5.469   0.234 -0.2297 -0.2898 -0.3929
 2325SOL     OW 7784   1.254   5.227   4.399 -1.1269  0.6326 -0.3537
 2325SOL    HW1 7785   1.199   5.206   4.323  0.0210 -0.9684 -0.7992
 2325SOL    HW2 7786   1.332   5.173   4.388  0.6396  2.9028  0.1930
 2326SOL     OW 7787   4.142   3.596   0.515  0.3663  0.6374 -0.5784
 2326SOL    HW1 7788   4.203   3.670   0.522 -0.0874  0.9061  1.3558
 2326SOL    HW2 7789   4.055   3.636   0.524  0.0439  0.0039 -0.8249
 2327SOL     OW 7790   3.315   5.615   3.882 -0.6172  0.0503 -0.0047
 2327SOL    HW1 7791   3.361   5.651   3.958  1.6243 -0.3384 -1.0823
 2327SOL    HW2 7792   3.371   5.543   3.852 -0.9749  0.7059 -2.4963
 2328SOL     OW 7793   0.442   2.994   3.747  0.8138 -0.1299  0.3503
 2328SOL    HW1 7794   0.363   3.036   3.711  0.8193 -0.8022 -0.4676
 2328SOL    HW2 7795   0.515   3.041   3.706  0.8200 -0.8905 -0.5500
 2329SOL     OW 7796   5.858   6.496   1.905  1.0102 -0.6560 -0.1210
 2329SOL    HW1 7797   5.844   6.407   1.875  0.8107 -0.4268 -0.7136
 2329SOL    HW2 7798   5.901   6.486   1.990  0.3622 -1.3191  0.1383
 2330SOL     OW 7799   4.644   7.961   2.122 -0.0720  0.0489  0.6728
 2330SOL    HW1 7800   4.721   7.974   2.067  0.8285  0.1563  1.8911
 2330SOL    HW2 7801   4.577   8.018   2.086  1.7027  3.2174  1.9707
 2331SOL     OW 7802   4.070   5.312   5.712 -0.0998  0.3589  0.4523
 2331SOL    HW1 7803   4.139   5.253   5.743  2.4056  1.8586 -1.8041
 2331SOL    HW2 7804   3.988   5.263   5.726  1.5448 -2.3111  1.5363
 2332SOL     OW 7805   0.522   6.768   5.189  0.1744  0.6198 -0.1855
 2332SOL    HW1 7806   0.616   6.765   5.204  0.3837  3.0004 -0.5934
 2332SOL    HW2 7807   0.504   6.693   5.133  1.8040  0.0948 -0.0616
 2333SOL     OW 7808   6.778   4.166   0.714  0.3235 -0.2193 -0.1152
 2333SOL    HW1 7809   6.703   4.148   0.771  0.9743 -0.5386  0.6562
 2333SOL    HW2 7810   6.832   4.088   0.720 -0.1112 -0.7353 -2.0560
 2334SOL     OW 7811   2.028   3.017   1.125  0.4065 -0.7428 -0.3482
 2334SOL    HW1 7812   1.958   3.081   1.137  0.5255 -0.6654 -0.0549
 2334SOL    HW2 7813   2.022   2.992   1.033  0.5779 -0.0587 -0.5503
 2335SOL     OW 7814   2.924   7.966   0.311 -0.0934  0.7458  0.1346
 2335SOL    HW1 7815   2.915   7.917   0.229  1.0641  0.1611  0.3271
 2335SOL    HW2 7816   2.995   8.028   0.294 -0.2414  1.0252  0.5174
 2336SOL     OW 7817   3.629   5.398   0.150  0.1094  0.7272 -0.1558
 2336SOL    HW1 7818   3.702   5.387   0.090  0.7224 -1.8075  0.9298
 2336SOL    HW2 7819   3.668   5.392   0.237 -1.2583  0.0063  0.4468
 2337SOL     OW 7820   6.362   1.312   3.565  0.0103 -0.0398 -0.3826
 2337SOL    HW1 7821   6.274   1.281   3.542 -1.4439  2.4988  1.1871
 2337SOL    HW2 7822   6.417   1.284   3.493 -2.7265  0.9379 -3.0896
 2338SOL     OW 7823   7.580   6.936   7.164 -0.1629 -0.6618 -0.7549
 2338SOL    HW1 7824   7.532   6.939   7.247  0.6892 -1.4172 -0.2186
 2338SOL    HW2 7825   7.513   6.950   7.097 -0.6752  1.2500  0.0945
 2339SOL     OW 7826   6.576   1.860   4.688 -0.3234  0.5289 -0.2273
 2339SOL    HW1 7827   6.504   1.797   4.696 -0.1610  0.4532  0.7219
 2339SOL    HW2 7828   6.535   1.940   4.657 -0.4882 -0.1180 -1.7841
 2340SOL     OW 7829   1.031   4.999   7.040  0.1607  0.2151 -0.0336
 2340SOL    HW1 7830   0.952   5.044   7.009 -0.0466 -0.0025  0.1745
 2340SOL    HW2 7831   1.003   4.954   7.120  0.2888 -0.5165 -0.3936
 2341SOL     OW 7832   2.885   7.288   7.883 -0.3667 -0.1800 -0.1165
 2341SOL    HW1 7833   2.851   7.365   7.928 -1.4288 -0.7943  0.1793
 2341SOL    HW2 7834   2.951   7.252   7.942 -2.4013 -1.5242  1.4871
 2342SOL     OW 7835   1.294   2.317   2.132  0.2444  0.5295  0.2454
 2342SOL    HW1 7836   1.212   2.363   2.112 -2.0475 -2.6765  1.4557
 2342SOL    HW2 7837   1.357   2.387   2.147 -2.3136  3.2019 -0.4008
 2343SOL     OW 7838   5.069   6.125   2.638 -0.1127 -0.1009 -0.4563
 2343SOL    HW1 7839   5.033   6.186   2.573  1.6955  1.0127 -0.4648
 2343SOL    HW2 7840   5.070   6.174   2.720  0.2769 -0.5262 -0.1999
 2344SOL     OW 7841   6.533   4.657   0.017 -0.6031 -0.1837  0.2151
 2344SOL    HW1 7842   6.596   4.590   0.041 -0.8425 -0.4386  0.1462
 2344SOL    HW2 7843   6.575   4.739   0.040  1.3455 -0.0435 -3.1790
 2345SOL     OW 7844   6.705   2.026   7.697 -0.0144  0.2550 -0.2899
 2345SOL    HW1 7845   6.629   2.077   7.669  0.9377  1.0045 -1.6484
 2345SOL    HW2 7846   6.771   2.041   7.628  2.0103  1.0607  1.6921
 2346SOL     OW 7847   5.356   5.798   3.526 -0.2324 -0.2483 -0.3453
 2346SOL    HW1 7848   5.410   5.860   3.476  0.7579 -1.5828 -0.9935
 2346SOL    HW2 7849   5.312   5.852   3.592  1.6085  0.9624 -0.0391
 2347SOL     OW 7850   6.172   0.539   2.195 -0.0760  0.5424 -0.0759
 2347SOL    HW1 7851   6.157   0.448   2.170 -1.5962  0.3330  1.4718
 2347SOL    HW2 7852   6.237   0.535   2.265  0.6948  0.7767 -0.7482
 2348SOL     OW 7853   7.325   3.701   0.655  0.6565 -0.4546 -0.5669
 2348SOL    HW1 7854   7.268   3.676   0.582  1.8894 -0.3056 -1.6232
 2348SOL    HW2 7855   7.376   3.623   0.674 -0.4438 -0.8490  0.9499
 2349SOL     OW 7856   5.310   3.670   5.814  0.1099 -0.2780 -0.0957
 2349SOL    HW1 7857   5.325   3.577   5.829  0.1723 -0.5743 -1.7409
 2349SOL    HW2 7858   5.216   3.675   5.796  0.0841  0.0011  0.1200
 2350SOL     OW 7859   0.128   5.594   2.813  0.0450 -0.4249 -0.0658
 2350SOL    HW1 7860   0.081   5.621   2.892  0.7448 -1.1961  0.6337
 2350SOL    HW2 7861   0.177   5.516   2.839 -1.3097 -1.9529 -1.7940
 2351SOL     OW 7862   1.247   2.618   4.032 -0.1262  0.7155  0.3083
 2351SOL    HW1 7863   1.246   2.555   4.104 -0.0888  1.1460  0.6910
 2351SOL    HW2 7864   1.188   2.581   3.966  0.3687 -0.0177  0.2675
 2352SOL     OW 7865   0.974   3.239   3.026  0.2226 -0.2626  0.4988
 2352SOL    HW1 7866   0.966   3.208   3.116 -2.0209  0.4208  0.5941
 2352SOL    HW2 7867   0.885   3.235   2.991  0.8900  0.3703 -1.3967
 2353SOL     OW 7868   5.503   3.179   0.944 -0.3525 -0.2675 -0.0284
 2353SOL    HW1 7869   5.545   3.139   0.868 -1.9132 -0.5455 -0.7844
 2353SOL    HW2 7870   5.484   3.105   1.002  1.5711  0.0286  1.0625
 2354SOL     OW 7871   4.982   0.992   5.155  0.3345  0.0782 -0.1394
 2354SOL    HW1 7872   4.991   1.087   5.156  2.2517 -0.0486 -0.8617
 2354SOL    HW2 7873   4.956   0.969   5.244 -1.5053  1.3598 -0.3021
 2355SOL     OW 7874   3.903   0.747   4.261  0.3647 -0.2551 -0.6569
 2355SOL    HW1 7875   3.968   0.796   4.311  2.4039 -0.2131 -3.1272
 2355SOL    HW2 7876   3.859   0.814   4.207  1.2163 -0.7442 -2.0080
 2356SOL     OW 7877   5.466   6.550   5.924 -0.3135 -0.3346  0.0430
 2356SOL    HW1 7878   5.468   6.595   5.839 -3.0095 -3.6750 -2.0840
 2356SOL    HW2 7879   5.381   6.575   5.962  0.0897 -0.2631  0.9196
 2357SOL     OW 7880   0.624   3.504   6.403  0.0871  0.1620  0.0519
 2357SOL    HW1 7881   0.657   3.554   6.477 -0.4467  1.1457 -0.3587
 2357SOL    HW2 7882   0.681   3.427   6.399 -0.2276 -0.2151  1.8299
 2358SOL     OW 7883   7.811   1.708   3.168  0.1896  0.0638  0.3735
 2358SOL    HW1 7884   7.772   1.636   3.218 -1.6106  0.6604 -0.0860
 2358SOL    HW2 7885   7.895   1.673   3.138 -0.1915 -1.4870  0.9785
 2359SOL     OW 7886   4.748   7.103   1.966  0.2752 -0.3618 -0.2778
 2359SOL    HW1 7887   4.770   7.196   1.957 -0.7403  0.1028  1.5654
 2359SOL    HW2 7888   4.698   7.083   1.887  1.1229  0.4504 -1.0465
 2360SOL     OW 7889   5.637   7.855   2.947  0.6140  0.2687 -0.3205
 2360SOL    HW1 7890   5.636   7.808   2.863 -3.6173 -1.0873  0.2571
 2360SOL    HW2 7891   5.629   7.786   3.013 -1.7239  1.5190  0.8088
 2361SOL     OW 7892   2.567   0.169   4.554 -0.4190 -0.6421 -0.3390
 2361SOL    HW1 7893   2.606   0.202   4.635 -0.7333 -0.2776 -0.3367
 2361SOL    HW2 7894   2.622   0.206   4.484 -0.8519  0.0081 -0.3429
 2362SOL     OW 7895   0.483   5.797   4.712  0.2540  0.0736 -0.2432
 2362SOL    HW1 7896   0.439   5.831   4.634 -1.4577 -0.2024  0.5596
 2362SOL    HW2 7897   0.453   5.853   4.783  0.3088 -0.8254  0.5120
 2363SOL     OW 7898   0.465   2.599   7.541  0.0525  0.8107  0.5170
 2363SOL    HW1 7899   0.482   2.691   7.522 -1.4107  0.9405 -0.2662
 2363SOL    HW2 7900   0.551   2.563   7.563  1.2442  1.6157 -2.3733
 2364SOL     OW 7901   3.170   5.136   3.739 -0.5052 -0.4599  0.6119
 2364SOL    HW1 7902   3.080   5.160   3.757 -1.1863 -3.1802  1.4040
 2364SOL    HW2 7903   3.166   5.086   3.658 -0.0880 -2.1671  1.5808
 2365SOL     OW 7904   2.262   4.242   1.629  0.0310  0.0890 -0.4936
 2365SOL    HW1 7905   2.257   4.147   1.629  4.0020 -0.2758 -0.8385
 2365SOL    HW2 7906   2.184   4.270   1.678 -1.8189 -3.2031 -1.2929
 2366SOL     OW 7907   2.082   6.355   6.997 -0.3403 -0.3996  0.1591
 2366SOL    HW1 7908   2.105   6.371   7.088 -2.7797 -1.7784  1.1024
 2366SOL    HW2 7909   1.990   6.382   6.990 -0.1095  0.0089 -2.0068
 2367SOL     OW 7910   5.297   2.417   6.264  0.1557  0.0392 -0.0673
 2367SOL    HW1 7911   5.333   2.417   6.175 -0.5816 -1.5215 -0.4071
 2367SOL    HW2 7912   5.370   2.391   6.320  0.6982  1.3083 -0.1588
 2368SOL     OW 7913   0.946   7.348   1.364 -0.0126 -0.1811 -0.0840
 2368SOL    HW1 7914   0.871   7.366   1.307 -1.4492 -2.5586  0.9159
 2368SOL    HW2 7915   0.965   7.432   1.407 -0.8566  0.9045 -1.7511
 2369SOL     OW 7916   2.704   6.006   4.634 -0.7037 -0.0381  0.0960
 2369SOL    HW1 7917   2.749   5.967   4.559 -0.8127 -2.2488  1.0875
 2369SOL    HW2 7918   2.667   6.087   4.601 -1.1726 -1.1859 -2.4026
 2370SOL     OW 7919   3.280   7.902   0.361 -0.4630  0.0910  0.3224
 2370SOL    HW1 7920   3.210   7.842   0.386  0.1636 -0.7314  0.1623
 2370SOL    HW2 7921   3.246   7.950   0.286 -0.3911 -1.2049 -0.5591
 2371SOL     OW 7922   0.992   0.715   6.355  0.7572 -0.4013 -0.5562
 2371SOL    HW1 7923   1.031   0.798   6.385 -2.1603  0.8030  0.2894
 2371SOL    HW2 7924   1.034   0.698   6.271  3.2264  0.5840  0.3921
 2372SOL     OW 7925   5.215   1.961   1.132  0.1564  0.7266  0.1131
 2372SOL    HW1 7926   5.183   1.871   1.129 -1.0115  1.1120  0.5613
 2372SOL    HW2 7927   5.301   1.954   1.173  0.8628 -0.3798 -1.4328
 2373SOL     OW 7928   5.330   1.681   6.474  0.5864  0.1055 -0.2629
 2373SOL    HW1 7929   5.328   1.610   6.410 -0.0200 -1.7765  1.6996
 2373SOL    HW2 7930   5.347   1.637   6.558 -1.3493  2.0684  1.2899
 2374SOL     OW 7931   5.697   2.471   3.641 -0.1588 -0.3644  0.1802
 2374SOL    HW1 7932   5.683   2.389   3.689 -1.3909  0.2716  0.9452
 2374SOL    HW2 7933   5.636   2.467   3.568 -0.6022  0.1046  0.5219
 2375SOL     OW 7934   3.397   0.639   4.039  0.0919  0.1999  0.2512
 2375SOL    HW1 7935   3.434   0.553   4.062 -0.7086 -0.7316 -1.7133
 2375SOL    HW2 7936   3.328   0.653   4.103  0.7904 -0.2081  1.1195
 2376SOL     OW 7937   1.186   6.624   6.241 -0.5451 -0.2492  0.5053
 2376SOL    HW1 7938   1.225   6.608   6.155 -2.4765  1.1798 -0.7310
 2376SOL    HW2 7939   1.208   6.715   6.260 -0.8957 -0.2871  1.1052
 2377SOL     OW 7940   2.659   2.770   2.069  0.1615 -0.2656  0.5856
 2377SOL    HW1 7941   2.630   2.703   2.007  0.0676  0.6681 -0.4237
 2377SOL    HW2 7942   2.597   2.842   2.056  0.3913  0.1030  1.4885
 2378SOL     OW 7943   5.256   5.993   1.667 -0.6063  0.3978 -0.1897
 2378SOL    HW1 7944   5.248   6.080   1.629 -0.7742  0.5022  0.0779
 2378SOL    HW2 7945   5.259   5.934   1.592 -1.7170  0.5338 -0.3593
 2379SOL     OW 7946   1.350   6.489   5.626  0.2490  0.0589  0.0403
 2379SOL    HW1 7947   1.403   6.409   5.627  0.5012  0.1009 -2.5288
 2379SOL    HW2 7948   1.262   6.460   5.604  0.4462  0.4599 -1.4382
 2380SOL     OW 7949   3.086   0.082   4.154  0.0112  0.5094 -0.1939
 2380SOL    HW1 7950   3.059   0.172   4.172  0.9900  0.7948 -0.1237
 2380SOL    HW2 7951   3.009   0.042   4.115 -0.8545  1.0151  0.9337
 2381SOL     OW 7952   1.859   2.686   6.833  0.5203  0.1989  0.5820
 2381SOL    HW1 7953   1.777   2.731   6.853  0.4796  0.5849 -0.4179
 2381SOL    HW2 7954   1.842   2.642   6.750  0.8391 -0.9887  1.1246
 2382SOL     OW 7955   5.334   4.020   7.512  0.4720 -0.1633  0.5703
 2382SOL    HW1 7956   5.325   4.044   7.604  1.9731 -1.8552  1.2193
 2382SOL    HW2 7957   5.400   4.081   7.479 -1.0298  1.3474  0.1834
 2383SOL     OW 7958   7.070   4.362   2.098 -0.0938 -0.6152  0.0964
 2383SOL    HW1 7959   7.037   4.434   2.044 -0.5154  1.1231  2.5020
 2383SOL    HW2 7960   7.023   4.285   2.067 -2.4569  0.8313 -0.1553
 2384SOL     OW 7961   3.388   4.091   0.603 -0.7170  0.0988 -0.0957
 2384SOL    HW1 7962   3.382   4.154   0.531 -1.0442 -0.6226 -0.7148
 2384SOL    HW2 7963   3.298   4.071   0.625 -0.6147 -0.1343  0.1123
 2385SOL     OW 7964   2.171   5.583   7.292 -0.0184 -0.2397 -0.0195
 2385SOL    HW1 7965   2.216   5.520   7.349  0.3438  0.1594  0.1412
 2385SOL    HW2 7966   2.125   5.529   7.228  0.5079 -0.6591 -0.0467
 2386SOL     OW 7967   2.195   2.162   6.565 -0.2155  0.0303  0.3446
 2386SOL    HW1 7968   2.169   2.076   6.531 -2.9166  0.5823  0.8113
 2386SOL    HW2 7969   2.282   2.147   6.602  0.3435 -1.9572 -1.5223
 2387SOL     OW 7970   7.198   5.989   4.818  0.0545  0.2230 -0.4510
 2387SOL    HW1 7971   7.114   6.028   4.843  0.2002 -0.2694  0.8581
 2387SOL    HW2 7972   7.248   6.061   4.782  0.6546  1.5428  2.7078
 2388SOL     OW 7973   7.073   0.040   5.616 -0.1546  0.0189 -0.3577
 2388SOL    HW1 7974   7.019  -0.024   5.569  0.1165 -2.1792  2.0746
 2388SOL    HW2 7975   7.132  -0.013   5.669 -0.2960  2.2802  2.2792
 2389SOL     OW 7976   1.508   3.678   5.468 -0.3939 -0.0227  0.6131
 2389SOL    HW1 7977   1.556   3.758   5.490 -0.6728 -0.4059  2.9459
 2389SOL    HW2 7978   1.559   3.637   5.399  0.7875  1.2384  0.6873
 2390SOL     OW 7979   0.844   3.521   5.628  0.2218  0.6756  0.4948
 2390SOL    HW1 7980   0.771   3.536   5.569  0.3528 -1.5870 -0.3629
 2390SOL    HW2 7981   0.922   3.549   5.579  0.0725  1.8964  0.9211
 2391SOL     OW 7982   6.285   6.632   3.392 -0.4335 -0.2567  0.0583
 2391SOL    HW1 7983   6.309   6.606   3.481  2.0068  2.8332  0.4563
 2391SOL    HW2 7984   6.199   6.673   3.402  0.2208  0.9059  1.2126
 2392SOL     OW 7985   1.330   5.321   4.980 -0.2553  0.0289  0.4752
 2392SOL    HW1 7986   1.299   5.410   4.991 -2.1080 -0.5512  0.3202
 2392SOL    HW2 7987   1.250   5.269   4.967  0.8001 -1.5706  0.0441
 2393SOL     OW 7988   1.144   0.348   1.394  0.7234  0.8231  0.1369
 2393SOL    HW1 7989   1.198   0.414   1.439 -0.0036  1.7252 -0.2755
 2393SOL    HW2 7990   1.121   0.389   1.310  3.9141 -1.6429 -2.1916
 2394SOL     OW 7991   7.394   0.142   5.669 -0.5424 -0.3312 -0.0672
 2394SOL    HW1 7992   7.312   0.091   5.667 -0.7089 -0.1130  0.8866
 2394SOL    HW2 7993   7.386   0.203   5.596 -2.3260  1.3402  1.4305
 2395SOL     OW 7994   0.712   3.821   1.214 -0.5846  0.4236 -0.5436
 2395SOL    HW1 7995   0.724   3.815   1.119 -0.3070 -2.7523 -0.4232
 2395SOL    HW2 7996   0.647   3.754   1.235  1.3953 -0.9710  1.7520
 2396SOL     OW 7997   4.729   3.409   1.266  0.0260 -0.2631  0.1509
 2396SOL    HW1 7998   4.676   3.367   1.198 -0.8025 -2.0360  1.7932
 2396SOL    HW2 7999   4.687   3.494   1.281  0.9984  0.7595 -2.3804
 2397SOL     OW 8000   4.373   1.695   7.689  0.2630 -0.2026 -0.5303
 2397SOL    HW1 8001   4.433   1.661   7.755 -1.0184 -0.9202  0.2843
 2397SOL    HW2 8002   4.349   1.782   7.721  1.2719  0.3191 -1.1409
 2398SOL     OW 8003   6.166   5.674   4.076 -0.0980 -0.1233  0.0831
 2398SOL    HW1 8004   6.223   5.597   4.079  0.7207  0.3042 -2.1358
 2398SOL    HW2 8005   6.090   5.645   4.024  0.6542  0.7538 -1.5958
 2399SOL     OW 8006   6.266   0.758   1.181  0.7805 -0.1410 -0.0639
 2399SOL    HW1 8007   6.235   0.671   1.158  0.9619 -0.0643 -0.6181
 2399SOL    HW2 8008   6.321   0.745   1.258 -1.1181 -0.2004  1.3601
 2400SOL     OW 8009   6.911   3.188   1.901 -0.3815  0.4367  0.1009
 2400SOL    HW1 8010   6.932   3.102   1.938 -0.1366 -0.1481 -1.3434
 2400SOL    HW2 8011   6.832   3.173   1.849 -0.5796  1.1867  0.1800
 2401SOL     OW 8012   1.781   6.969   4.708  0.7867 -0.2669 -0.1952
 2401SOL    HW1 8013   1.711   6.907   4.725  2.2703 -2.1095 -0.5299
 2401SOL    HW2 8014   1.762   7.002   4.620  0.0924 -0.3864 -0.0948
 2402SOL     OW 8015   2.806   5.218   2.336 -0.3234  0.2708 -0.4608
 2402SOL    HW1 8016   2.897   5.227   2.365 -0.0526 -3.0130  0.0840
 2402SOL    HW2 8017   2.756   5.277   2.392  1.2243  0.6184  0.6000
 2403SOL     OW 8018   1.331   7.933   6.033  0.2547 -0.1485  0.4248
 2403SOL    HW1 8019   1.305   7.984   6.110  2.1757  1.7906 -0.1078
 2403SOL    HW2 8020   1.317   7.993   5.959  1.0603 -0.9664 -0.4166
 2404SOL     OW 8021   1.672   6.886   3.329 -0.2834 -0.0715 -0.0128
 2404SOL    HW1 8022   1.632   6.811   3.373  1.0709 -0.7729  0.0786
 2404SOL    HW2 8023   1.599   6.932   3.288 -1.1664 -1.2924  0.1544
 2405SOL     OW 8024   0.595   4.038   4.230 -0.1629  0.6618 -0.3444
 2405SOL    HW1 8025   0.603   4.119   4.180 -1.6617  0.8138 -0.3944
 2405SOL    HW2 8026   0.685   4.006   4.239  0.3206  1.6049 -1.5077
 2406SOL     OW 8027   5.052   6.119   1.845 -0.6171  0.3657 -1.1078
 2406SOL    HW1 8028   5.096   6.039   1.817 -2.4708 -0.4603 -1.7975
 2406SOL    HW2 8029   4.960   6.105   1.822 -1.2729  1.9787  0.3570
 2407SOL     OW 8030   5.781   0.291   2.294 -0.0308  0.5249 -0.1676
 2407SOL    HW1 8031   5.836   0.346   2.350 -0.3083  0.2148  0.4277
 2407SOL    HW2 8032   5.807   0.313   2.205  1.2408  0.2011  0.1035
 2408SOL     OW 8033   0.556   3.490   1.207 -0.1269 -0.1452  0.2691
 2408SOL    HW1 8034   0.466   3.457   1.215 -1.0572  1.8902 -0.8682
 2408SOL    HW2 8035   0.563   3.555   1.277  0.1859  0.2511 -0.1290
 2409SOL     OW 8036   1.588   2.961   1.231  0.2162  0.1344 -0.1066
 2409SOL    HW1 8037   1.534   3.023   1.183 -1.3533 -1.1758 -0.1226
 2409SOL    HW2 8038   1.603   2.890   1.169  1.5939  0.2637  0.0598
 2410SOL     OW 8039   1.350   0.741   7.273 -0.0508  0.3398 -0.1444
 2410SOL    HW1 8040   1.375   0.811   7.333 -0.8123 -0.7509  1.5550
 2410SOL    HW2 8041   1.272   0.774   7.229 -1.2837  0.0830  1.7179
 2411SOL     OW 8042   4.086   2.123   2.470 -0.3903  0.1028  0.2163
 2411SOL    HW1 8043   4.012   2.178   2.445  0.2238  1.4231  1.1509
 2411SOL    HW2 8044   4.047   2.051   2.520 -1.1995 -0.3004 -0.9489
 2412SOL     OW 8045   0.735   7.262   0.136  0.1380 -0.2248 -0.1982
 2412SOL    HW1 8046   0.658   7.212   0.161 -0.7108  0.0213 -2.1185
 2412SOL    HW2 8047   0.706   7.314   0.061  2.0263  0.2826 -0.6301
 2413SOL     OW 8048   2.305   7.748   0.952  0.3512  0.2858 -0.2352
 2413SOL    HW1 8049   2.234   7.684   0.954  0.0509  0.6349  0.6856
 2413SOL    HW2 8050   2.266   7.829   0.981  1.4238  0.1678  1.6811
 2414SOL     OW 8051   6.086   2.847   4.184 -0.3970  0.5020  0.0519
 2414SOL    HW1 8052   5.996   2.829   4.209 -0.1511  0.7149  1.1668
 2414SOL    HW2 8053   6.103   2.935   4.219  1.2594 -0.8023  2.9328
 2415SOL     OW 8054   5.612   4.503   6.512  0.1532  0.1842 -0.2232
 2415SOL    HW1 8055   5.670   4.444   6.560  0.5974 -0.0765 -1.0641
 2415SOL    HW2 8056   5.524   4.479   6.540  0.4559  0.8740  1.4026
 2416SOL     OW 8057   3.285   6.099   5.605 -0.4385 -0.8307 -0.0286
 2416SOL    HW1 8058   3.378   6.080   5.595 -0.3733 -1.1825  1.1057
 2416SOL    HW2 8059   3.259   6.050   5.683 -1.4918 -0.4487 -0.1260
 2417SOL     OW 8060   6.548   2.267   1.628 -0.4497  0.1012  0.5900
 2417SOL    HW1 8061   6.582   2.204   1.692  1.4780  0.7173  0.2507
 2417SOL    HW2 8062   6.461   2.290   1.661 -0.6514 -1.6973  1.4444
 2418SOL     OW 8063   3.333   7.150   6.636  0.3191 -0.5677 -0.5604
 2418SOL    HW1 8064   3.410   7.093   6.633 -1.4354 -3.0788 -2.3085
 2418SOL    HW2 8065   3.275   7.110   6.701 -0.5537 -0.2200 -1.0982
 2419SOL     OW 8066   3.065   5.061   2.669 -0.3790 -0.1258 -0.0179
 2419SOL    HW1 8067   2.985   5.100   2.703 -0.1196 -0.6920  1.3087
 2419SOL    HW2 8068   3.073   5.096   2.581 -1.4784  0.8350  0.2360
 2420SOL     OW 8069   0.812   1.205   7.118  0.3277  0.1987  0.0020
 2420SOL    HW1 8070   0.804   1.268   7.189 -0.2567 -0.3740  0.4681
 2420SOL    HW2 8071   0.777   1.123   7.155 -1.2408  0.2032 -1.3463
 2421SOL     OW 8072   3.067   1.200   0.470  0.3888 -0.1340  0.2961
 2421SOL    HW1 8073   3.134   1.250   0.424 -1.2827  0.9655 -1.0805
 2421SOL    HW2 8074   3.116   1.135   0.521  2.4385  0.2682 -1.0454
 2422SOL     OW 8075   5.342   2.478   7.859 -0.3420  0.0962  0.7731
 2422SOL    HW1 8076   5.314   2.554   7.909 -0.2792 -0.5566  1.8250
 2422SOL    HW2 8077   5.337   2.405   7.920  3.0056 -0.1921  0.8820
 2423SOL     OW 8078   7.191   2.704   2.225 -0.7558  0.0974 -0.4906
 2423SOL    HW1 8079   7.152   2.620   2.250 -0.8960  0.3568  0.1949
 2423SOL    HW2 8080   7.131   2.769   2.261 -0.3579  0.4949 -0.5441
 2424SOL     OW 8081   4.443   7.428   7.217  0.0095  0.2341  0.1585
 2424SOL    HW1 8082   4.538   7.439   7.225  0.4871 -3.4860  1.5444
 2424SOL    HW2 8083   4.430   7.408   7.124  0.7260  0.0112  0.0947
 2425SOL     OW 8084   4.348   1.920   7.837  0.0726  0.3732 -0.5248
 2425SOL    HW1 8085   4.327   2.008   7.807  2.0219  0.4820 -1.7605
 2425SOL    HW2 8086   4.333   1.923   7.932  2.5761  2.9057 -0.0637
 2426SOL     OW 8087   5.763   4.031   2.590 -0.1300 -0.2873 -1.2977
 2426SOL    HW1 8088   5.803   4.017   2.504  1.0588 -1.0538 -0.6611
 2426SOL    HW2 8089   5.828   4.082   2.638 -0.2984 -0.7924 -0.5127
 2427SOL     OW 8090   3.578   5.286   6.180 -0.0296 -0.3483 -0.0508
 2427SOL    HW1 8091   3.500   5.287   6.125  0.5586  0.5302 -0.9086
 2427SOL    HW2 8092   3.622   5.370   6.161  1.0259 -0.7493  0.5367
 2428SOL     OW 8093   1.311   3.423   2.396  0.1995  0.3663  0.2471
 2428SOL    HW1 8094   1.224   3.382   2.396  0.2062  0.3475 -0.0399
 2428SOL    HW2 8095   1.343   3.410   2.307  0.7911 -0.2345  0.5444
 2429SOL     OW 8096   7.035   7.275   5.925 -0.1168 -0.2975  0.1049
 2429SOL    HW1 8097   7.089   7.343   5.965 -1.6842  2.0132 -1.3944
 2429SOL    HW2 8098   6.993   7.231   5.998 -0.1295  1.3437  1.1371
 2430SOL     OW 8099   1.566   6.423   3.208  0.2905 -0.2726  0.0730
 2430SOL    HW1 8100   1.567   6.476   3.128  0.3175  0.1505  0.3558
 2430SOL    HW2 8101   1.513   6.346   3.185  0.3918 -0.2086 -0.3864
 2431SOL     OW 8102   0.323   3.642   1.996  0.7873 -0.0331  0.4175
 2431SOL    HW1 8103   0.409   3.641   1.953  0.8709 -2.8724  0.4602
 2431SOL    HW2 8104   0.324   3.565   2.052 -1.7136  0.0026  0.5864
 2432SOL     OW 8105   7.688   3.695   3.402 -0.1651  0.1624 -0.3488
 2432SOL    HW1 8106   7.776   3.716   3.372 -0.3791 -0.2416 -1.2993
 2432SOL    HW2 8107   7.632   3.712   3.327 -0.7682 -0.5296 -0.0699
 2433SOL     OW 8108   6.860   1.698   4.294 -0.1014  0.1140 -0.6213
 2433SOL    HW1 8109   6.801   1.628   4.323 -0.1619  0.0463 -0.9027
 2433SOL    HW2 8110   6.948   1.660   4.301  0.0908  0.8535  1.6598
 2434SOL     OW 8111   7.629   1.755   2.341 -0.0160  0.3045 -0.5819
 2434SOL    HW1 8112   7.715   1.796   2.343 -0.2551  0.8218 -0.8020
 2434SOL    HW2 8113   7.592   1.773   2.428 -1.3600  3.2723 -1.6475
 2435SOL     OW 8114   1.357   7.020   6.660 -0.1097  0.3515 -0.0531
 2435SOL    HW1 8115   1.300   7.096   6.671  0.7873  0.9793  0.4651
 2435SOL    HW2 8116   1.445   7.057   6.656  0.2746 -0.5989 -0.7198
 2436SOL     OW 8117   2.515   4.090   1.260 -0.7464  0.7954  0.0634
 2436SOL    HW1 8118   2.532   4.031   1.334 -0.2401  2.4320  1.3216
 2436SOL    HW2 8119   2.425   4.071   1.234 -0.1643 -1.4544 -0.4893
 2437SOL     OW 8120   6.337   3.074   0.943  0.2675 -0.5319  0.6378
 2437SOL    HW1 8121   6.268   3.070   1.009 -0.8204 -2.4041 -0.5105
 2437SOL    HW2 8122   6.399   3.006   0.968  0.9474  0.1523  0.8515
 2438SOL     OW 8123   6.405   0.514   1.988  0.1501 -0.2424 -0.1861
 2438SOL    HW1 8124   6.455   0.475   2.060 -0.3771  1.5993  1.2456
 2438SOL    HW2 8125   6.316   0.479   1.999 -0.1933  0.8711  0.7685
 2439SOL     OW 8126   5.075   0.986   6.103 -0.5631  0.2339 -0.0656
 2439SOL    HW1 8127   5.037   1.003   6.016 -1.2389 -0.6033  0.0457
 2439SOL    HW2 8128   5.169   0.983   6.087 -0.5620  1.6858 -0.4724
 2440SOL     OW 8129   3.630   6.144   6.585 -0.6188  0.2211 -0.1494
 2440SOL    HW1 8130   3.702   6.195   6.549  0.1132  0.1485  1.1319
 2440SOL    HW2 8131   3.574   6.208   6.629 -0.2749  0.0607  0.5369
 2441SOL     OW 8132   2.935   2.847   2.616  0.0442 -0.2064 -0.2060
 2441SOL    HW1 8133   2.933   2.751   2.607  1.2697 -0.3078  0.4552
 2441SOL    HW2 8134   2.908   2.862   2.707 -0.2616  0.0900 -0.3452
 2442SOL     OW 8135   4.991   5.029   3.357  0.6720 -0.0605  0.3015
 2442SOL    HW1 8136   5.049   4.960   3.327 -1.6503 -1.4496 -1.3281
 2442SOL    HW2 8137   4.911   4.984   3.385  0.1289  1.7743  1.9685
 2443SOL     OW 8138   7.893   4.068   4.135  0.4056  0.3975 -0.2731
 2443SOL    HW1 8139   7.807   4.034   4.161  0.7484  0.2700  0.7641
 2443SOL    HW2 8140   7.953   4.031   4.201  1.2505  0.4831 -0.9852
 2444SOL     OW 8141   1.728   5.462   3.955 -0.3821 -0.1871  0.4436
 2444SOL    HW1 8142   1.773   5.379   3.948  0.4716  0.2983  0.0463
 2444SOL    HW2 8143   1.771   5.507   4.028  0.7478  0.8424 -0.8125
 2445SOL     OW 8144   3.617   1.699   4.145  0.4058 -0.3590 -0.3905
 2445SOL    HW1 8145   3.690   1.728   4.199 -0.3706 -2.2886  1.8519
 2445SOL    HW2 8146   3.658   1.642   4.079  1.0523 -0.7162  0.2944
 2446SOL     OW 8147   6.213   6.958   2.405  0.2712  0.5143 -0.3037
 2446SOL    HW1 8148   6.152   7.031   2.391 -0.1359  0.0014 -1.2775
 2446SOL    HW2 8149   6.287   6.998   2.450  0.0789  1.5459 -0.8698
 2447SOL     OW 8150   2.496   1.282   1.573 -0.5168  0.7089  0.1833
 2447SOL    HW1 8151   2.464   1.196   1.599 -0.2064  0.6636  0.4249
 2447SOL    HW2 8152   2.588   1.268   1.549 -0.6407  0.8567 -0.3895
 2448SOL     OW 8153   4.541   2.234   4.652  0.0820 -0.2883 -0.5412
 2448SOL    HW1 8154   4.534   2.140   4.668  2.7485 -0.3671  0.6108
 2448SOL    HW2 8155   4.632   2.248   4.626  0.8322  2.3122  2.7450
 2449SOL     OW 8156   0.136   7.866   1.643 -0.3648 -0.2024  0.4610
 2449SOL    HW1 8157   0.171   7.951   1.616 -1.3831 -0.1931 -0.9905
 2449SOL    HW2 8158   0.202   7.829   1.701  0.6575  1.0493  0.1283
 2450SOL     OW 8159   4.803   0.096   1.425  0.0696  0.0780 -0.0356
 2450SOL    HW1 8160   4.776   0.095   1.517  3.0517 -0.4589  0.9643
 2450SOL    HW2 8161   4.875   0.159   1.422 -0.8604  1.1202 -2.3496
 2451SOL     OW 8162   0.013   2.384   2.981  0.3254 -0.3152 -0.0631
 2451SOL    HW1 8163   0.078   2.361   3.047  1.0818 -1.1649 -1.0514
 2451SOL    HW2 8164   0.059   2.370   2.897  0.0416  2.6140 -0.7947
 2452SOL     OW 8165   5.638   0.692   1.496  0.7528 -0.5618  0.1463
 2452SOL    HW1 8166   5.729   0.700   1.523  1.0602 -1.6039 -0.5105
 2452SOL    HW2 8167   5.603   0.621   1.550  0.5708 -0.7211 -0.1734
 2453SOL     OW 8168   5.148   3.584   5.439  0.0706  0.4141 -0.6927
 2453SOL    HW1 8169   5.242   3.569   5.433  0.2681  0.1681  1.8812
 2453SOL    HW2 8170   5.138   3.677   5.417  0.5792 -0.0716 -3.1955
 2454SOL     OW 8171   0.988   4.401   7.333  0.3963 -0.4534  0.2822
 2454SOL    HW1 8172   0.924   4.446   7.279  0.8427 -0.3048 -0.1367
 2454SOL    HW2 8173   0.938   4.334   7.379  0.3418 -2.1318 -2.0419
 2455SOL     OW 8174   6.318   1.023   7.872  0.0029  0.2716  0.2751
 2455SOL    HW1 8175   6.359   1.109   7.882 -0.2833  0.4881 -0.3396
 2455SOL    HW2 8176   6.377   0.963   7.917  1.4536  0.4537 -1.2846
 2456SOL     OW 8177   2.514   0.148   4.101 -0.3705 -0.1718  0.0022
 2456SOL    HW1 8178   2.588   0.201   4.073 -0.3700 -0.2171 -0.0829
 2456SOL    HW2 8179   2.551   0.087   4.165 -0.2192 -0.5692 -0.4532
 2457SOL     OW 8180   2.737   7.061   1.524  0.0515 -0.4393  0.0215
 2457SOL    HW1 8181   2.657   7.103   1.557  0.2845  0.7066 -0.8115
 2457SOL    HW2 8182   2.780   7.027   1.603  0.1181  1.3889  0.8308
 2458SOL     OW 8183   0.373   1.537   5.334 -0.3579  0.2259 -0.0635
 2458SOL    HW1 8184   0.456   1.543   5.287 -0.1191  0.8797  0.4295
 2458SOL    HW2 8185   0.310   1.581   5.277 -0.2361  0.2892 -0.1496
 2459SOL     OW 8186   6.634   1.337   6.165  0.0962 -0.2728  0.2139
 2459SOL    HW1 8187   6.553   1.315   6.121  0.5160  0.2794 -0.8717
 2459SOL    HW2 8188   6.680   1.395   6.105  0.3120  1.2177  1.7351
 2460SOL     OW 8189   2.839   5.744   6.043  0.2864  0.5777  0.1174
 2460SOL    HW1 8190   2.853   5.822   5.989  1.1813  0.4080  0.0760
 2460SOL    HW2 8191   2.765   5.766   6.099  0.5974  1.5101  0.1858
 2461SOL     OW 8192   3.882   7.942   2.278 -0.3025 -0.3873  0.3702
 2461SOL    HW1 8193   3.933   7.894   2.342  0.0413 -0.4177  0.0762
 2461SOL    HW2 8194   3.913   8.032   2.284  0.0632 -0.4765 -0.0725
 2462SOL     OW 8195   3.475   6.675   2.375  0.3930  0.4749  0.0346
 2462SOL    HW1 8196   3.509   6.636   2.455  0.7904  0.0156 -0.3513
 2462SOL    HW2 8197   3.523   6.757   2.365  0.9199  0.1434 -0.1611
 2463SOL     OW 8198   7.645   7.247   1.316 -0.2866 -0.2440 -0.2872
 2463SOL    HW1 8199   7.697   7.176   1.277  0.3300 -0.9663  1.7491
 2463SOL    HW2 8200   7.710   7.314   1.339 -0.2899 -0.8219  1.5579
 2464SOL     OW 8201   6.374   3.264   5.584  0.1700  0.5330 -0.5242
 2464SOL    HW1 8202   6.347   3.338   5.530 -2.0730  0.3345  0.2263
 2464SOL    HW2 8203   6.304   3.199   5.573  1.6075 -1.1027 -0.4199
 2465SOL     OW 8204   5.934   3.267   2.957  0.1356  0.7104 -0.0937
 2465SOL    HW1 8205   5.888   3.251   2.875  0.2625  0.8811 -0.1985
 2465SOL    HW2 8206   5.925   3.361   2.972  0.6983  0.7953 -0.2672
 2466SOL     OW 8207   0.924   6.665   6.590 -0.3230 -0.3467 -0.0146
 2466SOL    HW1 8208   0.921   6.614   6.671  1.1183 -0.0302  0.2660
 2466SOL    HW2 8209   0.899   6.603   6.522 -0.4329 -0.9227  0.5417
 2467SOL     OW 8210   2.457   6.736   3.383 -0.6434  0.0575 -0.4602
 2467SOL    HW1 8211   2.469   6.662   3.323  1.3368  1.6451 -2.1682
 2467SOL    HW2 8212   2.442   6.812   3.325 -0.4128  1.3679  1.1372
 2468SOL     OW 8213   0.243   0.674   1.339 -0.8396  0.1070  0.1759
 2468SOL    HW1 8214   0.278   0.593   1.303 -0.7038  0.5309 -0.6692
 2468SOL    HW2 8215   0.164   0.648   1.387 -2.2199 -0.2516 -2.1637
 2469SOL     OW 8216   1.678   7.660   3.513  0.2386 -0.5311 -0.3669
 2469SOL    HW1 8217   1.606   7.681   3.454  2.0178  1.4420 -2.0086
 2469SOL    HW2 8218   1.757   7.676   3.461  1.8944 -1.4690  1.7077
 2470SOL     OW 8219   4.272   4.515   3.938 -0.1565 -0.7023  0.4155
 2470SOL    HW1 8220   4.236   4.435   3.977 -1.9962  0.2305  0.7204
 2470SOL    HW2 8221   4.284   4.574   4.012  0.5827 -0.4521  0.1072
 2471SOL     OW 8222   0.744   4.772   0.773 -0.0806 -0.1473 -0.8718
 2471SOL    HW1 8223   0.662   4.726   0.790 -0.0007  0.6064  2.4776
 2471SOL    HW2 8224   0.810   4.720   0.817  1.1695 -0.3159 -2.8468
 2472SOL     OW 8225   4.926   6.961   7.733  0.0301  0.0023  0.9113
 2472SOL    HW1 8226   4.831   6.977   7.733  0.1420  0.8715  2.1671
 2472SOL    HW2 8227   4.964   7.046   7.757  1.1578 -0.2534  0.0946
 2473SOL     OW 8228   5.520   2.980   4.115  0.0281 -0.2287  0.0945
 2473SOL    HW1 8229   5.461   3.049   4.145  0.0250 -0.9416  1.8343
 2473SOL    HW2 8230   5.464   2.903   4.104  0.2872 -0.3600 -0.3370
 2474SOL     OW 8231   6.811   0.445   0.396 -0.0492  0.1850 -0.3127
 2474SOL    HW1 8232   6.718   0.430   0.383 -0.2233  0.5439  0.4599
 2474SOL    HW2 8233   6.854   0.371   0.353 -0.6944 -0.0436 -0.5665
 2475SOL     OW 8234   7.897   6.498   1.464  0.3920  0.4813 -0.0785
 2475SOL    HW1 8235   7.943   6.426   1.421 -2.0521 -1.8932  1.0339
 2475SOL    HW2 8236   7.836   6.531   1.398 -0.5711 -0.5080  0.2935
 2476SOL     OW 8237   6.408   0.386   0.129  0.7073 -0.1861  0.3513
 2476SOL    HW1 8238   6.389   0.476   0.156 -2.0497 -0.1916 -1.0940
 2476SOL    HW2 8239   6.451   0.396   0.044  0.7932 -0.2187  0.3915
 2477SOL     OW 8240   7.606   1.218   7.953 -0.1130  0.3051 -0.2562
 2477SOL    HW1 8241   7.593   1.235   8.047  1.7126 -0.5631  0.1952
 2477SOL    HW2 8242   7.625   1.304   7.916 -1.0600  0.6883  0.1175
 2478SOL     OW 8243   0.600   4.507   1.050  0.3529  0.7548 -0.2149
 2478SOL    HW1 8244   0.507   4.528   1.059  0.0939  0.1339 -1.2348
 2478SOL    HW2 8245   0.624   4.467   1.134 -0.4759  0.3199 -0.1684
 2479SOL     OW 8246   6.147   2.706   0.796 -0.1356 -0.3008 -0.8602
 2479SOL    HW1 8247   6.168   2.612   0.802  0.0170 -0.3511 -1.9319
 2479SOL    HW2 8248   6.223   2.744   0.751  0.1251  0.4634  0.2122
 2480SOL     OW 8249   2.682   6.394   5.051 -0.2917 -0.2003  0.5082
 2480SOL    HW1 8250   2.742   6.347   5.108  3.0488  3.9709  0.9892
 2480SOL    HW2 8251   2.600   6.399   5.100  0.9499 -0.8248  2.7893
 2481SOL     OW 8252   3.877   2.947   0.579  0.4756 -0.5800 -0.1098
 2481SOL    HW1 8253   3.884   3.017   0.644  3.4755  0.5803 -1.4776
 2481SOL    HW2 8254   3.785   2.948   0.552  0.3135  2.7131  0.1357
 2482SOL     OW 8255   6.321   2.831   0.308 -0.4647 -0.3028  0.2621
 2482SOL    HW1 8256   6.327   2.837   0.213 -0.5220  0.0120  0.2769
 2482SOL    HW2 8257   6.229   2.843   0.328 -0.3192  0.6394  0.4202
 2483SOL     OW 8258   6.191   0.635   1.700 -0.8800  0.0855  0.0328
 2483SOL    HW1 8259   6.229   0.690   1.769  1.5455  1.1015 -1.9679
 2483SOL    HW2 8260   6.181   0.549   1.742  1.3805  0.4272  1.4565
 2484SOL     OW 8261   1.678   6.519   1.568 -0.1494  0.0679  0.2320
 2484SOL    HW1 8262   1.738   6.593   1.580 -0.1382 -0.1237  1.5981
 2484SOL    HW2 8263   1.592   6.554   1.595  0.0204 -0.6370  1.8167
 2485SOL     OW 8264   7.452   6.078   4.509 -0.0443  0.4601  0.1175
 2485SOL    HW1 8265   7.442   6.047   4.419  2.2964  0.0001 -0.0658
 2485SOL    HW2 8266   7.386   6.146   4.519  0.5865  1.5708 -2.4604
 2486SOL     OW 8267   0.411   1.944   1.031 -0.0251 -0.0454 -0.7034
 2486SOL    HW1 8268   0.383   2.029   1.066  0.1817 -0.1166 -0.3587
 2486SOL    HW2 8269   0.494   1.964   0.987 -0.8682  0.2715 -2.2065
 2487SOL     OW 8270   2.314   3.597   6.473 -0.0466 -0.6763 -0.3171
 2487SOL    HW1 8271   2.340   3.599   6.565 -1.1308  0.3512 -0.0035
 2487SOL    HW2 8272   2.329   3.686   6.442 -0.8315 -0.6943 -0.7877
 2488SOL     OW 8273   7.749   4.062   6.061  0.3175  0.5694 -0.1881
 2488SOL    HW1 8274   7.802   4.126   6.108  0.0282  0.8142 -0.1917
 2488SOL    HW2 8275   7.800   3.981   6.065  1.4543  1.1744 -1.5848
 2489SOL     OW 8276   2.780   6.898   0.505  0.1033  0.2545  0.7702
 2489SOL    HW1 8277   2.689   6.929   0.506  0.1952  0.5490  0.2258
 2489SOL    HW2 8278   2.828   6.962   0.558  0.2303  0.8515 -0.0566
 2490SOL     OW 8279   3.831   4.089   3.834 -0.3268 -0.1617 -0.0851
 2490SOL    HW1 8280   3.807   3.997   3.839  0.1614 -0.2670  0.3830
 2490SOL    HW2 8281   3.804   4.116   3.746 -0.1919 -0.8245 -0.3354
 2491SOL     OW 8282   4.443   3.436   5.931 -0.0396  0.1768 -0.0884
 2491SOL    HW1 8283   4.438   3.447   5.836  1.9389  2.3491 -0.0194
 2491SOL    HW2 8284   4.368   3.485   5.965 -0.4174 -0.1119 -0.4947
 2492SOL     OW 8285   7.673   3.774   0.944 -0.0412 -0.2756  0.0842
 2492SOL    HW1 8286   7.719   3.690   0.943 -2.3979 -1.6378 -0.3812
 2492SOL    HW2 8287   7.675   3.803   0.853  1.1787  0.4669  0.3191
 2493SOL     OW 8288   2.820   7.524   7.230  0.3831 -0.3905  0.2064
 2493SOL    HW1 8289   2.767   7.599   7.204  0.7751  0.1007  0.8010
 2493SOL    HW2 8290   2.766   7.478   7.295  0.8875  0.4315  1.2510
 2494SOL     OW 8291   5.819   5.856   5.860 -0.6535  0.0353  0.4487
 2494SOL    HW1 8292   5.851   5.833   5.773 -1.3757 -0.3356  0.2784
 2494SOL    HW2 8293   5.734   5.896   5.845 -0.9925 -0.4542  1.0177
 2495SOL     OW 8294   1.654   0.377   7.762 -0.5412  0.2889  0.3825
 2495SOL    HW1 8295   1.742   0.391   7.797  0.7004  2.1294 -3.0941
 2495SOL    HW2 8296   1.643   0.282   7.763  1.4741  0.0134  0.9139
 2496SOL     OW 8297   6.097   6.390   6.763 -0.0522  0.3354 -0.2056
 2496SOL    HW1 8298   6.148   6.369   6.685 -0.1075 -1.0517  0.1025
 2496SOL    HW2 8299   6.156   6.441   6.818  0.1684  0.8474 -0.9045
 2497SOL     OW 8300   3.966   6.432   6.622  0.7660  0.5581 -0.8543
 2497SOL    HW1 8301   3.949   6.471   6.708  0.6535  0.1758 -0.7024
 2497SOL    HW2 8302   3.882   6.393   6.597  0.5021  1.5809 -1.6121
 2498SOL     OW 8303   2.159   6.175   4.226  0.1020  0.1575  0.4323
 2498SOL    HW1 8304   2.232   6.211   4.175 -0.3441  0.9432  0.3422
 2498SOL    HW2 8305   2.081   6.198   4.176 -0.2651  0.0311  0.9452
 2499SOL     OW 8306   6.371   6.849   4.328  0.0592  0.0983 -0.7938
 2499SOL    HW1 8307   6.337   6.800   4.253  0.0115 -0.3561 -0.4754
 2499SOL    HW2 8308   6.453   6.887   4.296  1.1613 -1.8387 -0.4480
 2500SOL     OW 8309   0.775   1.457   6.925 -0.8805 -0.1700 -0.0838
 2500SOL    HW1 8310   0.711   1.431   6.991 -0.3925 -1.0238  0.0672
 2500SOL    HW2 8311   0.851   1.402   6.942  0.5372  1.9148  0.7584
 2501SOL     OW 8312   0.063   3.925   6.923 -0.1811  0.6242 -0.5626
 2501SOL    HW1 8313   0.024   3.911   7.009 -0.8091  0.6350 -0.8375
 2501SOL    HW2 8314   0.134   3.861   6.918 -2.0437 -1.5505 -1.2047
 2502SOL     OW 8315   6.552   1.191   7.842  0.2202 -0.0232 -0.4063
 2502SOL    HW1 8316   6.592   1.236   7.768  0.7790  0.3620  0.1169
 2502SOL    HW2 8317   6.555   1.254   7.914 -1.2819 -0.0144 -0.3237
 2503SOL     OW 8318   5.790   4.717   0.343  0.1127  0.2119  0.0067
 2503SOL    HW1 8319   5.884   4.736   0.349 -0.0969  1.6709 -0.8143
 2503SOL    HW2 8320   5.760   4.714   0.434  0.7760  0.7795  0.2510
 2504SOL     OW 8321   4.794   0.777   7.788 -0.2672  0.4014 -0.0282
 2504SOL    HW1 8322   4.884   0.791   7.761 -0.3393  0.3386 -0.2957
 2504SOL    HW2 8323   4.755   0.865   7.787  0.1573  0.6397  1.4128
 2505SOL     OW 8324   0.270   5.919   6.046 -0.3224  0.5495  0.1567
 2505SOL    HW1 8325   0.277   5.870   5.964  1.3474 -0.0141  0.5930
 2505SOL    HW2 8326   0.180   5.906   6.075 -1.1515  1.3215 -1.9037
 2506SOL     OW 8327   4.309   5.817   0.816  0.4474 -0.1591  0.5680
 2506SOL    HW1 8328   4.267   5.776   0.892  1.5918 -1.3054  0.6155
 2506SOL    HW2 8329   4.293   5.910   0.828 -1.1661 -0.4689  1.1186
 2507SOL     OW 8330   0.511   5.111   5.316  0.3327 -0.1120 -0.1304
 2507SOL    HW1 8331   0.508   5.176   5.247  0.4556  0.6360  0.5513
 2507SOL    HW2 8332   0.604   5.107   5.341  0.3212 -0.5227 -0.1428
 2508SOL     OW 8333   3.142   5.611   5.878  0.4280  0.2724  0.3989
 2508SOL    HW1 8334   3.078   5.591   5.810 -0.4525 -1.3926  1.6352
 2508SOL    HW2 8335   3.140   5.534   5.936  0.8080  1.7843  2.5300
 2509SOL     OW 8336   5.428   7.873   3.558  0.3240  0.0912  0.2069
 2509SOL    HW1 8337   5.417   7.859   3.652  3.0993 -1.3834  0.4466
 2509SOL    HW2 8338   5.394   7.793   3.517 -2.4962  1.4374 -0.2940
 2510SOL     OW 8339   4.111   3.900   2.208 -0.5025 -0.9207  0.0405
 2510SOL    HW1 8340   4.184   3.957   2.229 -1.9183  0.1550  2.4751
 2510SOL    HW2 8341   4.150   3.813   2.201  1.4033 -0.0170 -1.8523
 2511SOL     OW 8342   1.696   3.369   2.149  0.1105  0.7677 -0.6568
 2511SOL    HW1 8343   1.708   3.418   2.067 -0.3128  4.5749  1.3320
 2511SOL    HW2 8344   1.606   3.339   2.146  0.7523 -1.2951 -2.5018
 2512SOL     OW 8345   4.517   6.556   2.194 -0.0975 -0.2773  0.0367
 2512SOL    HW1 8346   4.537   6.463   2.209  2.6838  0.4370  1.3010
 2512SOL    HW2 8347   4.435   6.570   2.241  0.0118 -1.8383  0.7707
 2513SOL     OW 8348   0.188   2.247   6.463 -0.5084  0.5533  0.4797
 2513SOL    HW1 8349   0.239   2.311   6.412  0.0880  0.4902  0.9843
 2513SOL    HW2 8350   0.157   2.184   6.398  1.5371 -0.3911  0.3595
 2514SOL     OW 8351   7.279   6.980   4.626 -0.3879  0.0914  0.3952
 2514SOL    HW1 8352   7.205   6.993   4.685 -0.5174  0.2979  0.1916
 2514SOL    HW2 8353   7.318   7.067   4.618 -1.7466  0.5824 -1.6318
 2515SOL     OW 8354   2.237   3.525   1.696 -0.1302  0.2758 -0.2597
 2515SOL    HW1 8355   2.156   3.491   1.734 -0.4908  0.8010 -0.5353
 2515SOL    HW2 8356   2.289   3.554   1.771  0.4523 -1.4291  0.0235
 2516SOL     OW 8357   4.407   6.888   5.493  0.1336  0.0069  0.3058
 2516SOL    HW1 8358   4.317   6.917   5.507 -0.3146 -0.3559 -1.4861
 2516SOL    HW2 8359   4.415   6.807   5.543 -0.6828 -0.1892  0.1315
 2517SOL     OW 8360   0.481   5.619   5.114 -0.1102  0.0866 -0.3935
 2517SOL    HW1 8361   0.401   5.663   5.085 -0.4609 -0.5476 -0.4241
 2517SOL    HW2 8362   0.552   5.669   5.074 -0.5401 -0.0944 -1.4196
 2518SOL     OW 8363   2.484   3.982   2.307  0.1226 -0.4173 -0.4803
 2518SOL    HW1 8364   2.531   4.065   2.312 -1.0005  0.1788  1.6317
 2518SOL    HW2 8365   2.539   3.921   2.357  0.6361 -0.7972 -1.4937
 2519SOL     OW 8366   4.820   5.890   6.342 -0.0221 -0.3071 -0.2558
 2519SOL    HW1 8367   4.824   5.851   6.255  1.2195 -1.4916  0.3097
 2519SOL    HW2 8368   4.849   5.821   6.401 -1.0675  0.3974  1.1390
 2520SOL     OW 8369   5.594   4.737   2.105 -0.1146  0.0586  0.3038
 2520SOL    HW1 8370   5.549   4.818   2.081 -2.4531 -0.5054  2.4783
 2520SOL    HW2 8371   5.579   4.678   2.031 -1.3182  0.5126  0.1738
 2521SOL     OW 8372   5.423   1.556   1.708 -0.3537  0.2246  0.3471
 2521SOL    HW1 8373   5.432   1.486   1.772  0.5807  1.0019  1.0912
 2521SOL    HW2 8374   5.444   1.515   1.624  0.3869 -0.3368  0.8001
 2522SOL     OW 8375   6.509   4.908   4.750 -0.2054  0.1693  0.2656
 2522SOL    HW1 8376   6.422   4.870   4.742  0.3190 -0.9155 -0.5398
 2522SOL    HW2 8377   6.495   5.003   4.751 -1.3388  0.0176 -0.4784
 2523SOL     OW 8378   4.961   3.006   1.998 -0.1482 -0.2526  1.0858
 2523SOL    HW1 8379   4.995   2.976   1.913  1.1283 -0.1111  1.5267
 2523SOL    HW2 8380   4.959   3.101   1.990 -4.0785 -0.2472 -0.2672
 2524SOL     OW 8381   2.767   7.562   3.227 -0.1086 -0.1950  0.1094
 2524SOL    HW1 8382   2.841   7.565   3.287  0.1690  1.4316 -0.2854
 2524SOL    HW2 8383   2.776   7.478   3.182  1.8788  0.2774 -0.4335
 2525SOL     OW 8384   0.352   6.600   2.096  0.2086  0.2712  0.2604
 2525SOL    HW1 8385   0.431   6.583   2.148  0.6483 -1.2837 -0.8464
 2525SOL    HW2 8386   0.385   6.639   2.015 -0.2576  0.5373  0.1973
 2526SOL     OW 8387   0.107   7.044   7.531  0.4098 -0.7228  0.1555
 2526SOL    HW1 8388   0.012   7.045   7.531  0.4083 -0.6666 -0.5995
 2526SOL    HW2 8389   0.132   7.108   7.597 -0.0704 -2.9704  2.7241
 2527SOL     OW 8390   0.399   7.965   1.042 -0.6762  0.3496 -0.0115
 2527SOL    HW1 8391   0.482   8.003   1.071 -0.1016 -0.0628 -1.0787
 2527SOL    HW2 8392   0.424   7.891   0.986 -1.7555  0.5501 -0.7890
 2528SOL     OW 8393   2.167   0.664   5.775 -0.1610  0.4813  0.7355
 2528SOL    HW1 8394   2.200   0.754   5.780  1.1760  0.2983 -2.5261
 2528SOL    HW2 8395   2.106   0.665   5.701 -0.7429 -1.1407  1.1557
 2529SOL     OW 8396   0.733   4.914   6.766  0.0316  0.3064 -0.3520
 2529SOL    HW1 8397   0.787   4.930   6.689  0.1268  0.4862 -0.2473
 2529SOL    HW2 8398   0.691   4.830   6.749 -0.4371  0.6403 -0.8824
 2530SOL     OW 8399   6.815   7.956   6.604  0.4837  0.6383  0.6767
 2530SOL    HW1 8400   6.785   8.030   6.550  1.3251  1.3864  1.2141
 2530SOL    HW2 8401   6.766   7.881   6.570  0.6455  1.1716 -0.8114
 2531SOL     OW 8402   6.291   1.656   0.341 -0.3559 -0.4101  0.1142
 2531SOL    HW1 8403   6.311   1.649   0.247  1.1686 -0.0744  0.3882
 2531SOL    HW2 8404   6.205   1.616   0.350 -1.3344  1.1014 -1.6975
 2532SOL     OW 8405   6.716   5.802   5.779 -0.6286  0.1170  0.0300
 2532SOL    HW1 8406   6.621   5.807   5.787 -0.6863 -1.8420  1.2239
 2532SOL    HW2 8407   6.746   5.773   5.865  0.9233 -0.5208 -0.6876
 2533SOL     OW 8408   6.778   5.835   1.191  0.0597  0.3157 -0.1130
 2533SOL    HW1 8409   6.830   5.847   1.111  0.6747  0.5152  0.3123
 2533SOL    HW2 8410   6.691   5.810   1.159  0.3600  0.1626 -0.8405
 2534SOL     OW 8411   6.407   7.878   1.810  0.1900 -0.6697 -0.3656
 2534SOL    HW1 8412   6.481   7.848   1.863  0.2522 -1.1533 -0.7217
 2534SOL    HW2 8413   6.446   7.931   1.741 -0.0299  1.6119  1.1521
 2535SOL     OW 8414   4.760   1.744   4.703 -0.0892  0.3149 -0.0797
 2535SOL    HW1 8415   4.848   1.713   4.726  0.8951  2.9991  0.1328
 2535SOL    HW2 8416   4.708   1.664   4.695  2.5589 -1.4670 -1.1085
 2536SOL     OW 8417   2.980   6.271   7.111  0.6566  0.6934  0.0059
 2536SOL    HW1 8418   2.945   6.203   7.054  0.4807 -0.0963  1.0356
 2536SOL    HW2 8419   3.039   6.321   7.055  1.6071 -0.9552 -0.5260
 2537SOL     OW 8420   4.314   4.422   4.325  0.0297  0.0197  0.1278
 2537SOL    HW1 8421   4.326   4.327   4.321  0.8466  0.0373  1.6261
 2537SOL    HW2 8422   4.224   4.435   4.294 -0.1683 -1.2514  0.0883
 2538SOL     OW 8423   0.658   2.343   0.773  0.0736 -0.4211  0.0749
 2538SOL    HW1 8424   0.738   2.344   0.721  0.0594 -1.2478  0.0340
 2538SOL    HW2 8425   0.686   2.372   0.860  0.2982 -0.1040 -0.1019
 2539SOL     OW 8426   1.827   1.651   0.543 -0.4601  0.4176 -0.5785
 2539SOL    HW1 8427   1.757   1.716   0.545  1.3327  2.5543 -2.5553
 2539SOL    HW2 8428   1.884   1.673   0.616 -0.9222 -0.2649  0.0013
 2540SOL     OW 8429   6.889   1.867   6.026 -0.0664 -0.3732  0.0485
 2540SOL    HW1 8430   6.802   1.827   6.032 -0.6117  0.6386 -0.7424
 2540SOL    HW2 8431   6.934   1.816   5.959 -0.2982 -0.4675 -0.0355
 2541SOL     OW 8432   4.787   1.278   1.019  0.1148  0.4837 -0.5425
 2541SOL    HW1 8433   4.712   1.227   1.049  0.6094  0.1337  0.1478
 2541SOL    HW2 8434   4.788   1.355   1.076  1.0739 -0.1940  0.4035
 2542SOL     OW 8435   2.574   1.219   1.989 -0.5009 -0.2359  0.0618
 2542SOL    HW1 8436   2.627   1.176   1.922 -1.0967  0.8123 -1.1342
 2542SOL    HW2 8437   2.525   1.149   2.030  0.4347 -0.9950 -0.0855
 2543SOL     OW 8438   0.750   4.340   1.858 -0.0140 -0.3802  0.0327
 2543SOL    HW1 8439   0.846   4.336   1.858 -0.0134 -0.5083 -0.7459
 2543SOL    HW2 8440   0.723   4.267   1.803 -0.5600 -0.3371  0.2404
 2544SOL     OW 8441   6.882   4.561   6.689  0.7016 -0.4359  0.0099
 2544SOL    HW1 8442   6.838   4.604   6.616 -0.1209 -2.2241 -0.6086
 2544SOL    HW2 8443   6.845   4.473   6.690  1.5469 -0.8076  1.8725
 2545SOL     OW 8444   1.877   3.862   7.191  0.1335 -0.3082 -0.4636
 2545SOL    HW1 8445   1.787   3.852   7.159  0.1574  1.4639 -1.2431
 2545SOL    HW2 8446   1.883   3.955   7.214  1.3874 -0.6798  0.8237
 2546SOL     OW 8447   2.034   3.541   6.665 -0.0933 -0.7404 -0.0937
 2546SOL    HW1 8448   1.963   3.491   6.624  1.6627 -0.8482 -3.3989
 2546SOL    HW2 8449   2.112   3.487   6.651  1.3401  1.3752 -0.7799
 2547SOL     OW 8450   4.788   5.039   6.496 -0.0297 -0.2233  0.1548
 2547SOL    HW1 8451   4.695   5.058   6.504  0.0800  0.4706 -0.0772
 2547SOL    HW2 8452   4.816   5.090   6.419  0.3876 -1.0174 -0.2301
 2548SOL     OW 8453   5.972   5.953   7.880 -0.3355  0.0477  0.2135
 2548SOL    HW1 8454   6.035   5.939   7.809  1.2421  2.2562  1.0506
 2548SOL    HW2 8455   5.915   5.876   7.878  0.8168 -0.8346 -2.2163
 2549SOL     OW 8456   7.876   4.904   0.207  0.1043  0.0767 -0.4964
 2549SOL    HW1 8457   7.816   4.856   0.150 -0.5510 -0.7299  0.8234
 2549SOL    HW2 8458   7.948   4.844   0.222  0.9112  0.7600 -1.4513
 2550SOL     OW 8459   2.802   6.578   6.350  0.0811 -0.0149 -0.5489
 2550SOL    HW1 8460   2.895   6.558   6.339  0.5537  0.0548  2.4355
 2550SOL    HW2 8461   2.798   6.674   6.349 -0.1064 -0.0248 -1.4625
 2551SOL     OW 8462   6.835   5.305   6.991  0.2958 -0.5059  0.2918
 2551SOL    HW1 8463   6.895   5.353   6.933 -0.1483 -1.1564 -0.7299
 2551SOL    HW2 8464   6.751   5.306   6.945 -0.4796  0.2880  1.6540
 2552SOL     OW 8465   2.940   7.885   6.290 -0.0076 -0.4524  0.1473
 2552SOL    HW1 8466   2.901   7.848   6.369 -0.3952  2.2691  1.3475
 2552SOL    HW2 8467   3.014   7.937   6.321  0.3532 -0.0021 -1.3607
 2553SOL     OW 8468   3.667   6.657   1.853  0.2861 -0.3343 -0.2916
 2553SOL    HW1 8469   3.632   6.630   1.938  1.3295 -1.6215 -0.2409
 2553SOL    HW2 8470   3.754   6.693   1.874 -0.0832  0.8364 -0.6582
 2554SOL     OW 8471   3.081   3.885   2.174 -0.6615  0.6666  0.1167
 2554SOL    HW1 8472   3.069   3.825   2.101 -2.7972  0.2524  0.7424
 2554SOL    HW2 8473   3.164   3.858   2.213  0.1744  0.4463 -1.6964
 2555SOL     OW 8474   0.817   5.450   0.300 -0.2537 -0.0479 -0.2697
 2555SOL    HW1 8475   0.818   5.519   0.232  0.8658  0.4025  0.1835
 2555SOL    HW2 8476   0.760   5.382   0.263 -1.3802  1.0894 -0.7449
 2556SOL     OW 8477   7.899   3.825   6.103 -0.5707 -0.1329 -0.0656
 2556SOL    HW1 8478   7.874   3.781   6.021  1.5600  0.6216 -1.2168
 2556SOL    HW2 8479   7.980   3.780   6.130 -0.5170  0.5203  0.8825
 2557SOL     OW 8480   3.648   4.596   7.320  0.5480  0.5891 -1.0355
 2557SOL    HW1 8481   3.700   4.663   7.276  2.7079 -0.4956 -0.3125
 2557SOL    HW2 8482   3.619   4.638   7.401  0.2522  1.2393 -1.4728
 2558SOL     OW 8483   2.074   3.201   4.023  0.5619  0.9331  0.6486
 2558SOL    HW1 8484   2.014   3.275   4.032 -0.0104  0.5626  0.0263
 2558SOL    HW2 8485   2.160   3.240   4.012  0.2783  1.5058  0.4070
 2559SOL     OW 8486   5.017   0.886   7.646  1.2269 -0.0906  0.4406
 2559SOL    HW1 8487   5.042   0.848   7.562  2.2125 -0.3436  0.8374
 2559SOL    HW2 8488   5.058   0.973   7.647 -1.6059  1.4109 -0.7789
 2560SOL     OW 8489   2.641   6.464   1.634 -0.5785  0.2802 -0.2080
 2560SOL    HW1 8490   2.731   6.485   1.660 -0.3414  0.4790 -1.1244
 2560SOL    HW2 8491   2.590   6.470   1.714  0.4530 -1.1914  0.6178
 2561SOL     OW 8492   1.936   5.617   2.416  0.1916 -0.8490  0.2259
 2561SOL    HW1 8493   1.879   5.542   2.397 -3.0276  1.4485  0.0157
 2561SOL    HW2 8494   1.949   5.660   2.331 -1.1710  0.8402  0.8186
 2562SOL     OW 8495   1.273   0.434   0.348 -0.5140 -0.7314  0.3268
 2562SOL    HW1 8496   1.179   0.421   0.362 -0.5921  0.8009  1.5271
 2562SOL    HW2 8497   1.306   0.463   0.433  0.9098 -0.4972 -0.2716
 2563SOL     OW 8498   7.763   2.528   7.062 -0.0798 -0.0226 -0.6490
 2563SOL    HW1 8499   7.699   2.558   6.997 -0.1064 -0.2692 -0.7371
 2563SOL    HW2 8500   7.711   2.485   7.130 -0.1278  0.9778 -0.0391
 2564SOL     OW 8501   4.260   1.842   1.553  0.3647 -0.3004 -0.3026
 2564SOL    HW1 8502   4.179   1.845   1.605 -0.0661 -1.3120 -0.8842
 2564SOL    HW2 8503   4.237   1.792   1.475  1.2843  0.3091 -0.9818
 2565SOL     OW 8504   1.909   0.330   7.031 -0.2121  0.1825  0.0579
 2565SOL    HW1 8505   1.931   0.363   6.944 -1.7944  1.3787  0.0593
 2565SOL    HW2 8506   1.886   0.238   7.017  0.0016  0.2427 -0.7149
 2566SOL     OW 8507   1.458   3.161   3.101  0.2780 -0.3823 -0.1515
 2566SOL    HW1 8508   1.503   3.191   3.180  1.2461  1.9826 -1.5012
 2566SOL    HW2 8509   1.523   3.109   3.054  1.4027  2.1149 -1.5634
 2567SOL     OW 8510   4.586   1.529   4.612  0.5745 -0.2757 -0.1766
 2567SOL    HW1 8511   4.518   1.472   4.649  2.4916 -1.0513  2.4636
 2567SOL    HW2 8512   4.630   1.475   4.546  0.4672 -0.8023  0.1763
 2568SOL     OW 8513   4.889   7.103   2.772 -0.3679  0.0227  0.0407
 2568SOL    HW1 8514   4.906   7.190   2.808  0.1047 -0.4560  1.0159
 2568SOL    HW2 8515   4.895   7.114   2.677 -1.7817  1.3579  0.0653
 2569SOL     OW 8516   7.575   4.640   7.401  0.5501 -0.3421 -0.7212
 2569SOL    HW1 8517   7.563   4.573   7.335 -1.7327  1.0948 -1.8903
 2569SOL    HW2 8518   7.567   4.594   7.485  0.6554 -1.7544 -1.4690
 2570SOL     OW 8519   3.139   3.664   2.527  0.3607 -0.2345  0.5246
 2570SOL    HW1 8520   3.070   3.721   2.561 -0.3132 -0.7541  0.0603
 2570SOL    HW2 8521   3.179   3.625   2.605  1.1139  1.1725  0.8689
 2571SOL     OW 8522   3.759   2.547   2.612 -0.1894  0.3163  0.1774
 2571SOL    HW1 8523   3.824   2.617   2.604 -1.0356  1.0036 -0.9688
 2571SOL    HW2 8524   3.769   2.515   2.702  1.8035  0.3065  0.0019
 2572SOL     OW 8525   4.180   4.907   7.460  0.4346 -0.0973  0.1248
 2572SOL    HW1 8526   4.093   4.873   7.443  0.2777 -0.1860  1.0486
 2572SOL    HW2 8527   4.223   4.907   7.375 -0.8200  0.9556 -0.5431
 2573SOL     OW 8528   7.382   7.421   3.923  0.0022  0.6725 -0.2897
 2573SOL    HW1 8529   7.401   7.348   3.983 -1.0103  0.8551  0.2847
 2573SOL    HW2 8530   7.456   7.480   3.933  1.3790 -0.7486 -1.5610
 2574SOL     OW 8531   7.406   6.000   2.773 -0.1842  0.5340  0.5037
 2574SOL    HW1 8532   7.472   6.012   2.842  0.5481  1.6524 -0.3424
 2574SOL    HW2 8533   7.412   6.080   2.721 -0.2940 -0.5291 -1.2099
 2575SOL     OW 8534   3.570   5.548   5.507 -0.3182  0.3635 -0.2615
 2575SOL    HW1 8535   3.486   5.501   5.497 -0.6033  0.5849  0.9673
 2575SOL    HW2 8536   3.571   5.610   5.434 -0.8280 -0.2292 -0.7866
 2576SOL     OW 8537   5.420   2.621   0.642 -0.3780 -0.4643  0.0808
 2576SOL    HW1 8538   5.498   2.625   0.698 -1.0330 -2.3564  1.2021
 2576SOL    HW2 8539   5.388   2.531   0.650 -1.5314 -0.3059 -1.9767
 2577SOL     OW 8540   6.556   0.032   6.221 -0.1488 -0.3934 -0.3566
 2577SOL    HW1 8541   6.643   0.035   6.259 -0.8247 -0.8545  1.3190
 2577SOL    HW2 8542   6.538  -0.061   6.207 -0.0973 -0.2617 -1.4181
 2578SOL     OW 8543   6.745   2.872   0.858  0.4096 -0.0387  0.0517
 2578SOL    HW1 8544   6.833   2.835   0.864  1.1434  1.3857 -1.2150
 2578SOL    HW2 8545   6.743   2.917   0.774  0.4467  4.7474  2.2703
 2579SOL     OW 8546   5.531   6.049   2.650 -0.2769  0.3223  0.0472
 2579SOL    HW1 8547   5.551   6.032   2.742 -1.3554 -4.3072 -0.3307
 2579SOL    HW2 8548   5.485   6.133   2.650  0.5806  0.9216  3.5438
 2580SOL     OW 8549   1.761   3.869   6.495 -0.8914  0.3470 -0.3181
 2580SOL    HW1 8550   1.726   3.780   6.485 -0.0478  0.1779 -2.3950
 2580SOL    HW2 8551   1.738   3.895   6.584 -0.8316 -2.0952  0.4718
 2581SOL     OW 8552   5.180   6.028   2.364 -0.2881  0.0663  0.2461
 2581SOL    HW1 8553   5.226   5.952   2.400  1.4598  1.2670  0.7191
 2581SOL    HW2 8554   5.162   6.083   2.441  1.0706  1.4135 -0.3297
 2582SOL     OW 8555   0.631   5.224   4.983 -0.0114 -0.2130  0.9774
 2582SOL    HW1 8556   0.649   5.231   4.889 -1.9986 -0.3540  0.5489
 2582SOL    HW2 8557   0.663   5.307   5.019 -1.0756  0.7394 -0.1677
 2583SOL     OW 8558   4.281   4.082   1.839  0.4641  0.2123  0.0109
 2583SOL    HW1 8559   4.315   4.075   1.749  0.8475  0.6745  0.1181
 2583SOL    HW2 8560   4.347   4.038   1.893  0.1680 -0.1832  0.0563
 2584SOL     OW 8561   4.059   1.310   7.306  0.1602 -0.1351  0.0841
 2584SOL    HW1 8562   4.121   1.341   7.240 -0.8681  0.7984 -0.4692
 2584SOL    HW2 8563   4.009   1.387   7.331 -0.3168 -0.7308  1.0484
 2585SOL     OW 8564   4.942   4.837   5.016  0.1991 -0.2698 -0.1695
 2585SOL    HW1 8565   4.955   4.754   4.971  1.2062  0.7725 -1.9306
 2585SOL    HW2 8566   4.893   4.890   4.953  1.4853  1.1773 -0.0062
 2586SOL     OW 8567   0.407   1.595   6.325 -0.3909 -0.0244  0.3301
 2586SOL    HW1 8568   0.311   1.597   6.325 -0.4033  1.4344 -1.6367
 2586SOL    HW2 8569   0.428   1.507   6.356 -2.4790 -1.6481 -2.3499
 2587SOL     OW 8570   3.158   1.035   3.591  0.4163  0.0941  0.1395
 2587SOL    HW1 8571   3.217   0.962   3.610 -0.0064 -0.7466 -1.6201
 2587SOL    HW2 8572   3.189   1.070   3.508  0.3139  1.6457  0.7284
 2588SOL     OW 8573   1.087   3.538   1.858 -0.5347 -0.5784  0.1107
 2588SOL    HW1 8574   1.169   3.579   1.882 -0.3955  0.1399 -1.4514
 2588SOL    HW2 8575   1.105   3.444   1.861  0.5216 -0.4158 -0.7581
 2589SOL     OW 8576   6.848   5.640   0.866 -0.3631 -0.5222  0.5311
 2589SOL    HW1 8577   6.837   5.725   0.909  1.8113  0.5400 -0.8317
 2589SOL    HW2 8578   6.770   5.630   0.812  0.0199  1.3932 -0.4555
 2590SOL     OW 8579   2.960   2.127   1.658 -0.7951  0.4468  0.4208
 2590SOL    HW1 8580   2.969   2.196   1.592  1.0409  1.2313  1.4044
 2590SOL    HW2 8581   2.866   2.116   1.669 -1.2300 -0.3865 -2.9475
 2591SOL     OW 8582   1.791   0.284   0.295  0.1817  0.0381 -0.4605
 2591SOL    HW1 8583   1.738   0.323   0.226 -0.9868 -0.9676 -0.1588
 2591SOL    HW2 8584   1.729   0.267   0.366  1.2420  0.4529  0.5979
 2592SOL     OW 8585   3.921   0.449   5.274 -0.2787 -0.1298 -0.0557
 2592SOL    HW1 8586   3.958   0.536   5.260  1.3131 -0.6917  0.4846
 2592SOL    HW2 8587   3.843   0.447   5.218  1.9907  0.0877 -3.5090
 2593SOL     OW 8588   0.089   4.684   2.541  0.2138 -0.8991  0.0367
 2593SOL    HW1 8589   0.103   4.636   2.622  0.4521 -0.9435 -0.0284
 2593SOL    HW2 8590   0.146   4.761   2.548  1.3307 -1.6146 -0.6787
 2594SOL     OW 8591   5.304   4.325   4.491 -0.0841 -0.5149  0.3452
 2594SOL    HW1 8592   5.362   4.304   4.418 -0.6811  1.0371 -0.6184
 2594SOL    HW2 8593   5.358   4.313   4.569  1.4554  0.5777 -0.5115
 2595SOL     OW 8594   0.144   0.554   5.197  0.5254 -0.2180  0.1643
 2595SOL    HW1 8595   0.121   0.466   5.165 -2.7567  0.5084  0.2562
 2595SOL    HW2 8596   0.128   0.550   5.291 -1.4566  0.9044 -0.0675
 2596SOL     OW 8597   7.895   5.815   3.454  0.0417  0.0668  0.5780
 2596SOL    HW1 8598   7.821   5.833   3.512 -0.3584 -0.7129  0.3261
 2596SOL    HW2 8599   7.928   5.902   3.430 -1.2946  0.4591  0.0581
 2597SOL     OW 8600   2.377   2.593   7.969 -0.0128  0.6394 -0.4838
 2597SOL    HW1 8601   2.303   2.655   7.976 -1.5189 -1.1447  0.2095
 2597SOL    HW2 8602   2.353   2.536   7.896  1.2680  0.7063 -0.9838
 2598SOL     OW 8603   1.238   6.921   0.266  0.1349  0.0152  0.2527
 2598SOL    HW1 8604   1.157   6.892   0.309  0.1764 -0.7174 -0.1544
 2598SOL    HW2 8605   1.301   6.928   0.338  0.0639 -0.6982  0.3919
 2599SOL     OW 8606   0.479   0.676   0.833  0.1794  0.3194 -0.2853
 2599SOL    HW1 8607   0.532   0.747   0.796  1.1569 -0.1839  0.0882
 2599SOL    HW2 8608   0.431   0.718   0.904 -1.1385  1.1223 -1.6027
 2600SOL     OW 8609   6.115   5.794   7.213 -0.0294 -0.3284  0.2605
 2600SOL    HW1 8610   6.190   5.821   7.159 -0.9338  0.1555 -0.8031
 2600SOL    HW2 8611   6.082   5.876   7.251  0.0076 -0.5449  0.7618
 2601SOL     OW 8612   2.474   4.124   7.058  0.6492 -0.3330 -0.5559
 2601SOL    HW1 8613   2.489   4.109   6.964  1.0871  0.4843 -0.6234
 2601SOL    HW2 8614   2.430   4.045   7.088 -1.2420  0.1533 -1.8527
 2602SOL     OW 8615   6.956   5.414   4.607 -0.4265 -0.4419 -0.5470
 2602SOL    HW1 8616   6.984   5.399   4.698  2.2349 -1.2196 -1.3917
 2602SOL    HW2 8617   7.019   5.478   4.573 -1.0597 -0.5555 -2.0076
 2603SOL     OW 8618   3.682   1.915   3.272  0.0319  0.2638  0.2193
 2603SOL    HW1 8619   3.727   1.922   3.357  1.5083  0.4876 -0.5492
 2603SOL    HW2 8620   3.650   2.003   3.256  1.4554  0.7140 -0.3263
 2604SOL     OW 8621   7.973   7.783   0.607 -0.5640  0.2663  0.2539
 2604SOL    HW1 8622   7.891   7.804   0.652 -1.0740 -0.9816 -0.0411
 2604SOL    HW2 8623   7.968   7.830   0.523 -0.3481  1.2773  0.7892
 2605SOL     OW 8624   5.841   2.486   7.380 -0.0557 -0.2827 -0.2707
 2605SOL    HW1 8625   5.837   2.413   7.319 -1.0671  0.3499 -0.9888
 2605SOL    HW2 8626   5.935   2.499   7.397  0.1795 -1.0435 -0.9679
 2606SOL     OW 8627   3.872   4.262   7.155 -0.0980  0.3782  0.4508
 2606SOL    HW1 8628   3.954   4.226   7.190 -0.0723  1.3667  1.4763
 2606SOL    HW2 8629   3.895   4.349   7.124 -0.6007  0.3517 -0.0165
 2607SOL     OW 8630   6.603   2.381   0.790 -0.0050  1.0349  0.3600
 2607SOL    HW1 8631   6.660   2.380   0.867  1.9055  5.2195 -0.7018
 2607SOL    HW2 8632   6.561   2.467   0.793 -0.4476  1.0323 -2.8512
 2608SOL     OW 8633   6.836   4.636   5.091 -0.0954  0.1967  0.1644
 2608SOL    HW1 8634   6.930   4.654   5.089 -0.2171  1.2399  1.7212
 2608SOL    HW2 8635   6.800   4.686   5.018  0.3853  1.0625  0.5115
 2609SOL     OW 8636   7.674   1.826   1.195 -0.3622 -0.0728 -0.2178
 2609SOL    HW1 8637   7.770   1.823   1.190 -0.2564  0.0144  1.3525
 2609SOL    HW2 8638   7.651   1.910   1.155  0.4462  1.1327  1.7354
 2610SOL     OW 8639   1.535   7.466   5.932 -0.0858 -0.0981  0.7822
 2610SOL    HW1 8640   1.518   7.372   5.943 -0.2579 -0.1645  0.0135
 2610SOL    HW2 8641   1.625   7.478   5.961  1.0841 -1.0966 -2.1035
 2611SOL     OW 8642   2.140   1.418   6.836  0.6057  0.2497 -0.3700
 2611SOL    HW1 8643   2.166   1.327   6.819  2.8401  1.1065 -2.0561
 2611SOL    HW2 8644   2.120   1.420   6.930  2.4589 -1.5700  0.1488
 2612SOL     OW 8645   0.810   6.691   7.967  0.1412  0.1548 -0.5859
 2612SOL    HW1 8646   0.716   6.683   7.981  0.0238  0.1170 -1.3799
 2612SOL    HW2 8647   0.819   6.720   7.876  0.8908  0.3115 -0.4722
 2613SOL     OW 8648   1.994   7.043   5.821  0.5955  0.4356 -0.6453
 2613SOL    HW1 8649   2.039   6.999   5.749 -1.0431 -0.9253 -0.8820
 2613SOL    HW2 8650   2.023   6.996   5.899 -0.9554 -0.9714 -0.8737
 2614SOL     OW 8651   0.846   0.559   2.849 -0.0187 -0.1712 -0.1655
 2614SOL    HW1 8652   0.825   0.635   2.904  0.2071 -0.1903 -0.0513
 2614SOL    HW2 8653   0.781   0.562   2.779 -0.8002 -0.5914  0.5218
 2615SOL     OW 8654   2.373   7.326   1.464 -0.7885 -0.1160 -0.0983
 2615SOL    HW1 8655   2.356   7.260   1.397  1.9271 -2.5135  1.3331
 2615SOL    HW2 8656   2.409   7.276   1.538 -1.5044  2.6620  2.3132
 2616SOL     OW 8657   5.344   5.399   6.063 -0.3193  0.5332 -0.5290
 2616SOL    HW1 8658   5.250   5.381   6.070 -0.4789  1.6742  0.8311
 2616SOL    HW2 8659   5.366   5.380   5.972 -1.8784  0.2711 -0.8759
 2617SOL     OW 8660   5.542   6.864   2.855  0.3819  0.9910 -0.8341
 2617SOL    HW1 8661   5.450   6.888   2.861 -0.1897 -1.2513  0.5173
 2617SOL    HW2 8662   5.588   6.947   2.846 -1.6249  2.3400  0.5922
 2618SOL     OW 8663   6.500   4.139   7.335  0.1808  0.2206  0.2517
 2618SOL    HW1 8664   6.441   4.212   7.353 -0.6424  0.1011 -1.6805
 2618SOL    HW2 8665   6.566   4.175   7.276  0.3687 -0.3300  0.1139
 2619SOL     OW 8666   6.414   4.258   5.848  0.5888  0.3042 -0.5551
 2619SOL    HW1 8667   6.331   4.223   5.815 -0.2051  1.2302  0.4056
 2619SOL    HW2 8668   6.476   4.242   5.777 -0.5964  0.3676 -1.6412
 2620SOL     OW 8669   3.633   5.879   2.220  0.7593 -0.1599 -0.0052
 2620SOL    HW1 8670   3.710   5.933   2.240  1.4216 -1.0870  0.0282
 2620SOL    HW2 8671   3.619   5.827   2.299 -0.0295  0.1368  0.0570
 2621SOL     OW 8672   6.999   1.230   5.980 -0.1120  0.5047 -0.2260
 2621SOL    HW1 8673   6.972   1.321   5.969  0.7653  1.2734  2.8904
 2621SOL    HW2 8674   7.094   1.231   5.966 -0.0543  0.1360  0.1266
 2622SOL     OW 8675   2.404   1.825   1.378 -0.1508  0.2204 -0.4951
 2622SOL    HW1 8676   2.492   1.796   1.404 -0.1500  0.0837 -0.6463
 2622SOL    HW2 8677   2.395   1.794   1.288 -0.9208 -1.0652  0.0032
 2623SOL     OW 8678   2.049   5.771   6.210 -0.3142 -0.6792  0.5490
 2623SOL    HW1 8679   1.958   5.802   6.217 -0.0382 -0.0031  1.3917
 2623SOL    HW2 8680   2.041   5.676   6.207 -1.0595 -0.6268  0.4511
 2624SOL     OW 8681   5.716   5.167   7.927  0.2183 -0.3744 -0.4458
 2624SOL    HW1 8682   5.690   5.146   7.837 -2.0707  4.9337 -1.4120
 2624SOL    HW2 8683   5.794   5.221   7.918  0.2214 -0.1439  0.8022
 2625SOL     OW 8684   5.526   4.896   7.295  0.1061  0.0025  0.3635
 2625SOL    HW1 8685   5.435   4.885   7.323 -0.6389 -0.0088 -1.8989
 2625SOL    HW2 8686   5.526   4.980   7.248  1.4460  0.3521  0.9514
 2626SOL     OW 8687   4.407   7.314   0.956 -0.2579 -0.0364 -0.4030
 2626SOL    HW1 8688   4.361   7.287   1.035 -1.6215  0.9143 -0.8356
 2626SOL    HW2 8689   4.364   7.267   0.885 -0.7771  1.0316 -0.8350
 2627SOL     OW 8690   1.944   6.680   4.469 -0.0302 -0.2903  0.3880
 2627SOL    HW1 8691   2.036   6.667   4.447 -0.1317 -0.8277  0.2555
 2627SOL    HW2 8692   1.933   6.775   4.473 -0.2885 -0.0130 -3.2156
 2628SOL     OW 8693   4.334   5.527   5.466 -0.6395  0.0652  0.2753
 2628SOL    HW1 8694   4.244   5.500   5.449 -1.2181  2.3578 -0.7955
 2628SOL    HW2 8695   4.333   5.557   5.557 -0.4386 -1.6518  0.8750
 2629SOL     OW 8696   7.092   6.917   3.420  0.0057 -0.1017  0.0840
 2629SOL    HW1 8697   6.999   6.900   3.403 -0.4108  0.1217  1.9187
 2629SOL    HW2 8698   7.094   7.007   3.452  0.5684 -0.7342  1.9440
 2630SOL     OW 8699   2.005   3.096   2.254  0.3179 -0.1279 -0.1196
 2630SOL    HW1 8700   1.943   3.030   2.225  1.0609 -0.8333 -0.1470
 2630SOL    HW2 8701   1.957   3.147   2.320 -1.0165  0.7945 -1.7318
 2631SOL     OW 8702   4.905   7.967   1.997 -0.4902 -0.4875  0.2924
 2631SOL    HW1 8703   4.941   7.886   2.033  0.4279  0.0622  0.6573
 2631SOL    HW2 8704   4.952   7.980   1.915  2.2145  1.5934  1.9773
 2632SOL     OW 8705   0.126   4.538   2.759 -0.3288 -0.0130 -0.4002
 2632SOL    HW1 8706   0.220   4.526   2.774 -0.4367  0.7278  1.0595
 2632SOL    HW2 8707   0.094   4.451   2.735  0.5143 -0.5639  0.3855
 2633SOL     OW 8708   5.219   6.471   3.583 -0.3086 -0.1431  0.4081
 2633SOL    HW1 8709   5.129   6.500   3.575  0.8189  3.8640  0.3519
 2633SOL    HW2 8710   5.243   6.492   3.673  0.9735  0.2412 -0.0005
 2634SOL     OW 8711   2.956   4.291   4.152  0.0763  0.2474 -0.0898
 2634SOL    HW1 8712   3.044   4.255   4.156 -0.0748  0.0248  1.8474
 2634SOL    HW2 8713   2.898   4.215   4.157 -0.2879  0.3059 -2.2871
 2635SOL     OW 8714   5.028   2.550   4.999  0.0229  0.6101  0.2182
 2635SOL    HW1 8715   5.036   2.457   4.979  0.9960  0.6040  0.5587
 2635SOL    HW2 8716   4.947   2.558   5.049  0.0010 -0.0709  0.2968
 2636SOL     OW 8717   2.137   4.720   3.211 -0.5613 -0.2067  0.1831
 2636SOL    HW1 8718   2.135   4.626   3.224 -1.4425 -0.3981 -1.1649
 2636SOL    HW2 8719   2.224   4.747   3.242  0.5603 -1.7860 -1.4110
 2637SOL     OW 8720   1.384   6.032   1.066  0.1226 -0.3099  0.1448
 2637SOL    HW1 8721   1.435   6.110   1.089  2.1716 -1.8735  1.2827
 2637SOL    HW2 8722   1.328   6.016   1.143  1.2920 -1.1271  0.8662
 2638SOL     OW 8723   2.992   6.834   2.549  0.0828 -0.6459 -0.8252
 2638SOL    HW1 8724   2.946   6.786   2.618  0.5217 -1.9177 -1.3888
 2638SOL    HW2 8725   2.952   6.921   2.550 -1.0617 -1.1510 -0.0909
 2639SOL     OW 8726   0.019   6.278   7.285 -0.1744 -0.4340  0.1942
 2639SOL    HW1 8727   0.036   6.371   7.267 -2.2506 -0.3868 -2.2009
 2639SOL    HW2 8728  -0.020   6.246   7.204  0.7279 -3.5104  0.8790
 2640SOL     OW 8729   5.993   3.513   6.142 -0.5000  0.5407  0.1920
 2640SOL    HW1 8730   6.062   3.574   6.116  0.1282 -0.3645 -0.3255
 2640SOL    HW2 8731   5.998   3.510   6.237 -0.9829  1.7783  0.2837
 2641SOL     OW 8732   5.049   2.212   0.005  0.6311 -0.1049  0.3118
 2641SOL    HW1 8733   5.087   2.218   0.093 -3.3834  1.7377  2.1586
 2641SOL    HW2 8734   5.084   2.289  -0.041 -0.4652  1.3650  1.8260
 2642SOL     OW 8735   1.735   1.841   1.013  0.2534 -0.5485 -0.5722
 2642SOL    HW1 8736   1.806   1.787   1.048  1.4865 -0.5957 -2.9606
 2642SOL    HW2 8737   1.694   1.786   0.945 -1.4707 -0.1414  0.0752
 2643SOL     OW 8738   2.072   1.706   1.009  1.1905 -0.4307 -0.3965
 2643SOL    HW1 8739   2.079   1.718   1.104  1.9912 -0.0993 -0.4974
 2643SOL    HW2 8740   2.092   1.791   0.972  0.5301 -0.4686 -0.8611
 2644SOL     OW 8741   6.793   2.846   4.770  0.0201 -0.0403 -0.1342
 2644SOL    HW1 8742   6.730   2.818   4.703  2.8664 -0.5095 -2.8672
 2644SOL    HW2 8743   6.836   2.764   4.796  0.8807  0.4887  0.1222
 2645SOL     OW 8744   7.416   0.120   3.450  0.5243  0.1113  0.1063
 2645SOL    HW1 8745   7.451   0.094   3.536 -1.5817  0.7822  1.2404
 2645SOL    HW2 8746   7.358   0.048   3.425  1.4659 -0.2904 -1.0127
 2646SOL     OW 8747   2.741   1.355   4.687  0.3138 -0.3536  0.1303
 2646SOL    HW1 8748   2.665   1.301   4.709  0.6862 -1.8595 -1.9551
 2646SOL    HW2 8749   2.805   1.337   4.755  0.0794 -1.8822 -0.0288
 2647SOL     OW 8750   3.823   4.811   1.386  0.5791 -0.1810  0.0037
 2647SOL    HW1 8751   3.793   4.773   1.304 -0.1331 -0.3403  0.3244
 2647SOL    HW2 8752   3.827   4.737   1.447  0.3584  0.0515  0.3073
 2648SOL     OW 8753   7.027   2.340   5.979 -0.0343  0.1507  0.2983
 2648SOL    HW1 8754   7.062   2.273   6.038 -0.9134 -0.4646  0.1331
 2648SOL    HW2 8755   7.063   2.422   6.014  2.6378 -0.5139 -0.6200
 2649SOL     OW 8756   3.068   0.339   2.281  1.0505  0.6592 -0.5506
 2649SOL    HW1 8757   3.039   0.412   2.335 -0.8169  1.4519 -2.5014
 2649SOL    HW2 8758   2.988   0.303   2.244  1.9857 -2.0350 -0.1398
 2650SOL     OW 8759   4.956   1.456   4.491 -0.0072 -0.1448 -0.2469
 2650SOL    HW1 8760   4.926   1.516   4.423  0.6962  0.1326 -0.3131
 2650SOL    HW2 8761   4.918   1.372   4.466 -1.7398  0.4147  0.3161
 2651SOL     OW 8762   7.779   3.256   0.882 -0.1432  0.1715  0.1358
 2651SOL    HW1 8763   7.794   3.223   0.794  2.2000  0.9663  0.1802
 2651SOL    HW2 8764   7.826   3.195   0.939  2.7094  2.3547  0.3518
 2652SOL     OW 8765   0.930   6.202   4.105  0.2322  0.5483  0.2100
 2652SOL    HW1 8766   0.937   6.280   4.050 -0.2696 -0.3996 -1.2727
 2652SOL    HW2 8767   1.009   6.152   4.086  0.5422  0.6688  1.1371
 2653SOL     OW 8768   5.558   5.585   3.057  0.3940 -0.1736  0.2550
 2653SOL    HW1 8769   5.562   5.674   3.092  1.2235 -0.3318  0.5885
 2653SOL    HW2 8770   5.642   5.573   3.012  0.5422 -0.9962  0.7306
 2654SOL     OW 8771   3.375   7.525   0.143  0.4035 -0.7244 -0.1150
 2654SOL    HW1 8772   3.406   7.546   0.231 -0.5164 -0.7413  0.2230
 2654SOL    HW2 8773   3.396   7.602   0.090 -0.1091 -0.2267  0.3948
 2655SOL     OW 8774   5.532   7.819   7.818 -0.4399  0.3090 -0.0265
 2655SOL    HW1 8775   5.462   7.781   7.763  1.1276 -1.6928 -0.7628
 2655SOL    HW2 8776   5.564   7.893   7.767 -1.7949  1.1070  0.2058
 2656SOL     OW 8777   3.827   3.472   2.791 -0.0246  0.1414 -0.9394
 2656SOL    HW1 8778   3.857   3.528   2.863  1.4800 -0.3610 -1.1305
 2656SOL    HW2 8779   3.737   3.500   2.775 -0.4590  0.1840  1.2024
 2657SOL     OW 8780   3.592   0.967   7.478  0.5500  0.2621  0.2053
 2657SOL    HW1 8781   3.655   1.017   7.529  0.8386  0.5693 -0.4444
 2657SOL    HW2 8782   3.606   0.994   7.388  0.8502 -1.1413 -0.1943
 2658SOL     OW 8783   1.238   1.440   2.036 -0.3563  0.0038 -0.2313
 2658SOL    HW1 8784   1.300   1.491   2.089  0.5746  0.5421 -1.7616
 2658SOL    HW2 8785   1.270   1.350   2.042  0.1797  0.1718 -0.4360
 2659SOL     OW 8786   4.484   6.882   7.258 -0.0456  0.0844  0.1744
 2659SOL    HW1 8787   4.497   6.847   7.169  0.3353 -2.1666  1.0571
 2659SOL    HW2 8788   4.573   6.903   7.288 -0.1281  0.3761  0.2204
 2660SOL     OW 8789   1.284   4.389   4.780  0.5754  0.1911 -0.1460
 2660SOL    HW1 8790   1.364   4.388   4.727 -0.3306  0.1870 -1.5464
 2660SOL    HW2 8791   1.238   4.468   4.753 -0.6500 -0.6186 -0.5145
 2661SOL     OW 8792   3.681   2.093   3.946  0.4485 -0.1167 -0.2370
 2661SOL    HW1 8793   3.730   2.108   4.026 -1.6075 -3.0273  1.7910
 2661SOL    HW2 8794   3.593   2.123   3.966 -0.4511 -2.2106 -0.7907
 2662SOL     OW 8795   0.076   4.737   0.974 -0.3841 -0.2816  0.0664
 2662SOL    HW1 8796   0.097   4.676   1.045  0.9214  0.6525  0.5132
 2662SOL    HW2 8797   0.015   4.800   1.013 -1.0262 -0.7475 -0.1505
 2663SOL     OW 8798   0.848   3.186   2.545  0.3704  0.5383 -0.6894
 2663SOL    HW1 8799   0.843   3.251   2.615 -0.6451 -0.1674 -0.0885
 2663SOL    HW2 8800   0.890   3.110   2.586 -0.0548  0.1903 -0.8970
 2664SOL     OW 8801   0.027   0.355   4.351  0.3824  0.0990  0.0385
 2664SOL    HW1 8802  -0.053   0.338   4.401  1.2786 -1.4313  1.0426
 2664SOL    HW2 8803   0.057   0.440   4.382  0.3722 -0.3676  1.4335
 2665SOL     OW 8804   2.250   2.153   5.552 -0.4877  0.2091  0.0294
 2665SOL    HW1 8805   2.268   2.187   5.639  0.0438 -0.2015  0.0862
 2665SOL    HW2 8806   2.280   2.222   5.493 -0.3282  0.2500  0.1585
 2666SOL     OW 8807   1.053   2.258   3.162  0.4650  0.2320  0.1310
 2666SOL    HW1 8808   1.114   2.332   3.165  0.4549  0.3630 -1.8187
 2666SOL    HW2 8809   1.097   2.193   3.108 -1.1557  0.4011 -1.4793
 2667SOL     OW 8810   1.711   6.406   7.351 -0.2935 -0.1732  0.0572
 2667SOL    HW1 8811   1.792   6.424   7.399 -0.8270 -0.0600  0.9305
 2667SOL    HW2 8812   1.683   6.492   7.320 -0.6725 -0.0486  0.7274
 2668SOL     OW 8813   0.501   6.986   2.115 -0.2975  0.4832 -0.5921
 2668SOL    HW1 8814   0.465   7.070   2.085  0.3633  0.5061 -1.3695
 2668SOL    HW2 8815   0.543   7.007   2.199  0.7307  1.1708 -1.2545
 2669SOL     OW 8816   5.292   4.786   4.583  0.2560 -0.4922  0.6454
 2669SOL    HW1 8817   5.272   4.802   4.490 -1.5257  1.2080  1.2463
 2669SOL    HW2 8818   5.225   4.725   4.612  0.4914 -0.6167  0.9306
 2670SOL     OW 8819   1.168   3.218   7.431 -0.0001  0.3419  0.8594
 2670SOL    HW1 8820   1.235   3.265   7.482 -0.3974  0.8425  0.9311
 2670SOL    HW2 8821   1.095   3.280   7.426 -0.7286 -0.4591  1.3698
 2671SOL     OW 8822   2.742   1.947   6.788 -0.1102  0.5127 -0.0648
 2671SOL    HW1 8823   2.776   2.029   6.750 -1.3347  0.3878 -1.5242
 2671SOL    HW2 8824   2.657   1.935   6.746 -0.5494 -0.8148  1.1492
 2672SOL     OW 8825   1.934   1.521   5.665 -0.2370 -0.2850 -0.1557
 2672SOL    HW1 8826   1.939   1.609   5.702 -1.3305 -0.0386 -0.5521
 2672SOL    HW2 8827   1.974   1.529   5.578  1.3501 -0.6218  0.5057
 2673SOL     OW 8828   1.196   1.765   7.826  0.0854  0.4693  0.2302
 2673SOL    HW1 8829   1.206   1.676   7.858 -0.6343  0.1441 -0.4139
 2673SOL    HW2 8830   1.272   1.812   7.861 -0.1849 -0.0742  1.6217
 2674SOL     OW 8831   5.032   0.818   1.469  0.0302  0.1999  0.2605
 2674SOL    HW1 8832   4.973   0.781   1.534 -1.4199  2.4651  0.3182
 2674SOL    HW2 8833   5.020   0.913   1.476  0.8745  0.5785 -2.3412
 2675SOL     OW 8834   0.565   0.905   2.928 -1.1830 -0.0400 -0.5223
 2675SOL    HW1 8835   0.542   0.827   2.877 -1.3737  0.2622 -0.9040
 2675SOL    HW2 8836   0.648   0.935   2.890 -2.1921  1.2011 -1.8544
 2676SOL     OW 8837   6.088   0.508   0.631 -0.1828  0.1259 -0.6053
 2676SOL    HW1 8838   6.161   0.560   0.663  0.5687 -0.8121 -0.7400
 2676SOL    HW2 8839   6.016   0.570   0.623  0.6626  1.1234 -0.7177
 2677SOL     OW 8840   6.180   1.476   0.575 -0.3950 -0.2070  0.3167
 2677SOL    HW1 8841   6.151   1.398   0.527  0.7387 -0.1745 -0.4582
 2677SOL    HW2 8842   6.266   1.495   0.539  0.0044  0.4966  1.5920
 2678SOL     OW 8843   3.874   5.226   3.190  0.0991  0.0037 -0.1353
 2678SOL    HW1 8844   3.911   5.157   3.134 -1.3616 -1.0675  0.1616
 2678SOL    HW2 8845   3.848   5.294   3.129 -0.1045 -0.4994 -0.6192
 2679SOL     OW 8846   4.431   1.407   5.683  0.0847  0.1974  0.2717
 2679SOL    HW1 8847   4.372   1.405   5.759 -1.0421  0.7226 -0.5569
 2679SOL    HW2 8848   4.373   1.394   5.608  1.2193 -0.6449 -0.4913
 2680SOL     OW 8849   1.950   4.207   0.884  0.0691  0.8004 -0.3802
 2680SOL    HW1 8850   1.901   4.196   0.965 -0.0667  1.6436 -0.3416
 2680SOL    HW2 8851   1.887   4.188   0.815 -0.1813  1.4015 -0.3194
 2681SOL     OW 8852   3.178   1.281   7.771  0.1295  0.1957 -0.3075
 2681SOL    HW1 8853   3.193   1.187   7.766  0.3543  0.2058  0.1019
 2681SOL    HW2 8854   3.266   1.320   7.768  0.3939  0.2012  3.2018
 2682SOL     OW 8855   0.685   2.897   4.158  0.0115  0.1908 -0.1201
 2682SOL    HW1 8856   0.760   2.895   4.218 -1.1673 -1.7040  1.3872
 2682SOL    HW2 8857   0.677   2.807   4.126 -1.9461  0.2053  0.1976
 2683SOL     OW 8858   3.957   6.348   2.795 -0.1820  0.1664  0.1938
 2683SOL    HW1 8859   3.922   6.431   2.829 -1.5998  0.0112 -0.7895
 2683SOL    HW2 8860   4.012   6.315   2.866  1.6409  2.6435  0.0677
 2684SOL     OW 8861   1.685   0.623   2.631  0.0799 -0.2104 -0.3042
 2684SOL    HW1 8862   1.659   0.596   2.543  1.3074 -0.5240 -0.5884
 2684SOL    HW2 8863   1.733   0.705   2.617  1.9819 -1.2457 -0.1809
 2685SOL     OW 8864   7.221   0.965   2.369  0.4609 -0.3383 -0.2244
 2685SOL    HW1 8865   7.171   1.028   2.317 -1.8753  0.6372  2.8921
 2685SOL    HW2 8866   7.194   0.879   2.335 -1.2752  0.2526 -0.4207
 2686SOL     OW 8867   5.652   7.997   7.662  0.2658 -0.4003  0.0066
 2686SOL    HW1 8868   5.734   8.012   7.709  0.5456 -3.0385  0.5284
 2686SOL    HW2 8869   5.662   8.046   7.580  1.8410  0.3430  0.6054
 2687SOL     OW 8870   3.268   0.924   3.199 -0.1975 -0.4953  0.4270
 2687SOL    HW1 8871   3.324   0.942   3.123  1.0365 -1.4070  1.0880
 2687SOL    HW2 8872   3.185   0.896   3.161 -0.5874  1.8292 -0.5863
 2688SOL     OW 8873   3.716   0.279   5.811  0.5745 -0.2583 -0.2377
 2688SOL    HW1 8874   3.660   0.202   5.813 -0.6022  0.5393 -1.3804
 2688SOL    HW2 8875   3.663   0.347   5.770  1.4379  1.2996  1.1023
 2689SOL     OW 8876   7.042   2.087   6.150  0.3613  0.4866  0.7548
 2689SOL    HW1 8877   7.127   2.058   6.117  0.4804  2.3476 -0.7722
 2689SOL    HW2 8878   6.980   2.023   6.117  0.8423  0.7316 -0.7123
 2690SOL     OW 8879   6.696   0.776   5.860 -0.1619  0.5600  0.2824
 2690SOL    HW1 8880   6.681   0.682   5.874 -1.5820  0.1696 -2.9898
 2690SOL    HW2 8881   6.786   0.790   5.888 -0.1097 -1.6137  1.4584
 2691SOL     OW 8882   0.660   3.805   5.011  0.3960  0.2376 -0.2565
 2691SOL    HW1 8883   0.705   3.868   5.066  0.2230 -1.1735  1.5946
 2691SOL    HW2 8884   0.567   3.816   5.032  0.2161  0.4396 -1.1125
 2692SOL     OW 8885   6.175   3.580   2.781  0.0630 -0.6122  0.4391
 2692SOL    HW1 8886   6.239   3.638   2.823 -1.9526  0.8879  1.6329
 2692SOL    HW2 8887   6.091   3.622   2.797 -1.1353 -1.6656 -2.4265
 2693SOL     OW 8888   2.114   6.255   6.104  0.3120 -0.2719  0.1808
 2693SOL    HW1 8889   2.138   6.163   6.099 -1.7255 -0.9245  1.3064
 2693SOL    HW2 8890   2.044   6.266   6.039  1.3087  0.7941 -0.7663
 2694SOL     OW 8891   1.060   3.319   7.935 -0.0064  0.0800  0.4452
 2694SOL    HW1 8892   1.145   3.362   7.931  0.0936 -0.0542  1.1158
 2694SOL    HW2 8893   1.028   3.337   8.023  0.5535 -2.2173  1.1722
 2695SOL     OW 8894   1.128   4.510   6.623 -0.0411 -0.5764 -0.2567
 2695SOL    HW1 8895   1.086   4.555   6.696 -0.7297 -0.6591 -0.5943
 2695SOL    HW2 8896   1.071   4.435   6.605  0.5071 -0.9588 -0.4133
 2696SOL     OW 8897   6.016   5.911   6.396  0.1101  0.1226  0.0323
 2696SOL    HW1 8898   6.056   5.886   6.480  1.0542 -0.8113 -0.6598
 2696SOL    HW2 8899   6.066   5.987   6.367 -1.0657  1.2722  0.9009
 2697SOL     OW 8900   5.676   1.801   5.465 -0.3850 -0.0628  0.1411
 2697SOL    HW1 8901   5.624   1.819   5.386 -0.7596 -0.2489  0.3392
 2697SOL    HW2 8902   5.691   1.887   5.504  1.5671  0.2488 -1.2102
 2698SOL     OW 8903   4.280   3.126   7.802 -0.3750 -0.6958 -0.5210
 2698SOL    HW1 8904   4.217   3.075   7.853  0.1309 -1.8100 -0.9582
 2698SOL    HW2 8905   4.240   3.213   7.794 -0.4973 -0.4962  1.6783
 2699SOL     OW 8906   2.961   0.951   1.258 -0.3804 -0.3900  0.1288
 2699SOL    HW1 8907   2.939   1.044   1.264 -2.1420 -0.7580 -0.3229
 2699SOL    HW2 8908   2.928   0.914   1.340  1.2757 -0.4776  0.8070
 2700SOL     OW 8909   1.588   7.898   4.466 -0.0316 -0.4707  0.5586
 2700SOL    HW1 8910   1.522   7.858   4.524 -0.3871  0.2383  0.6514
 2700SOL    HW2 8911   1.550   7.891   4.379  0.3781 -1.2787  0.4297
 2701SOL     OW 8912   6.614   2.822   7.039  0.0370  0.1903  0.2493
 2701SOL    HW1 8913   6.684   2.846   6.979 -1.6680  0.9229 -1.5386
 2701SOL    HW2 8914   6.622   2.886   7.111  0.7902  0.6568 -0.2278
 2702SOL     OW 8915   3.136   0.441   6.831  0.1513  0.2675  0.3508
 2702SOL    HW1 8916   3.086   0.495   6.769  2.0836  1.7042 -0.0680
 2702SOL    HW2 8917   3.200   0.502   6.868  1.7850 -1.5428  0.6231
 2703SOL     OW 8918   6.737   0.949   1.858 -0.0831  0.3464 -0.0367
 2703SOL    HW1 8919   6.757   0.998   1.938 -0.8255  1.6597 -0.6331
 2703SOL    HW2 8920   6.646   0.920   1.871  0.0073  0.0118 -0.1399
 2704SOL     OW 8921   1.678   7.908   3.196 -0.0185  0.6065 -0.0216
 2704SOL    HW1 8922   1.645   7.851   3.127 -0.2145  0.5659  0.1052
 2704SOL    HW2 8923   1.754   7.861   3.231 -0.6051  0.0672  0.5683
 2705SOL     OW 8924   3.981   6.414   4.258 -0.0285 -0.0482  0.2476
 2705SOL    HW1 8925   4.052   6.408   4.194 -1.6774  1.4156 -1.8769
 2705SOL    HW2 8926   3.910   6.364   4.220 -1.3869  1.6546  0.3937
 2706SOL     OW 8927   1.819   6.137   5.069  0.3174  0.6583 -0.2795
 2706SOL    HW1 8928   1.826   6.229   5.044  0.2695  0.9366  0.6890
 2706SOL    HW2 8929   1.836   6.136   5.163 -1.7350 -0.0268  0.1501
 2707SOL     OW 8930   3.017   1.274   5.665  0.4234 -0.7447 -0.3770
 2707SOL    HW1 8931   2.949   1.209   5.682 -1.6928  1.1661 -1.0268
 2707SOL    HW2 8932   3.084   1.227   5.615 -0.6041 -2.6106 -0.0785
 2708SOL     OW 8933   1.632   3.755   6.257 -0.1490 -0.3016  0.1983
 2708SOL    HW1 8934   1.726   3.772   6.264  0.1331 -1.6381 -0.1234
 2708SOL    HW2 8935   1.614   3.693   6.328 -0.6093 -0.7237 -0.2856
 2709SOL     OW 8936   3.486   2.760   1.228 -0.2596  0.0689  0.1511
 2709SOL    HW1 8937   3.503   2.756   1.134  2.1973  0.1067  0.5079
 2709SOL    HW2 8938   3.392   2.771   1.236 -0.9465 -2.7662 -2.2423
 2710SOL     OW 8939   6.514   0.049   5.905  0.7978  0.0370 -0.0223
 2710SOL    HW1 8940   6.514  -0.044   5.886 -2.0878 -0.3277  1.1077
 2710SOL    HW2 8941   6.536   0.054   5.998  0.5295  0.4405  0.0216
 2711SOL     OW 8942   5.543   4.499   6.090  0.9646 -0.3010  0.1428
 2711SOL    HW1 8943   5.539   4.594   6.096 -0.5709 -0.3856  0.9183
 2711SOL    HW2 8944   5.636   4.479   6.076  1.7159  1.1924  2.5058
 2712SOL     OW 8945   4.520   5.628   1.286  0.4960  0.5338 -0.6438
 2712SOL    HW1 8946   4.581   5.598   1.218  0.7041 -1.7124  0.4336
 2712SOL    HW2 8947   4.577   5.658   1.357  0.2973  1.5630 -0.9150
 2713SOL     OW 8948   0.762   7.614   2.910 -0.0168 -0.1435 -0.2812
 2713SOL    HW1 8949   0.806   7.531   2.896  0.6179  0.1742 -0.2193
 2713SOL    HW2 8950   0.828   7.680   2.886 -0.4618  0.3387 -0.1947
 2714SOL     OW 8951   0.896   4.326   6.753 -0.0628 -0.0700 -0.0422
 2714SOL    HW1 8952   0.880   4.371   6.670 -0.4333 -2.7935 -1.5768
 2714SOL    HW2 8953   0.836   4.367   6.815 -1.1193  0.8322 -1.5971
 2715SOL     OW 8954   3.388   1.892   3.869 -0.0171  0.3599  0.1607
 2715SOL    HW1 8955   3.465   1.948   3.867  1.9742 -2.0801  1.5169
 2715SOL    HW2 8956   3.383   1.862   3.960 -2.0476 -0.2509 -0.1120
 2716SOL     OW 8957   7.160   3.137   1.653  0.4981 -0.0540  0.2660
 2716SOL    HW1 8958   7.194   3.057   1.613  0.9334  0.3210 -0.1188
 2716SOL    HW2 8959   7.229   3.166   1.712  0.2672 -0.0573  0.5397
 2717SOL     OW 8960   7.456   2.666   7.386  0.0053 -0.5005  0.8009
 2717SOL    HW1 8961   7.485   2.753   7.360  2.9661 -1.5416  0.2132
 2717SOL    HW2 8962   7.362   2.666   7.367  0.1464  2.1206 -0.3894
 2718SOL     OW 8963   4.866   7.572   6.475 -0.0443 -0.0917  0.3897
 2718SOL    HW1 8964   4.843   7.632   6.546 -0.3124  1.6776 -1.1055
 2718SOL    HW2 8965   4.948   7.532   6.503 -0.8778 -0.5553  2.3237
 2719SOL     OW 8966   1.554   3.317   4.369 -0.1343  0.0691 -0.0752
 2719SOL    HW1 8967   1.614   3.392   4.379  0.9901 -0.0199 -4.3892
 2719SOL    HW2 8968   1.611   3.241   4.380 -0.8317 -0.2113  2.0155
 2720SOL     OW 8969   2.504   2.547   0.730  0.0909 -0.4452  0.2780
 2720SOL    HW1 8970   2.425   2.599   0.717 -0.3340 -1.2385 -0.3964
 2720SOL    HW2 8971   2.486   2.464   0.687  0.8369 -1.0889  1.1619
 2721SOL     OW 8972   4.702   6.520   5.957  0.3636  0.2795  0.1601
 2721SOL    HW1 8973   4.765   6.536   6.027 -0.9000  0.8034  1.2354
 2721SOL    HW2 8974   4.684   6.606   5.920  0.9469  0.0173 -0.7598
 2722SOL     OW 8975   2.998   4.645   7.001 -0.2077 -0.0415 -0.7229
 2722SOL    HW1 8976   3.087   4.613   6.984  0.7457  2.3748 -0.7759
 2722SOL    HW2 8977   2.972   4.686   6.918 -0.6056  0.9037 -0.1447
 2723SOL     OW 8978   2.235   4.801   2.456  0.4412 -0.0768 -0.3763
 2723SOL    HW1 8979   2.147   4.802   2.418  1.1193  1.3428 -2.0204
 2723SOL    HW2 8980   2.275   4.720   2.424  0.4935  0.3881 -1.5275
 2724SOL     OW 8981   4.329   7.400   0.095 -0.9531  0.1179  0.1370
 2724SOL    HW1 8982   4.303   7.313   0.066 -0.3490  0.4447 -1.4945
 2724SOL    HW2 8983   4.411   7.418   0.048  0.5667  0.3921  2.6778
 2725SOL     OW 8984   4.597   3.131   3.079  0.1699  0.1697  0.2600
 2725SOL    HW1 8985   4.599   3.224   3.057  3.1530  0.3029  0.7686
 2725SOL    HW2 8986   4.667   3.092   3.026 -1.3296 -1.9284 -0.3294
 2726SOL     OW 8987   1.382   7.573   4.233  0.8044  0.2024 -0.5157
 2726SOL    HW1 8988   1.297   7.615   4.242  1.5073  1.5353  0.1995
 2726SOL    HW2 8989   1.393   7.522   4.314  1.0915  0.8171 -0.1618
 2727SOL     OW 8990   4.284   3.444   5.108 -0.1363 -0.1621  0.1624
 2727SOL    HW1 8991   4.252   3.394   5.032 -1.3930  3.5686 -2.0659
 2727SOL    HW2 8992   4.205   3.480   5.148  0.6603 -0.4837  2.1320
 2728SOL     OW 8993   4.284   7.519   5.667 -0.4020  0.5243 -0.4236
 2728SOL    HW1 8994   4.276   7.609   5.700  0.9284 -0.3480  2.5527
 2728SOL    HW2 8995   4.238   7.466   5.732  0.0709 -1.1043 -1.3802
 2729SOL     OW 8996   6.388   6.872   7.208  0.4185 -0.0791 -0.1590
 2729SOL    HW1 8997   6.459   6.811   7.225 -0.0692 -0.7410 -0.4792
 2729SOL    HW2 8998   6.308   6.821   7.222  0.0058  0.4931 -0.3989
 2730SOL     OW 8999   2.005   1.909   5.331  0.1169  0.0318 -0.1808
 2730SOL    HW1 9000   2.098   1.927   5.316 -0.3442  3.1441  0.1541
 2730SOL    HW2 9001   1.977   1.864   5.251  1.7588 -0.4636 -0.5284
 2731SOL     OW 9002   1.312   3.366   3.020  0.5382 -0.1665 -0.3622
 2731SOL    HW1 9003   1.386   3.319   3.059  2.3246  0.3543 -2.8348
 2731SOL    HW2 9004   1.327   3.359   2.925 -2.0663  0.8408 -0.9364
 2732SOL     OW 9005   5.368   2.980   0.568  0.5440 -0.6078 -0.2494
 2732SOL    HW1 9006   5.440   3.023   0.522 -0.6545  2.2357  0.3101
 2732SOL    HW2 9007   5.407   2.948   0.649  1.4151  0.0030 -0.4132
 2733SOL     OW 9008   2.839   3.172   1.068  0.4687 -0.2772  0.5138
 2733SOL    HW1 9009   2.852   3.079   1.050  0.0746 -0.2309 -0.0027
 2733SOL    HW2 9010   2.907   3.217   1.018  0.5232 -0.2698  0.5934
 2734SOL     OW 9011   4.075   4.454   4.193 -0.2997 -0.1730  0.3255
 2734SOL    HW1 9012   3.987   4.442   4.158  0.1900 -0.1346 -0.9759
 2734SOL    HW2 9013   4.067   4.529   4.252 -0.7754  1.1112 -1.2720
 2735SOL     OW 9014   4.930   5.686   0.008  0.5056  0.5141  0.3469
 2735SOL    HW1 9015   4.986   5.636   0.068  0.3359 -0.0672  0.0247
 2735SOL    HW2 9016   4.875   5.738   0.066  0.2193 -0.1750  0.7091
 2736SOL     OW 9017   7.483   3.954   3.971  0.2599  0.0863  0.1361
 2736SOL    HW1 9018   7.543   3.961   4.046  1.3365 -0.6374 -0.6333
 2736SOL    HW2 9019   7.397   3.974   4.008  0.7128 -0.5659  1.6393
 2737SOL     OW 9020   0.870   2.618   1.576  0.1383  0.5181  0.5152
 2737SOL    HW1 9021   0.918   2.576   1.647 -0.6699  0.0769  0.8208
 2737SOL    HW2 9022   0.937   2.651   1.517  0.8284  1.1010  1.5984
 2738SOL     OW 9023   1.816   7.507   1.053 -0.6899  0.1056  0.0064
 2738SOL    HW1 9024   1.745   7.457   1.094 -0.0645  0.4839  1.6227
 2738SOL    HW2 9025   1.773   7.561   0.987 -1.7232 -0.6251  0.0645
 2739SOL     OW 9026   6.237   0.615   3.771 -0.3451  0.0393  0.3284
 2739SOL    HW1 9027   6.301   0.544   3.780 -1.3220 -0.8456  0.4416
 2739SOL    HW2 9028   6.181   0.587   3.698 -0.2050  1.1307 -0.2226
 2740SOL     OW 9029   3.395   1.661   5.526 -0.1357 -0.0823 -0.0103
 2740SOL    HW1 9030   3.467   1.598   5.528  0.9397  1.1008 -0.1648
 2740SOL    HW2 9031   3.365   1.660   5.435 -0.0208 -0.2596 -0.0469
 2741SOL     OW 9032   0.803   1.693   3.358  0.4041  0.4021  0.4675
 2741SOL    HW1 9033   0.812   1.623   3.423 -0.7679 -0.1614  0.0656
 2741SOL    HW2 9034   0.805   1.648   3.274 -1.0254  0.7490  0.2204
 2742SOL     OW 9035   3.460   4.849   5.001 -0.7560  0.2451  0.1492
 2742SOL    HW1 9036   3.368   4.842   5.027 -0.9297  0.6869 -0.3415
 2742SOL    HW2 9037   3.489   4.758   4.993 -0.8317  0.0898  1.3795
 2743SOL     OW 9038   6.625   0.233   2.931  0.2420 -0.6068  0.4871
 2743SOL    HW1 9039   6.540   0.225   2.975  0.4285  0.2876  1.0257
 2743SOL    HW2 9040   6.646   0.326   2.936  0.2443 -0.4590 -1.5530
 2744SOL     OW 9041   7.113   1.354   3.574  0.2134 -0.3705  0.0599
 2744SOL    HW1 9042   7.028   1.379   3.610  0.5690  0.6923  0.1874
 2744SOL    HW2 9043   7.125   1.412   3.499  0.3082 -1.3129 -0.6608
 2745SOL     OW 9044   3.589   2.237   7.868 -0.3394 -0.5875 -0.8301
 2745SOL    HW1 9045   3.635   2.303   7.919 -0.5562 -2.3045  1.8258
 2745SOL    HW2 9046   3.522   2.285   7.820  0.0537  1.1990  0.3266
 2746SOL     OW 9047   1.949   4.422   7.568 -0.3119  0.2384 -0.1325
 2746SOL    HW1 9048   1.860   4.395   7.546 -0.3903  1.1901 -1.0734
 2746SOL    HW2 9049   1.956   4.407   7.663 -1.7217  0.8010  0.0925
 2747SOL     OW 9050   0.674   6.071   1.311 -0.1992  0.5325  0.0112
 2747SOL    HW1 9051   0.586   6.047   1.282  0.1293  0.9076 -1.4147
 2747SOL    HW2 9052   0.679   6.041   1.402 -0.7178 -2.3560 -0.8048
 2748SOL     OW 9053   5.791   7.278   7.857  0.2168 -0.0916 -0.3035
 2748SOL    HW1 9054   5.772   7.332   7.780 -1.6216 -0.9768 -0.5296
 2748SOL    HW2 9055   5.825   7.196   7.822 -0.7712 -0.5568 -0.2264
 2749SOL     OW 9056   6.744   3.198   4.159 -0.5318  0.0603 -0.2309
 2749SOL    HW1 9057   6.763   3.117   4.111 -2.0804  0.2542 -1.2603
 2749SOL    HW2 9058   6.715   3.169   4.245  1.9749 -0.3104  0.5756
 2750SOL     OW 9059   2.432   1.421   4.079  0.2014 -0.6845  0.0114
 2750SOL    HW1 9060   2.340   1.440   4.059 -0.3989  0.1534  3.0993
 2750SOL    HW2 9061   2.476   1.505   4.067  0.0803 -0.4929  0.8647
 2751SOL     OW 9062   1.576   4.680   6.267 -0.3313  0.1751  0.0770
 2751SOL    HW1 9063   1.610   4.743   6.203 -0.2850 -1.2229 -1.3454
 2751SOL    HW2 9064   1.483   4.672   6.246 -0.8791  1.4568  1.7713
 2752SOL     OW 9065   0.989   5.254   3.822  0.0290 -0.4390 -0.2710
 2752SOL    HW1 9066   0.992   5.159   3.825  1.5967 -0.6058 -3.2815
 2752SOL    HW2 9067   1.081   5.280   3.812 -0.5260  1.2139 -1.5339
 2753SOL     OW 9068   4.214   1.267   2.242  0.2658  0.1400 -1.2489
 2753SOL    HW1 9069   4.182   1.305   2.324 -0.1738 -0.2517 -1.2409
 2753SOL    HW2 9070   4.271   1.195   2.269 -0.8834 -0.8168 -1.2889
 2754SOL     OW 9071   1.479   0.583   0.211  0.1926  0.2936 -0.7129
 2754SOL    HW1 9072   1.402   0.527   0.207 -0.0712  0.6817 -1.2225
 2754SOL    HW2 9073   1.449   0.667   0.174  0.8159  0.4941 -0.7724
 2755SOL     OW 9074   5.975   4.462   1.253 -0.1637  0.2028 -0.1976
 2755SOL    HW1 9075   6.059   4.444   1.210 -0.1810  0.8850 -0.5204
 2755SOL    HW2 9076   5.935   4.530   1.200 -1.5027 -0.9866 -0.7684
 2756SOL     OW 9077   2.808   0.847   2.616 -0.5931  0.1341  0.3546
 2756SOL    HW1 9078   2.864   0.807   2.682 -0.9521 -0.5953  0.2161
 2756SOL    HW2 9079   2.746   0.779   2.592 -2.6769  1.4506  1.7346
 2757SOL     OW 9080   4.941   0.083   0.595  0.1333  0.5391  0.3044
 2757SOL    HW1 9081   4.897   0.150   0.542  2.5256  1.1053 -1.0998
 2757SOL    HW2 9082   4.973   0.020   0.531 -2.6433 -2.4986  1.6167
 2758SOL     OW 9083   2.942   2.247   2.009  0.2293  0.7826  0.2713
 2758SOL    HW1 9084   2.899   2.199   2.080 -1.3633  1.5357 -0.1353
 2758SOL    HW2 9085   2.963   2.180   1.944  2.8778 -0.1366  1.9037
 2759SOL     OW 9086   6.919   0.984   4.055 -0.7197 -0.0886 -0.0051
 2759SOL    HW1 9087   6.878   1.039   3.988  1.8215 -0.4917 -2.0923
 2759SOL    HW2 9088   6.873   0.900   4.048 -2.5189  0.7703  0.9906
 2760SOL     OW 9089   5.056   6.612   1.185  0.1039  0.8871 -0.4230
 2760SOL    HW1 9090   4.965   6.641   1.187 -0.0722  0.4230 -1.0643
 2760SOL    HW2 9091   5.105   6.688   1.155 -0.0831  1.1282 -0.1126
 2761SOL     OW 9092   6.253   5.366   4.685  0.2914 -0.0925  0.3812
 2761SOL    HW1 9093   6.257   5.277   4.649 -1.7038 -0.2446  0.4145
 2761SOL    HW2 9094   6.193   5.412   4.626 -1.1155  0.3382  2.0913
 2762SOL     OW 9095   0.483   0.248   5.344 -0.3627  0.1711  0.7118
 2762SOL    HW1 9096   0.469   0.342   5.350 -1.7201 -0.0217  0.7923
 2762SOL    HW2 9097   0.408   0.215   5.295  0.3215 -0.8193  0.2943
 2763SOL     OW 9098   4.665   6.568   5.111  0.1244  0.0301  0.6253
 2763SOL    HW1 9099   4.670   6.502   5.042  0.7422  1.3056 -0.6037
 2763SOL    HW2 9100   4.708   6.528   5.186  2.2099 -0.3067 -0.6673
 2764SOL     OW 9101   3.160   5.087   6.673  0.0591  0.3646  0.5356
 2764SOL    HW1 9102   3.099   5.161   6.684 -1.4127 -0.6279 -0.5643
 2764SOL    HW2 9103   3.109   5.011   6.700  0.0832 -0.7479 -2.2998
 2765SOL     OW 9104   0.476   6.842   6.602 -0.2375  0.8549  0.4218
 2765SOL    HW1 9105   0.409   6.863   6.537 -0.5500 -0.1175  0.4157
 2765SOL    HW2 9106   0.427   6.821   6.682  0.1711  3.0844  1.3256
 2766SOL     OW 9107   2.668   0.754   6.642 -0.0408  0.2230  0.2790
 2766SOL    HW1 9108   2.650   0.674   6.692  0.5946 -0.2491 -0.2177
 2766SOL    HW2 9109   2.582   0.793   6.628 -0.2873  0.0491  1.2147
 2767SOL     OW 9110   1.858   4.555   5.158 -0.6323 -0.3483 -0.0516
 2767SOL    HW1 9111   1.940   4.604   5.158  0.0843 -1.3451  2.8722
 2767SOL    HW2 9112   1.882   4.470   5.120 -0.2363 -0.6887  0.9274
 2768SOL     OW 9113   6.376   5.719   6.688 -0.2841 -0.2046  0.2037
 2768SOL    HW1 9114   6.406   5.716   6.779  1.9889 -2.0466 -0.4965
 2768SOL    HW2 9115   6.309   5.652   6.682  0.5214 -1.0419  0.2698
 2769SOL     OW 9116   7.543   3.204   5.892  0.1170  0.0246  0.4758
 2769SOL    HW1 9117   7.453   3.205   5.857 -0.4424  0.6753  1.8523
 2769SOL    HW2 9118   7.598   3.198   5.815 -1.1104 -0.1681 -0.4249
 2770SOL     OW 9119   4.816   6.078   7.842 -0.4515  0.5022  0.3821
 2770SOL    HW1 9120   4.832   6.070   7.936 -0.5323  1.0049  0.4424
 2770SOL    HW2 9121   4.753   6.009   7.822  0.8238 -0.7123  0.3759
 2771SOL     OW 9122   5.843   5.017   0.518  0.9894  0.3078  1.1305
 2771SOL    HW1 9123   5.883   4.929   0.522  0.4054 -0.0334 -0.1448
 2771SOL    HW2 9124   5.750   5.000   0.509  0.6672  1.1013  2.6341
 2772SOL     OW 9125   3.107   5.648   3.687  0.2363  0.1164 -0.0204
 2772SOL    HW1 9126   3.138   5.664   3.598  0.3477 -0.5673 -0.1172
 2772SOL    HW2 9127   3.187   5.631   3.737  0.0960 -0.9319 -0.1137
 2773SOL     OW 9128   4.729   6.199   7.053 -0.1984 -0.1282  0.2543
 2773SOL    HW1 9129   4.768   6.186   7.139 -0.0777  0.1860  0.2471
 2773SOL    HW2 9130   4.775   6.137   6.996 -0.4520 -0.5167  0.4618
 2774SOL     OW 9131   0.057   2.851   3.409 -0.2165 -0.1276 -0.2225
 2774SOL    HW1 9132   0.054   2.947   3.412  0.5325 -0.0677 -1.0101
 2774SOL    HW2 9133   0.011   2.823   3.488 -0.1474  0.8878  0.1894
 2775SOL     OW 9134   0.315   2.284   3.745 -0.7591 -0.2231  0.6266
 2775SOL    HW1 9135   0.311   2.365   3.695  0.8615 -1.0490 -0.9642
 2775SOL    HW2 9136   0.302   2.215   3.679 -1.2995 -1.2890  1.8058
 2776SOL     OW 9137   0.504   2.206   7.002 -0.0792 -0.4026 -0.1692
 2776SOL    HW1 9138   0.496   2.128   7.057 -0.8791  0.2244  0.6365
 2776SOL    HW2 9139   0.415   2.223   6.972  0.0529  0.3144 -0.1713
 2777SOL     OW 9140   2.838   7.769   6.508  0.3337  0.0310  0.0711
 2777SOL    HW1 9141   2.857   7.742   6.597  0.7216 -1.7163 -0.5104
 2777SOL    HW2 9142   2.742   7.773   6.503  0.3204  1.0442  0.7885
 2778SOL     OW 9143   5.622   7.023   1.425 -0.3452 -0.2781  0.4359
 2778SOL    HW1 9144   5.615   7.022   1.330  0.4693 -1.5470  0.3695
 2778SOL    HW2 9145   5.708   7.061   1.443  0.0732 -1.2534  0.5933
 2779SOL     OW 9146   4.232   5.757   2.874  0.9329 -0.0837 -0.5002
 2779SOL    HW1 9147   4.165   5.711   2.823  0.2543 -1.0104  1.1308
 2779SOL    HW2 9148   4.185   5.789   2.951  2.2756 -0.3573  0.4621
 2780SOL     OW 9149   5.289   1.234   0.895  0.3761 -0.1565  0.0839
 2780SOL    HW1 9150   5.265   1.321   0.861  1.5055  0.5986  1.1483
 2780SOL    HW2 9151   5.213   1.208   0.947  0.0279  0.1937 -0.2397
 2781SOL     OW 9152   0.503   3.056   7.372 -0.0099 -0.5620 -0.5386
 2781SOL    HW1 9153   0.520   3.010   7.454  0.4749 -2.0570 -1.4423
 2781SOL    HW2 9154   0.590   3.072   7.335 -0.0750  2.1669  0.2692
 2782SOL     OW 9155   3.715   3.978   7.346  0.9110  0.0215 -0.4035
 2782SOL    HW1 9156   3.809   3.969   7.329  0.6453 -1.7711 -1.1954
 2782SOL    HW2 9157   3.679   4.015   7.266  1.0857  1.9770  0.3817
 2783SOL     OW 9158   2.073   6.902   5.574  0.1371  0.0150 -0.8168
 2783SOL    HW1 9159   2.167   6.900   5.590 -0.2720  0.1988  2.0529
 2783SOL    HW2 9160   2.059   6.836   5.506  2.4834  1.1299 -2.5309
 2784SOL     OW 9161   2.167   5.237   0.829 -0.4230  0.3276 -0.8425
 2784SOL    HW1 9162   2.182   5.233   0.734 -0.1510  1.9696 -0.8972
 2784SOL    HW2 9163   2.072   5.243   0.838 -0.5587 -1.3420 -0.9160
 2785SOL     OW 9164   3.784   6.663   4.338 -0.5384  0.2923  0.0806
 2785SOL    HW1 9165   3.810   6.744   4.382 -1.4054  0.8317 -0.3770
 2785SOL    HW2 9166   3.863   6.608   4.340  0.4187  1.5910 -0.6306
 2786SOL     OW 9167   1.210   4.500   3.389  0.7152  0.4906 -0.5848
 2786SOL    HW1 9168   1.264   4.446   3.330 -0.4447 -1.4259  0.0187
 2786SOL    HW2 9169   1.272   4.529   3.457  1.4790  0.3592 -1.2050
 2787SOL     OW 9170   1.176   2.149   7.571 -0.3485  0.5229 -0.2095
 2787SOL    HW1 9171   1.137   2.083   7.629 -1.2795  0.9627 -0.3228
 2787SOL    HW2 9172   1.259   2.110   7.543  0.2149  0.3469  1.5269
 2788SOL     OW 9173   3.684   1.156   3.496  0.4064 -0.0852  0.0696
 2788SOL    HW1 9174   3.651   1.130   3.582  1.1350  0.0753  0.4073
 2788SOL    HW2 9175   3.714   1.246   3.508  1.2337 -0.3223 -0.1373
 2789SOL     OW 9176   3.894   4.060   4.565  0.6192 -0.1053 -0.1193
 2789SOL    HW1 9177   3.904   3.970   4.596  1.4860 -0.6440 -1.8446
 2789SOL    HW2 9178   3.962   4.109   4.611  0.7947 -0.5304  0.0829
 2790SOL     OW 9179   5.737   2.059   2.481 -0.2656  0.5982  0.6467
 2790SOL    HW1 9180   5.725   2.154   2.486 -1.3574  0.4287  1.7385
 2790SOL    HW2 9181   5.765   2.034   2.569  1.9582  0.1128 -0.1283
 2791SOL     OW 9182   0.521   4.204   7.799 -0.1877  0.0680 -0.3908
 2791SOL    HW1 9183   0.476   4.257   7.732 -1.0627 -1.1791 -0.8173
 2791SOL    HW2 9184   0.507   4.114   7.771 -2.0318 -0.6153  2.3138
 2792SOL     OW 9185   0.143   6.910   0.356 -0.6470 -0.3345 -0.2118
 2792SOL    HW1 9186   0.099   6.925   0.272  0.6509  0.7274 -0.7272
 2792SOL    HW2 9187   0.202   6.837   0.340 -0.2660 -0.0132 -0.2759
 2793SOL     OW 9188   2.653   0.219   6.333 -0.1329  0.4201 -0.2600
 2793SOL    HW1 9189   2.675   0.274   6.408 -0.8042  1.6302 -0.9260
 2793SOL    HW2 9190   2.607   0.277   6.272 -0.6581 -0.8200 -1.1015
 2794SOL     OW 9191   1.343   5.489   2.992  0.1895 -0.0360  0.2724
 2794SOL    HW1 9192   1.361   5.460   2.902  1.0847  1.2658  0.0019
 2794SOL    HW2 9193   1.359   5.584   2.990  0.5297 -0.0353  1.8760
 2795SOL     OW 9194   6.438   0.902   2.708 -0.0235  0.2841  0.4471
 2795SOL    HW1 9195   6.391   0.943   2.781 -1.8582 -1.0211  0.0602
 2795SOL    HW2 9196   6.451   0.811   2.736  1.5411  0.3956  0.1641
 2796SOL     OW 9197   0.484   2.079   6.141 -0.0896  0.8775  0.6334
 2796SOL    HW1 9198   0.571   2.041   6.152 -0.7465 -0.9539 -0.0600
 2796SOL    HW2 9199   0.424   2.009   6.169 -1.3525  1.6470 -0.0806
 2797SOL     OW 9200   3.872   5.918   1.596  0.2195  0.0014  0.0969
 2797SOL    HW1 9201   3.901   5.830   1.572  0.1937 -0.0592  0.2903
 2797SOL    HW2 9202   3.892   5.926   1.689  0.1418  0.1685  0.0995
 2798SOL     OW 9203   0.938   3.757   5.196 -0.6311  0.3619 -0.1099
 2798SOL    HW1 9204   0.878   3.830   5.208  0.2993  1.2669 -0.7180
 2798SOL    HW2 9205   0.904   3.710   5.120 -1.4036 -0.0234  0.4685
 2799SOL     OW 9206   6.487   3.464   4.702  0.6239 -0.9308 -0.0893
 2799SOL    HW1 9207   6.549   3.469   4.630  1.6357  0.8569  0.8317
 2799SOL    HW2 9208   6.418   3.526   4.679  1.5099  0.4905  0.9251
 2800SOL     OW 9209   0.801   7.393   4.035 -0.1951 -0.1741  0.0432
 2800SOL    HW1 9210   0.872   7.440   3.991 -2.0192  2.6447 -0.1760
 2800SOL    HW2 9211   0.762   7.339   3.966 -0.8909  1.5840 -1.0018
 2801SOL     OW 9212   6.924   3.437   1.636 -0.6536  0.0557  0.0017
 2801SOL    HW1 9213   6.857   3.481   1.689 -0.5048  0.8514 -0.4581
 2801SOL    HW2 9214   6.892   3.347   1.627 -1.8946  0.5347 -0.5829
 2802SOL     OW 9215   3.103   2.631   0.339  0.3205 -0.4259 -0.2228
 2802SOL    HW1 9216   3.026   2.684   0.358 -0.5649 -1.7522  0.0168
 2802SOL    HW2 9217   3.155   2.684   0.278  0.0261  1.1613  0.8542
 2803SOL     OW 9218   5.039   6.313   6.440 -0.1004  0.5315  0.1092
 2803SOL    HW1 9219   5.131   6.324   6.463 -0.2933  0.4340  0.9536
 2803SOL    HW2 9220   5.040   6.252   6.366  0.4675 -0.2000  0.7006
 2804SOL     OW 9221   7.516   7.788   6.939  0.1715  0.2277  0.8849
 2804SOL    HW1 9222   7.594   7.837   6.965  0.5935  1.5850 -2.3737
 2804SOL    HW2 9223   7.529   7.701   6.975  3.2647  0.3881  0.4337
 2805SOL     OW 9224   1.660   1.483   3.874 -0.3949  0.5900 -0.3104
 2805SOL    HW1 9225   1.747   1.444   3.880 -0.7214 -0.0869  0.1536
 2805SOL    HW2 9226   1.663   1.537   3.795 -0.5369 -1.9711 -2.2035
 2806SOL     OW 9227   4.588   4.630   7.565 -0.1711  0.1773 -0.1836
 2806SOL    HW1 9228   4.574   4.610   7.657 -0.8549  2.6850  0.3408
 2806SOL    HW2 9229   4.657   4.569   7.537  0.7271 -0.0300  2.2349
 2807SOL     OW 9230   6.774   1.048   1.183  0.2462  0.1040 -0.4479
 2807SOL    HW1 9231   6.710   0.998   1.235  0.2030  0.1973 -0.4123
 2807SOL    HW2 9232   6.745   1.035   1.092  2.3231 -3.0467 -0.8472
 2808SOL     OW 9233   6.883   6.364   2.988  0.1942 -0.2283 -0.3520
 2808SOL    HW1 9234   6.851   6.294   2.931  2.9455 -2.1655  0.2300
 2808SOL    HW2 9235   6.972   6.380   2.957  1.2150 -0.2375  2.3495
 2809SOL     OW 9236   2.622   3.602   7.665 -0.3052  0.2884  0.2219
 2809SOL    HW1 9237   2.554   3.669   7.656 -0.6003  0.1623  1.3052
 2809SOL    HW2 9238   2.692   3.631   7.607  0.3155  2.5057  1.9413
 2810SOL     OW 9239   7.815   3.325   3.558  0.1031 -0.1538  0.1313
 2810SOL    HW1 9240   7.742   3.385   3.575  0.5369  1.0177 -1.8193
 2810SOL    HW2 9241   7.853   3.308   3.644 -0.3111  2.0416  0.8029
 2811SOL     OW 9242   5.038   2.698   7.728  0.7921  0.3506  0.1756
 2811SOL    HW1 9243   4.989   2.779   7.713  1.5785  0.6430 -0.9537
 2811SOL    HW2 9244   5.080   2.679   7.644 -2.4421 -3.3686 -0.9215
 2812SOL     OW 9245   2.495   0.828   1.075 -0.7239  0.4390  0.0375
 2812SOL    HW1 9246   2.523   0.840   1.165  0.4414 -0.3451 -0.1935
 2812SOL    HW2 9247   2.450   0.910   1.053  0.6802  1.4540  0.7314
 2813SOL     OW 9248   6.677   6.430   0.163 -0.6126  0.0591 -0.3736
 2813SOL    HW1 9249   6.725   6.501   0.205  0.2063 -1.2085  0.9425
 2813SOL    HW2 9250   6.714   6.424   0.075 -1.2360  1.7106 -0.8002
 2814SOL     OW 9251   3.003   5.061   0.344  0.0811 -0.1998 -0.1762
 2814SOL    HW1 9252   3.086   5.049   0.391 -1.0222  0.5668  2.1615
 2814SOL    HW2 9253   2.944   4.997   0.384 -1.0442  0.8143 -0.1534
 2815SOL     OW 9254   3.808   7.243   4.046 -0.5354  0.0310 -0.2673
 2815SOL    HW1 9255   3.824   7.310   4.113 -0.3150  0.7494 -1.0106
 2815SOL    HW2 9256   3.895   7.224   4.011 -0.7519  0.3964 -1.0237
 2816SOL     OW 9257   7.548   7.594   0.187  0.3952 -0.1510  0.1553
 2816SOL    HW1 9258   7.467   7.545   0.202  0.8914 -1.8427 -2.2468
 2816SOL    HW2 9259   7.559   7.595   0.092  2.7988  0.7551  0.3731
 2817SOL     OW 9260   7.242   2.064   4.913  0.1384  0.4260  0.2923
 2817SOL    HW1 9261   7.237   2.158   4.927  0.4535  0.9300 -2.4088
 2817SOL    HW2 9262   7.265   2.054   4.821 -0.4003 -2.3122  0.3434
 2818SOL     OW 9263   6.553   2.647   5.930 -0.7342 -0.2740 -0.6723
 2818SOL    HW1 9264   6.549   2.709   6.003 -1.0533  0.7434 -1.5354
 2818SOL    HW2 9265   6.631   2.595   5.948  1.0971  2.0779 -1.1967
 2819SOL     OW 9266   0.862   1.208   3.523 -0.5474 -0.2179 -0.1354
 2819SOL    HW1 9267   0.899   1.124   3.494 -1.3255  0.0138 -1.9684
 2819SOL    HW2 9268   0.912   1.274   3.474 -0.8980  0.3070  0.1969
 2820SOL     OW 9269   6.497   1.268   3.344 -0.3565 -0.3107 -0.7779
 2820SOL    HW1 9270   6.468   1.248   3.255  0.0724  0.8320 -1.2013
 2820SOL    HW2 9271   6.587   1.299   3.333 -0.2366 -0.3426  0.0763
 2821SOL     OW 9272   6.047   5.018   0.198  0.1870 -0.1547 -0.5440
 2821SOL    HW1 9273   6.102   5.058   0.131 -1.4629  1.7782 -0.8575
 2821SOL    HW2 9274   6.006   4.943   0.154  0.1043  0.3366 -1.3375
 2822SOL     OW 9275   1.106   1.891   3.257  0.2141 -0.0229 -0.4356
 2822SOL    HW1 9276   1.168   1.918   3.190  0.0966  1.3368 -0.0255
 2822SOL    HW2 9277   1.076   1.973   3.297  0.2464 -0.7917  1.2487
 2823SOL     OW 9278   1.837   4.597   0.417  0.4585 -0.4438  0.8944
 2823SOL    HW1 9279   1.789   4.571   0.339  2.4837  0.3137 -0.7168
 2823SOL    HW2 9280   1.869   4.514   0.454  0.9481 -0.7375 -0.1346
 2824SOL     OW 9281   6.053   2.251   3.488  0.0940 -0.0859  0.1944
 2824SOL    HW1 9282   6.122   2.220   3.430 -0.1672 -1.5923  0.6494
 2824SOL    HW2 9283   5.991   2.296   3.430  2.1197  2.6675 -0.0374
 2825SOL     OW 9284   7.504   7.620   7.147 -0.3578 -0.6476  0.3766
 2825SOL    HW1 9285   7.410   7.631   7.161 -0.1609  1.4744  0.4244
 2825SOL    HW2 9286   7.544   7.646   7.230  0.3684  1.7892 -0.6529
 2826SOL     OW 9287   6.168   7.396   7.348 -0.5421  0.0141 -0.4213
 2826SOL    HW1 9288   6.073   7.389   7.352 -0.5560  0.1862 -0.4416
 2826SOL    HW2 9289   6.198   7.351   7.427 -0.6377 -0.0938 -0.4462
 2827SOL     OW 9290   7.395   5.228   1.441 -0.2799 -0.1001  0.2699
 2827SOL    HW1 9291   7.330   5.294   1.464  0.0154  0.1495  0.4028
 2827SOL    HW2 9292   7.350   5.144   1.452 -0.7835  0.0924 -0.2922
 2828SOL     OW 9293   2.798   5.185   6.356 -0.3947 -0.1454  0.2225
 2828SOL    HW1 9294   2.881   5.217   6.392 -0.6734 -1.5048  2.2181
 2828SOL    HW2 9295   2.810   5.190   6.261  2.2555 -0.9012  0.4207
 2829SOL     OW 9296   6.475   1.204   0.356  0.0458 -0.7866 -1.1413
 2829SOL    HW1 9297   6.457   1.295   0.380  2.3514  0.1365 -2.5818
 2829SOL    HW2 9298   6.554   1.181   0.406  0.4401 -1.4239 -2.0292
 2830SOL     OW 9299   4.049   7.462   3.992 -0.0108 -0.1055  0.0737
 2830SOL    HW1 9300   4.131   7.492   3.952 -1.1703 -0.0449 -2.4659
 2830SOL    HW2 9301   4.059   7.367   3.998  0.1361 -0.1356 -0.5395
 2831SOL     OW 9302   2.900   5.279   2.066 -0.6130 -0.0289  0.1145
 2831SOL    HW1 9303   2.828   5.311   2.120  0.4993 -0.1263  1.7206
 2831SOL    HW2 9304   2.866   5.282   1.977 -2.1495  1.1391  0.6967
 2832SOL     OW 9305   0.597   2.754   1.103 -0.3138 -0.2570 -0.4875
 2832SOL    HW1 9306   0.618   2.729   1.193 -0.7244  1.0784 -0.0027
 2832SOL    HW2 9307   0.501   2.749   1.098 -0.2458 -1.1924 -1.1301
 2833SOL     OW 9308   1.471   0.119   2.705  0.7421  0.1684  0.2212
 2833SOL    HW1 9309   1.488   0.194   2.761  0.3117 -1.1363  2.1844
 2833SOL    HW2 9310   1.532   0.130   2.632  2.3741  1.1743  1.6570
 2834SOL     OW 9311   2.510   2.434   7.429  0.0825 -0.2955 -0.7173
 2834SOL    HW1 9312   2.448   2.366   7.402 -0.3767 -0.5991  0.9463
 2834SOL    HW2 9313   2.537   2.407   7.517  0.4829  1.2927 -0.3289
 2835SOL     OW 9314   0.284   0.836   1.769  0.7685  0.6195 -0.9673
 2835SOL    HW1 9315   0.280   0.806   1.859 -0.0138  2.0349 -0.4995
 2835SOL    HW2 9316   0.196   0.820   1.734  1.2262 -0.4668 -1.6901
 2836SOL     OW 9317   2.338   6.442   5.975  0.3289  0.2839 -0.1213
 2836SOL    HW1 9318   2.296   6.519   6.013 -0.6438 -0.8654  1.2365
 2836SOL    HW2 9319   2.399   6.412   6.042  0.5383 -0.2625 -0.5476
 2837SOL     OW 9320   0.775   3.712   2.245  0.2283 -0.5117  1.1777
 2837SOL    HW1 9321   0.722   3.787   2.272 -0.3027 -0.6308  0.4808
 2837SOL    HW2 9322   0.724   3.635   2.271 -1.4283 -0.6886 -2.0761
 2838SOL     OW 9323   3.807   5.127   7.061  0.0638 -0.1562  1.1794
 2838SOL    HW1 9324   3.787   5.034   7.075  1.1867 -0.8230 -1.1775
 2838SOL    HW2 9325   3.866   5.149   7.133  1.5951 -1.9540  0.5700
 2839SOL     OW 9326   5.577   6.395   4.879 -0.2259  0.2072 -0.3317
 2839SOL    HW1 9327   5.586   6.435   4.965 -2.7268  0.0850  0.0460
 2839SOL    HW2 9328   5.515   6.451   4.832 -0.9339 -1.1826 -1.1132
 2840SOL     OW 9329   7.591   0.006   0.113  0.4227 -0.0855 -0.4774
 2840SOL    HW1 9330   7.597  -0.038   0.028 -0.5000 -2.5304  0.6254
 2840SOL    HW2 9331   7.609  -0.063   0.177 -0.4831  1.3103  1.3719
 2841SOL     OW 9332   3.458   4.628   2.006  0.2706  0.3554 -0.4461
 2841SOL    HW1 9333   3.448   4.633   2.101 -0.2581 -0.7978 -0.4332
 2841SOL    HW2 9334   3.493   4.714   1.982  1.4121  0.3116  0.9097
 2842SOL     OW 9335   5.300   1.243   4.972 -0.0256  0.7261  0.7935
 2842SOL    HW1 9336   5.315   1.149   4.980  0.5066  0.5337 -1.6233
 2842SOL    HW2 9337   5.207   1.251   4.949  0.0862  0.7350  0.3396
 2843SOL     OW 9338   0.573   4.704   0.008 -0.3475  0.1048 -0.6051
 2843SOL    HW1 9339   0.530   4.733  -0.072 -0.7490  0.5664 -0.2275
 2843SOL    HW2 9340   0.575   4.609   0.001 -0.0893  0.1562 -1.3067
 2844SOL     OW 9341   1.910   0.058   6.989  0.0631  0.3198  0.0387
 2844SOL    HW1 9342   1.966   0.027   7.060 -0.6745 -1.4318 -0.0858
 2844SOL    HW2 9343   1.845  -0.011   6.978 -1.0536  1.4791 -1.0089
 2845SOL     OW 9344   6.835   1.958   4.379  0.1143  0.1375  0.3781
 2845SOL    HW1 9345   6.848   1.876   4.331  1.9087  1.6462 -1.9194
 2845SOL    HW2 9346   6.740   1.962   4.393 -0.0676 -2.1306  0.3025
 2846SOL     OW 9347   5.270   2.078   0.566  0.2615 -0.1822  0.2165
 2846SOL    HW1 9348   5.292   2.123   0.648 -1.3489  0.7553  0.1691
 2846SOL    HW2 9349   5.250   2.148   0.505 -1.4228 -0.9321 -0.1306
 2847SOL     OW 9350   1.435   7.326   4.993 -0.1511  0.0408  0.2702
 2847SOL    HW1 9351   1.477   7.401   4.951  1.1905  0.0310  1.5309
 2847SOL    HW2 9352   1.341   7.341   4.980 -0.0310  2.8602  1.9487
 2848SOL     OW 9353   0.915   7.751   6.396 -0.3331  0.0274 -0.0754
 2848SOL    HW1 9354   1.006   7.775   6.380 -0.3254  0.4925  0.6070
 2848SOL    HW2 9355   0.877   7.828   6.437 -1.4299  0.3754 -1.6719
 2849SOL     OW 9356   4.356   3.979   2.779 -0.2142 -0.1443 -0.1241
 2849SOL    HW1 9357   4.369   3.903   2.722  0.3356  0.0193 -0.2232
 2849SOL    HW2 9358   4.323   3.942   2.861  0.7248 -0.5673  0.0728
 2850SOL     OW 9359   4.442   7.857   7.123  0.1295  0.2911  0.1265
 2850SOL    HW1 9360   4.348   7.843   7.137  0.3878 -1.2457  0.4948
 2850SOL    HW2 9361   4.450   7.876   7.030 -0.6114  1.1238  0.2218
 2851SOL     OW 9362   6.278   5.049   0.965  0.5306 -0.0831 -0.1952
 2851SOL    HW1 9363   6.306   4.957   0.961 -0.4506 -0.3671 -0.9490
 2851SOL    HW2 9364   6.241   5.066   0.879 -1.5894  0.2579  0.7228
 2852SOL     OW 9365   6.137   3.334   3.848  0.1889  0.2256 -0.5849
 2852SOL    HW1 9366   6.143   3.429   3.863  1.9065 -0.1898  1.9327
 2852SOL    HW2 9367   6.203   3.316   3.782  1.9093  0.4768  0.9948
 2853SOL     OW 9368   4.190   3.197   0.841  0.1010  0.2973 -0.2501
 2853SOL    HW1 9369   4.137   3.118   0.852  1.3293 -0.6450 -1.0286
 2853SOL    HW2 9370   4.144   3.247   0.774 -2.0328  1.4697  1.9162
 2854SOL     OW 9371   5.923   4.391   2.087  0.5974  0.2325 -0.1880
 2854SOL    HW1 9372   5.857   4.433   2.143 -0.5322 -0.8595 -0.6352
 2854SOL    HW2 9373   5.940   4.455   2.018 -0.6931  0.1951 -0.5653
 2855SOL     OW 9374   2.608   7.564   6.655 -0.6496 -0.0943 -0.1572
 2855SOL    HW1 9375   2.664   7.522   6.719 -0.5110 -0.0824 -0.2694
 2855SOL    HW2 9376   2.610   7.506   6.579  1.0439  0.9939 -1.0270
 2856SOL     OW 9377   4.369   1.403   6.313 -0.1074 -0.0144  0.7313
 2856SOL    HW1 9378   4.448   1.394   6.260 -0.6408 -1.5751  0.1429
 2856SOL    HW2 9379   4.359   1.497   6.327  0.9123  0.3087 -0.6265
 2857SOL     OW 9380   2.269   6.158   3.845 -0.1783 -0.6736  0.2448
 2857SOL    HW1 9381   2.221   6.229   3.802  1.4270 -0.3635 -1.1437
 2857SOL    HW2 9382   2.360   6.173   3.822  0.5207 -1.7178  2.1084
 2858SOL     OW 9383   2.125   1.164   4.327 -0.0859  0.4276  0.1108
 2858SOL    HW1 9384   2.080   1.246   4.308  0.5018  0.5770 -0.6603
 2858SOL    HW2 9385   2.218   1.186   4.322  0.2049  0.6368  3.6937
 2859SOL     OW 9386   1.074   1.951   7.685  0.2718  0.5338  0.3151
 2859SOL    HW1 9387   1.111   1.885   7.742 -0.6543  0.4760  0.8702
 2859SOL    HW2 9388   1.036   1.901   7.612  0.7508  0.5500  0.0553
 2860SOL     OW 9389   4.999   1.865   5.721  0.0555  0.0542  0.1158
 2860SOL    HW1 9390   4.927   1.926   5.702 -0.7276 -1.0110 -0.4469
 2860SOL    HW2 9391   5.023   1.884   5.811 -0.8768  0.4983  0.2838
 2861SOL     OW 9392   5.724   1.482   2.002  0.0102  0.2834 -0.3708
 2861SOL    HW1 9393   5.796   1.437   2.046 -0.9762 -0.1581  0.8600
 2861SOL    HW2 9394   5.646   1.458   2.053 -1.0535  0.5238 -1.8301
 2862SOL     OW 9395   1.217   2.247   6.532 -0.0816  0.0725  0.1153
 2862SOL    HW1 9396   1.253   2.181   6.591  1.6676  0.6089 -0.2841
 2862SOL    HW2 9397   1.236   2.214   6.444 -2.0344 -0.3804 -0.1933
 2863SOL     OW 9398   5.703   3.797   7.510 -0.0055  0.6224  0.0885
 2863SOL    HW1 9399   5.740   3.771   7.595  1.0420 -2.0705 -1.0643
 2863SOL    HW2 9400   5.625   3.742   7.500  1.4631 -1.2973 -1.8239
 2864SOL     OW 9401   7.258   4.470   5.469 -0.1034 -0.5544  0.2776
 2864SOL    HW1 9402   7.239   4.377   5.458 -1.2098 -0.3170  0.0922
 2864SOL    HW2 9403   7.194   4.515   5.414  1.5059  0.2790 -1.0144
 2865SOL     OW 9404   1.796   4.769   6.504 -0.0286  0.0669  0.5425
 2865SOL    HW1 9405   1.775   4.676   6.510  0.9076 -0.0657  2.6472
 2865SOL    HW2 9406   1.890   4.773   6.524  0.0394  1.4420  0.0524
 2866SOL     OW 9407   0.564   5.592   0.436  0.0255 -0.2565 -0.3425
 2866SOL    HW1 9408   0.478   5.633   0.440 -0.3179 -1.0522  1.2541
 2866SOL    HW2 9409   0.561   5.538   0.357 -1.2090 -0.8017  0.0529
 2867SOL     OW 9410   0.251   1.666   3.889  0.1640 -0.0942 -0.6417
 2867SOL    HW1 9411   0.206   1.582   3.885  0.4650 -0.3713  0.9987
 2867SOL    HW2 9412   0.332   1.647   3.938  0.5874  1.0068 -0.8814
 2868SOL     OW 9413   4.517   4.019   6.171  0.4373 -0.1839 -0.2712
 2868SOL    HW1 9414   4.538   4.039   6.263 -1.7337 -0.6758  0.4055
 2868SOL    HW2 9415   4.504   4.105   6.130 -0.0700  0.0266  0.3036
 2869SOL     OW 9416   6.670   0.681   4.094  0.4210  0.1571  0.4007
 2869SOL    HW1 9417   6.753   0.684   4.047  0.1335  1.1488 -0.0666
 2869SOL    HW2 9418   6.619   0.754   4.059  0.2466  1.0078  2.3164
 2870SOL     OW 9419   5.778   6.959   4.255  0.1105  0.0331 -0.2202
 2870SOL    HW1 9420   5.803   6.951   4.347 -0.7938 -2.6730 -0.1343
 2870SOL    HW2 9421   5.779   6.869   4.222 -3.0264  0.4777 -1.8991
 2871SOL     OW 9422   6.540   2.731   3.730  0.2380  0.9590 -0.1339
 2871SOL    HW1 9423   6.624   2.760   3.695  0.2913  0.2082 -0.6543
 2871SOL    HW2 9424   6.557   2.712   3.822  0.7268  0.4512 -0.3261
 2872SOL     OW 9425   6.850   2.440   3.249  0.0399 -0.6386 -0.8854
 2872SOL    HW1 9426   6.878   2.433   3.158  0.1570 -0.7601 -0.8391
 2872SOL    HW2 9427   6.842   2.535   3.264  0.3000 -0.6081 -0.9363
 2873SOL     OW 9428   5.530   0.664   4.062  0.0073 -0.0033  0.2817
 2873SOL    HW1 9429   5.556   0.603   4.131  0.6007  1.5235  1.4727
 2873SOL    HW2 9430   5.605   0.665   4.001  0.2320 -0.0383  0.5569
 2874SOL     OW 9431   6.372   5.878   4.906 -0.0226  0.0721  0.3473
 2874SOL    HW1 9432   6.359   5.857   4.813 -1.0013 -0.9590  0.6979
 2874SOL    HW2 9433   6.285   5.870   4.945  0.4556  0.0432  1.4411
 2875SOL     OW 9434   7.120   4.478   3.256  0.0575  0.0860 -0.1072
 2875SOL    HW1 9435   7.066   4.544   3.213 -1.5278 -0.0451  1.5670
 2875SOL    HW2 9436   7.093   4.395   3.215 -2.0761 -0.1466  1.5905
 2876SOL     OW 9437   7.639   4.833   5.343  1.0609  0.0107  0.3756
 2876SOL    HW1 9438   7.544   4.835   5.336  1.1689 -0.8280 -2.2005
 2876SOL    HW2 9439   7.667   4.920   5.314  1.1213 -0.1677 -0.1071
 2877SOL     OW 9440   0.998   0.747   1.091 -0.0498 -0.0747  0.7462
 2877SOL    HW1 9441   1.005   0.832   1.136 -0.7935  0.6897 -0.5043
 2877SOL    HW2 9442   0.909   0.747   1.055  0.2358 -1.0253  0.0127
 2878SOL     OW 9443   0.286   3.511   4.073  0.0748  0.1564 -0.1930
 2878SOL    HW1 9444   0.362   3.547   4.120 -2.1769  3.6641  1.1165
 2878SOL    HW2 9445   0.259   3.581   4.013 -1.6227 -1.3564 -1.3049
 2879SOL     OW 9446   5.892   3.350   6.658  0.1997  0.0698  0.1422
 2879SOL    HW1 9447   5.961   3.322   6.717 -0.5187  1.2743  1.6118
 2879SOL    HW2 9448   5.861   3.433   6.694 -4.2029 -1.8642  1.4926
 2880SOL     OW 9449   5.018   4.607   4.911 -0.0466 -0.3062  0.7700
 2880SOL    HW1 9450   4.955   4.556   4.961 -0.1684 -0.7448  0.1765
 2880SOL    HW2 9451   5.090   4.547   4.894  0.8800  0.3931  2.0511
 2881SOL     OW 9452   3.725   5.550   5.932  0.0409  0.4205 -0.3213
 2881SOL    HW1 9453   3.663   5.480   5.909 -0.0889  0.2061  0.6275
 2881SOL    HW2 9454   3.810   5.507   5.932 -0.2145 -0.2711  2.1221
 2882SOL     OW 9455   0.413   0.880   7.308 -0.4185  0.4456  0.0864
 2882SOL    HW1 9456   0.425   0.788   7.330  0.8831  0.6914  0.5242
 2882SOL    HW2 9457   0.493   0.903   7.260  0.0355  1.7601  1.4145
 2883SOL     OW 9458   0.986   5.546   2.353 -0.0512 -0.5796 -0.4859
 2883SOL    HW1 9459   0.969   5.584   2.439 -1.3025  1.9537 -1.7534
 2883SOL    HW2 9460   0.976   5.452   2.367 -4.2988 -0.0829  1.3913
 2884SOL     OW 9461   7.401   5.282   0.200  0.3203 -0.0924  0.0091
 2884SOL    HW1 9462   7.479   5.239   0.165  0.3135 -0.3436  0.3008
 2884SOL    HW2 9463   7.328   5.234   0.162  0.3074 -1.2639  1.4373
 2885SOL     OW 9464   3.467   0.379   3.608 -0.1821  0.4654  0.0781
 2885SOL    HW1 9465   3.515   0.452   3.568 -0.9480  0.9685  0.0618
 2885SOL    HW2 9466   3.375   0.404   3.602 -0.3650  0.2065  1.4784
 2886SOL     OW 9467   7.324   0.541   6.532  0.7126  0.1110 -0.0273
 2886SOL    HW1 9468   7.232   0.521   6.546  0.0732  1.3343 -2.1068
 2886SOL    HW2 9469   7.355   0.472   6.474  0.2927  1.2504 -1.6762
 2887SOL     OW 9470   2.391   3.207   0.148  0.4917 -0.2335  0.9770
 2887SOL    HW1 9471   2.480   3.229   0.121  0.5643 -0.9050  0.6476
 2887SOL    HW2 9472   2.367   3.133   0.092 -1.1721  1.4395 -0.7082
 2888SOL     OW 9473   2.108   3.768   3.575  0.9430  0.0059 -0.2252
 2888SOL    HW1 9474   2.200   3.757   3.600  0.6774  2.1246  2.0405
 2888SOL    HW2 9475   2.112   3.804   3.486  2.2423 -0.8670 -0.5547
 2889SOL     OW 9476   3.929   2.402   4.158  0.8118  0.3368  0.4162
 2889SOL    HW1 9477   3.985   2.342   4.207  0.3608  0.0951  0.6357
 2889SOL    HW2 9478   3.948   2.383   4.066  1.7855  0.9093  0.4874
 2890SOL     OW 9479   0.047   5.077   3.097  0.5323 -0.8950  0.0826
 2890SOL    HW1 9480  -0.046   5.085   3.117  0.5405 -1.2331  0.2656
 2890SOL    HW2 9481   0.082   5.165   3.112  0.6705 -1.2494  2.2987
 2891SOL     OW 9482   1.280   4.235   2.702 -0.4748  0.1207 -0.2933
 2891SOL    HW1 9483   1.260   4.157   2.755  1.0140 -0.1860 -0.1452
 2891SOL    HW2 9484   1.374   4.230   2.687 -0.1269  2.4958  0.6879
 2892SOL     OW 9485   7.346   5.162   2.892  0.1451 -0.1163  0.3658
 2892SOL    HW1 9486   7.355   5.070   2.916 -0.4692  0.0102  1.0961
 2892SOL    HW2 9487   7.254   5.172   2.867  0.2024  0.3058  0.3023
 2893SOL     OW 9488   7.993   0.646   4.516  0.1501  0.0104  0.1526
 2893SOL    HW1 9489   7.952   0.572   4.560  1.4514 -0.5784  0.4382
 2893SOL    HW2 9490   7.922   0.709   4.502 -0.8888 -1.0909  0.3182
 2894SOL     OW 9491   1.489   4.192   6.439  0.0994 -0.1766  0.0758
 2894SOL    HW1 9492   1.447   4.278   6.437  0.7972  0.2191  1.2042
 2894SOL    HW2 9493   1.525   4.181   6.352 -1.2444  0.0154 -0.5347
 2895SOL     OW 9494   1.850   0.048   3.883  0.3213 -0.7265  0.9463
 2895SOL    HW1 9495   1.864  -0.010   3.958  0.0629 -1.8113  0.1677
 2895SOL    HW2 9496   1.876  -0.003   3.807 -1.6713 -0.5161  0.0546
 2896SOL     OW 9497   5.078   3.002   4.383  0.1715 -0.6921 -0.3220
 2896SOL    HW1 9498   5.101   3.093   4.398  1.0404 -1.3586  3.3183
 2896SOL    HW2 9499   4.991   2.992   4.422  0.1267 -1.4426 -0.5919
 2897SOL     OW 9500   7.445   0.228   2.444 -0.3343 -0.1516  0.1115
 2897SOL    HW1 9501   7.444   0.134   2.464 -1.3791 -0.4149 -1.0717
 2897SOL    HW2 9502   7.358   0.246   2.409 -0.2299  1.3309  0.5564
 2898SOL     OW 9503   7.755   6.713   6.152  0.0914 -0.1644 -0.2319
 2898SOL    HW1 9504   7.829   6.706   6.091  1.3556 -0.4778  1.2917
 2898SOL    HW2 9505   7.767   6.641   6.214 -0.9666  0.3496  0.6050
 2899SOL     OW 9506   4.748   3.582   4.990  0.3324  0.2324 -0.2902
 2899SOL    HW1 9507   4.720   3.618   4.906  1.4305  0.5532 -0.5397
 2899SOL    HW2 9508   4.713   3.643   5.055 -1.2180 -0.4612 -0.4414
 2900SOL     OW 9509   7.014   6.442   5.324  0.3557 -0.0729  0.4587
 2900SOL    HW1 9510   7.108   6.440   5.311  0.1069 -2.8237 -2.0364
 2900SOL    HW2 9511   6.977   6.423   5.237 -2.4369 -0.7682  1.6736
 2901SOL     OW 9512   6.590   0.882   4.661 -0.4458 -0.2694 -0.6641
 2901SOL    HW1 9513   6.552   0.960   4.622 -0.0554  1.8761  2.7623
 2901SOL    HW2 9514   6.533   0.864   4.737  1.3403 -1.2509  0.5070
 2902SOL     OW 9515   5.687   6.597   2.163 -0.0285 -0.3413 -0.4600
 2902SOL    HW1 9516   5.688   6.675   2.107 -1.5997  0.9359  1.1989
 2902SOL    HW2 9517   5.600   6.595   2.201  0.6768 -1.7002  1.2250
 2903SOL     OW 9518   1.252   0.012   6.292 -0.4918 -1.2828  0.3143
 2903SOL    HW1 9519   1.223  -0.051   6.357 -1.5519 -0.6507  0.4744
 2903SOL    HW2 9520   1.235   0.097   6.332 -0.6705 -0.8883 -0.5725
 2904SOL     OW 9521   3.976   2.680   2.253  0.5903  0.2882 -0.5337
 2904SOL    HW1 9522   4.053   2.695   2.197  2.1913 -0.1090  1.4288
 2904SOL    HW2 9523   3.980   2.751   2.317  0.4429 -0.8125  0.7284
 2905SOL     OW 9524   3.938   2.474   3.121  0.6042  1.0765  0.4758
 2905SOL    HW1 9525   4.020   2.453   3.076  0.0336  0.4459 -0.3153
 2905SOL    HW2 9526   3.962   2.539   3.186  1.4795  2.0067 -0.7290
 2906SOL     OW 9527   5.764   7.311   6.775  0.4089  0.0831  0.6000
 2906SOL    HW1 9528   5.737   7.397   6.743 -0.3394 -0.4082 -0.1227
 2906SOL    HW2 9529   5.747   7.252   6.702 -1.7854 -1.1576  2.0141
 2907SOL     OW 9530   4.321   5.890   5.841  0.1678  0.1324 -0.3655
 2907SOL    HW1 9531   4.275   5.973   5.841 -0.5355 -0.2497 -0.3612
 2907SOL    HW2 9532   4.290   5.845   5.762  0.9736  0.1023 -0.6818
 2908SOL     OW 9533   3.403   5.261   3.567 -0.0623 -0.5064 -0.0097
 2908SOL    HW1 9534   3.437   5.172   3.575  1.2207  0.0375  0.8733
 2908SOL    HW2 9535   3.321   5.260   3.618  0.3814 -0.9723  0.7120
 2909SOL     OW 9536   4.102   5.455   3.197  0.2142 -0.2029  0.4488
 2909SOL    HW1 9537   4.083   5.414   3.281  0.2684 -0.1654  0.4801
 2909SOL    HW2 9538   4.021   5.499   3.172  0.4822  0.6054  0.9558
 2910SOL     OW 9539   2.085   2.071   1.121 -0.5375 -0.2136  0.2446
 2910SOL    HW1 9540   1.994   2.070   1.093 -1.0432 -0.3584  1.7968
 2910SOL    HW2 9541   2.102   2.162   1.146 -0.3772 -0.2633  0.3219
 2911SOL     OW 9542   6.985   5.345   3.347  0.4445 -0.0876 -0.2865
 2911SOL    HW1 9543   6.926   5.270   3.338 -1.0232  0.9559  0.2010
 2911SOL    HW2 9544   6.989   5.361   3.442  1.1075  0.1617 -0.3559
 2912SOL     OW 9545   5.658   0.480   5.207  0.3244  0.1311 -0.5712
 2912SOL    HW1 9546   5.734   0.422   5.213  0.8049  0.8033 -0.0102
 2912SOL    HW2 9547   5.598   0.434   5.149  0.8184 -0.7871 -0.3788
 2913SOL     OW 9548   2.720   3.423   6.442  0.2892 -0.1036 -0.6948
 2913SOL    HW1 9549   2.667   3.450   6.367 -1.0463 -1.5365 -0.3253
 2913SOL    HW2 9550   2.707   3.329   6.447  0.3545 -0.0413  1.3233
 2914SOL     OW 9551   3.935   7.099   6.999 -0.5247 -0.8714 -0.7660
 2914SOL    HW1 9552   3.929   7.190   6.968  1.5964 -0.2706  0.4369
 2914SOL    HW2 9553   3.865   7.054   6.952  1.3843  0.2896 -5.2782
 2915SOL     OW 9554   6.307   2.947   0.024 -0.3240  0.4967 -0.2715
 2915SOL    HW1 9555   6.396   2.981   0.021 -0.4254  0.8953  0.6692
 2915SOL    HW2 9556   6.256   3.017   0.065 -0.8005 -0.2591  0.4635
 2916SOL     OW 9557   5.218   2.669   6.751  0.4037 -0.0606 -0.0075
 2916SOL    HW1 9558   5.291   2.701   6.698 -1.5084 -0.1825 -2.9730
 2916SOL    HW2 9559   5.217   2.725   6.828  0.6123  3.3410 -2.2866
 2917SOL     OW 9560   7.518   0.969   5.396  0.3158 -0.3190  0.2729
 2917SOL    HW1 9561   7.501   1.021   5.474  1.5860  0.7448 -0.1159
 2917SOL    HW2 9562   7.458   0.895   5.402  0.0462  0.0101  1.9934
 2918SOL     OW 9563   0.149   4.622   2.039  0.1701  0.8499  0.6265
 2918SOL    HW1 9564   0.089   4.697   2.044  0.4535  1.1190  0.1206
 2918SOL    HW2 9565   0.162   4.595   2.130 -1.4668  0.1866  0.7054
 2919SOL     OW 9566   6.477   2.267   4.684  0.4506  0.1699 -0.2881
 2919SOL    HW1 9567   6.407   2.250   4.621  1.4313 -0.0738 -1.3565
 2919SOL    HW2 9568   6.457   2.212   4.759  0.4595 -1.2967 -1.3272
 2920SOL     OW 9569   3.356   7.178   7.559 -0.1923 -0.2032 -0.6582
 2920SOL    HW1 9570   3.410   7.115   7.607  0.0653  0.9094  0.5537
 2920SOL    HW2 9571   3.285   7.201   7.619 -1.9899 -1.5239 -2.1746
 2921SOL     OW 9572   1.051   0.443   0.043  0.1742  0.3800  0.0093
 2921SOL    HW1 9573   1.127   0.391   0.014  0.4572  0.3880  0.6956
 2921SOL    HW2 9574   1.087   0.530   0.060 -0.3176  0.8401 -1.2112
 2922SOL     OW 9575   3.908   6.205   7.647 -0.0148  0.5508  0.0326
 2922SOL    HW1 9576   3.817   6.233   7.644 -0.5972 -1.3350 -0.6936
 2922SOL    HW2 9577   3.946   6.238   7.565 -0.6313 -0.5026 -0.6986
 2923SOL     OW 9578   7.509   2.376   4.710  0.0016  0.3269  0.0304
 2923SOL    HW1 9579   7.471   2.459   4.682 -0.2703  0.0672 -0.3765
 2923SOL    HW2 9580   7.439   2.313   4.700  1.1501 -0.6125 -2.9777
 2924SOL     OW 9581   4.819   3.730   3.914  0.6270 -0.0643 -0.0093
 2924SOL    HW1 9582   4.891   3.688   3.869  0.0281 -0.6724 -0.4220
 2924SOL    HW2 9583   4.793   3.668   3.982  0.6832  0.2836  0.3362
 2925SOL     OW 9584   7.084   0.051   1.476  0.8950  0.1855 -0.0766
 2925SOL    HW1 9585   7.163   0.090   1.438  1.1260 -1.5391 -1.5341
 2925SOL    HW2 9586   7.115  -0.030   1.517  0.2973  0.9515  1.9758
 2926SOL     OW 9587   6.584   0.132   6.754  0.4462  0.0470 -0.0390
 2926SOL    HW1 9588   6.666   0.123   6.707  0.8263  0.7077  0.4647
 2926SOL    HW2 9589   6.526   0.180   6.695  0.6856  0.2594 -0.0990
 2927SOL     OW 9590   0.889   1.645   2.970 -0.1522  0.1892 -0.2626
 2927SOL    HW1 9591   0.890   1.577   3.038  0.0213 -1.4773 -1.8559
 2927SOL    HW2 9592   0.973   1.634   2.925 -0.1785  1.4132 -0.6403
 2928SOL     OW 9593   2.957   3.914   1.882 -0.3652  0.2461 -0.2110
 2928SOL    HW1 9594   2.874   3.951   1.912 -0.4802  1.9826 -2.4368
 2928SOL    HW2 9595   3.024   3.968   1.924 -0.4528  0.6725 -0.6078
 2929SOL     OW 9596   1.099   5.521   5.070  0.1548  0.5681 -0.3578
 2929SOL    HW1 9597   1.074   5.515   4.978  2.9399  1.8061 -1.3273
 2929SOL    HW2 9598   1.042   5.588   5.106 -0.3569  0.7458 -1.4560
 2930SOL     OW 9599   3.936   2.301   5.995 -0.1262  0.3787 -0.2810
 2930SOL    HW1 9600   4.004   2.325   6.058  0.9136 -2.0193 -0.3876
 2930SOL    HW2 9601   3.881   2.379   5.989  2.2291  2.2223  0.2836
 2931SOL     OW 9602   2.170   0.657   7.941 -0.4556  0.1242 -0.2658
 2931SOL    HW1 9603   2.213   0.715   7.879 -0.9643  1.2792  0.4270
 2931SOL    HW2 9604   2.152   0.712   8.018 -0.3525 -1.1126  0.6851
 2932SOL     OW 9605   0.816   3.265   6.343  0.3566  0.3875 -0.1233
 2932SOL    HW1 9606   0.820   3.236   6.434  3.0896 -0.1794 -0.3408
 2932SOL    HW2 9607   0.828   3.186   6.292 -0.0834  0.8454 -0.9544
 2933SOL     OW 9608   4.503   7.339   3.285 -0.5912 -0.2061 -0.1441
 2933SOL    HW1 9609   4.477   7.367   3.197  1.5019  0.0398 -0.7351
 2933SOL    HW2 9610   4.465   7.405   3.343 -0.5176  0.6333 -1.0282
 2934SOL     OW 9611   4.141   4.538   4.972  0.2051 -0.2550 -0.1807
 2934SOL    HW1 9612   4.082   4.561   4.900  0.8980 -0.0463 -0.6810
 2934SOL    HW2 9613   4.106   4.455   5.005 -1.0945  0.4471  0.3230
 2935SOL     OW 9614   1.843   1.189   5.436  0.7234 -0.2695 -0.7090
 2935SOL    HW1 9615   1.914   1.253   5.450  0.4326  0.2840 -1.6519
 2935SOL    HW2 9616   1.765   1.234   5.467  0.8583 -1.1342  0.9558
 2936SOL     OW 9617   3.050   7.082   7.483  0.0179  0.1318 -0.0172
 2936SOL    HW1 9618   3.140   7.054   7.500 -0.2663 -0.6188  0.2920
 2936SOL    HW2 9619   3.042   7.167   7.528  0.5902  0.2409 -0.1162
 2937SOL     OW 9620   1.570   5.853   6.447  0.2493 -0.0514 -0.5205
 2937SOL    HW1 9621   1.596   5.918   6.512  0.5496 -1.5742  0.9732
 2937SOL    HW2 9622   1.484   5.882   6.417 -2.1356 -1.4978  3.9181
 2938SOL     OW 9623   7.138   6.586   7.252 -0.5931  0.3388 -0.4704
 2938SOL    HW1 9624   7.050   6.564   7.220 -0.5664  0.5220 -0.6672
 2938SOL    HW2 9625   7.167   6.507   7.297 -1.8346  1.0508  1.7224
 2939SOL     OW 9626   6.143   5.924   3.213  0.1735 -0.2714 -0.2579
 2939SOL    HW1 9627   6.182   5.890   3.132  0.4666 -0.6146  0.0239
 2939SOL    HW2 9628   6.048   5.915   3.199  0.1231  1.5298 -1.3562
 2940SOL     OW 9629   6.201   6.365   0.039 -0.1200  0.3476  0.0345
 2940SOL    HW1 9630   6.253   6.289   0.015 -1.4043 -0.3784 -0.4952
 2940SOL    HW2 9631   6.264   6.438   0.037  0.5435 -0.2083 -2.2863
 2941SOL     OW 9632   2.472   1.555   1.475 -0.3825 -0.2023  0.6473
 2941SOL    HW1 9633   2.505   1.509   1.552  1.5780 -0.7054 -0.4052
 2941SOL    HW2 9634   2.532   1.529   1.405 -0.3905  2.4054 -0.4375
 2942SOL     OW 9635   7.673   7.621   1.188 -0.7783 -0.1243  0.2328
 2942SOL    HW1 9636   7.758   7.578   1.179 -0.3527  0.3529  1.7312
 2942SOL    HW2 9637   7.614   7.569   1.133  0.1740 -1.3182  0.3000
 2943SOL     OW 9638   5.340   2.547   7.583 -0.6458 -0.4404  0.0157
 2943SOL    HW1 9639   5.408   2.489   7.548  0.7622  0.8647  0.4234
 2943SOL    HW2 9640   5.344   2.535   7.677 -0.7982 -0.1700  0.0574
 2944SOL     OW 9641   1.414   7.179   3.340 -0.0254  0.2415  0.3495
 2944SOL    HW1 9642   1.403   7.089   3.309  0.5935  0.4164 -0.3924
 2944SOL    HW2 9643   1.344   7.190   3.405 -1.2776 -0.1756 -0.8781
 2945SOL     OW 9644   1.984   1.261   4.881 -0.0263  0.3256 -0.1415
 2945SOL    HW1 9645   2.040   1.221   4.947 -0.1315 -0.0831 -0.2922
 2945SOL    HW2 9646   1.919   1.193   4.861 -1.3244  1.2185  0.9238
 2946SOL     OW 9647   5.578   1.674   3.995  0.2560 -0.5584 -0.3317
 2946SOL    HW1 9648   5.661   1.647   4.036  0.2073 -0.9472 -0.4821
 2946SOL    HW2 9649   5.515   1.609   4.027  0.4290 -1.5506 -1.8817
 2947SOL     OW 9650   0.512   4.231   2.267  0.5019  0.2819  0.0977
 2947SOL    HW1 9651   0.448   4.267   2.204 -1.6840  1.0468  2.5783
 2947SOL    HW2 9652   0.459   4.177   2.326  1.9090  1.7492  2.8932
 2948SOL     OW 9653   4.478   2.097   0.819  0.1913 -0.2472  0.2782
 2948SOL    HW1 9654   4.533   2.029   0.858  2.0634  0.9247 -0.1296
 2948SOL    HW2 9655   4.469   2.071   0.728 -0.0272 -0.5139  0.3768
 2949SOL     OW 9656   6.986   0.321   1.431  0.0382 -0.1343  0.5483
 2949SOL    HW1 9657   7.062   0.375   1.456  1.3970 -0.8674 -1.7606
 2949SOL    HW2 9658   6.998   0.239   1.480  1.2661 -0.5847 -0.4521
 2950SOL     OW 9659   7.286   1.247   5.667  0.1521 -0.0399 -0.0953
 2950SOL    HW1 9660   7.260   1.155   5.658 -0.1812  0.1739 -1.5563
 2950SOL    HW2 9661   7.314   1.255   5.758 -1.1077 -1.2546  0.4414
 2951SOL     OW 9662   7.184   7.827   0.470 -0.0527 -0.2011  0.8018
 2951SOL    HW1 9663   7.201   7.853   0.379  0.6137  2.4255  1.5943
 2951SOL    HW2 9664   7.151   7.906   0.512  1.3056 -0.8466  3.2883
 2952SOL     OW 9665   3.476   1.741   2.210  0.3713 -0.2541 -0.5337
 2952SOL    HW1 9666   3.392   1.787   2.224 -0.8193 -2.1684 -1.0327
 2952SOL    HW2 9667   3.529   1.765   2.286 -0.5204  1.1813 -0.3143
 2953SOL     OW 9668   6.064   4.210   6.570 -0.2747  0.5653 -0.5951
 2953SOL    HW1 9669   6.137   4.156   6.540 -1.5074  0.3304 -3.5736
 2953SOL    HW2 9670   6.078   4.295   6.528 -1.1526  0.8272 -0.3871
 2954SOL     OW 9671   0.371   0.514   6.334  0.0219  0.1982  0.5222
 2954SOL    HW1 9672   0.343   0.476   6.417  0.1992  0.7865  0.8607
 2954SOL    HW2 9673   0.455   0.472   6.315 -0.0387  0.0344  0.6162
 2955SOL     OW 9674   6.229   0.734   4.389  0.1492 -0.0260 -0.0915
 2955SOL    HW1 9675   6.223   0.817   4.342  0.4930  1.1371  1.7791
 2955SOL    HW2 9676   6.161   0.741   4.457  0.9329 -0.7665  0.8000
 2956SOL     OW 9677   0.992   3.928   1.250  0.4256  0.2413 -0.1655
 2956SOL    HW1 9678   1.025   3.867   1.184  0.5999  1.3387 -1.1259
 2956SOL    HW2 9679   0.904   3.951   1.219  0.8413  1.4375 -0.5129
 2957SOL     OW 9680   0.108   3.989   5.314 -0.1675  0.4130 -0.3228
 2957SOL    HW1 9681   0.047   3.988   5.240 -0.7890 -0.6707  0.1737
 2957SOL    HW2 9682   0.052   3.998   5.391  0.2390 -1.0076  0.1701
 2958SOL     OW 9683   5.070   2.551   5.501 -0.1177 -0.2475 -0.4535
 2958SOL    HW1 9684   4.977   2.553   5.479 -0.1491 -0.7870 -0.3624
 2958SOL    HW2 9685   5.114   2.550   5.416 -0.1748  0.6182 -0.5047
 2959SOL     OW 9686   7.200   4.580   3.503  0.0071 -0.1247  0.1214
 2959SOL    HW1 9687   7.192   4.580   3.408  0.3494  0.6231  0.0829
 2959SOL    HW2 9688   7.150   4.503   3.532  0.4519 -0.7430 -0.7058
 2960SOL     OW 9689   6.971   3.668   6.871  0.1244 -0.1314  0.2841
 2960SOL    HW1 9690   7.032   3.689   6.942  1.4434  0.9295 -1.1107
 2960SOL    HW2 9691   6.887   3.655   6.915  0.6358  1.6878  1.9255
 2961SOL     OW 9692   1.711   1.275   5.146 -0.2188 -0.5512  0.2586
 2961SOL    HW1 9693   1.778   1.254   5.210  0.0121 -0.3409  0.0875
 2961SOL    HW2 9694   1.639   1.215   5.166  0.2059 -1.1116  0.1419
 2962SOL     OW 9695   6.581   0.492   0.661  0.9439 -0.5215  0.0854
 2962SOL    HW1 9696   6.496   0.456   0.686  0.3408  1.2030  0.6731
 2962SOL    HW2 9697   6.621   0.423   0.608  0.4218 -2.5514  2.1575
 2963SOL     OW 9698   1.880   5.772   7.990 -0.1342  0.8714  0.5586
 2963SOL    HW1 9699   1.936   5.695   7.996  1.9339  2.2855  0.3744
 2963SOL    HW2 9700   1.807   5.744   7.935  0.4126 -1.0052  0.7095
 2964SOL     OW 9701   7.659   3.852   4.888 -0.0154 -0.0739  0.1361
 2964SOL    HW1 9702   7.633   3.775   4.839  0.0807  0.3718 -0.6389
 2964SOL    HW2 9703   7.729   3.822   4.946 -1.6894 -1.1304  1.7213
 2965SOL     OW 9704   0.346   7.832   0.079  0.0163 -0.2483  0.2837
 2965SOL    HW1 9705   0.314   7.890   0.011 -0.6079 -1.5562 -0.5910
 2965SOL    HW2 9706   0.274   7.827   0.143  0.1991  0.1854  0.5249
 2966SOL     OW 9707   6.436   3.975   2.370 -0.1234 -0.2216 -0.0635
 2966SOL    HW1 9708   6.495   3.931   2.308  1.1228 -0.4172  1.2184
 2966SOL    HW2 9709   6.357   3.993   2.319  1.3074  0.7481 -2.0760
 2967SOL     OW 9710   4.011   7.938   1.524  0.2111  0.5012 -0.6945
 2967SOL    HW1 9711   4.079   7.938   1.457  2.3630 -1.5415  1.2905
 2967SOL    HW2 9712   3.933   7.906   1.479  1.8417 -1.8407 -2.1193
 2968SOL     OW 9713   2.338   3.430   3.103 -0.0048 -0.3462 -0.0099
 2968SOL    HW1 9714   2.429   3.431   3.074 -0.1607 -0.5662 -0.5184
 2968SOL    HW2 9715   2.294   3.494   3.048 -0.3023 -0.7632 -0.2689
 2969SOL     OW 9716   2.530   7.894   3.002 -0.0664 -0.0664 -0.1592
 2969SOL    HW1 9717   2.626   7.900   3.011  0.3478 -2.2887 -2.0140
 2969SOL    HW2 9718   2.513   7.800   2.996 -2.1841  0.3475 -1.5049
 2970SOL     OW 9719   1.712   4.777   6.814 -0.0111  0.0384  0.2280
 2970SOL    HW1 9720   1.675   4.864   6.803 -0.0238 -0.1798 -1.7997
 2970SOL    HW2 9721   1.736   4.750   6.726  0.4256 -1.8299  0.8784
 2971SOL     OW 9722   5.418   0.877   5.380  0.1744 -0.1382  0.2904
 2971SOL    HW1 9723   5.392   0.799   5.331  1.8236 -1.4695  1.4241
 2971SOL    HW2 9724   5.425   0.946   5.313  1.3497 -1.6280 -1.1989
 2972SOL     OW 9725   7.984   0.110   3.784 -0.9267 -0.0550  0.1249
 2972SOL    HW1 9726   7.995   0.018   3.759  0.6089  0.1705 -0.1382
 2972SOL    HW2 9727   7.890   0.124   3.783 -1.1426 -1.3594 -0.8136
 2973SOL     OW 9728   4.922   1.127   2.235  0.1856  0.4250 -0.3438
 2973SOL    HW1 9729   4.886   1.147   2.149 -0.2981  1.8114  0.1532
 2973SOL    HW2 9730   4.998   1.186   2.243 -0.1793  0.7976  0.4407
 2974SOL     OW 9731   7.946   1.173   4.979  0.9842  0.0225 -0.1670
 2974SOL    HW1 9732   7.866   1.189   4.929  0.7568 -0.5225  0.0110
 2974SOL    HW2 9733   8.012   1.228   4.937  0.9870 -1.0095 -1.5881
 2975SOL     OW 9734   6.683   5.419   3.520  0.0185  0.1268  0.0297
 2975SOL    HW1 9735   6.678   5.355   3.448 -0.4127 -0.5771  0.6664
 2975SOL    HW2 9736   6.767   5.401   3.561  0.4057  0.7400 -0.4839
 2976SOL     OW 9737   5.690   3.357   1.456  0.3929 -0.0915 -0.3859
 2976SOL    HW1 9738   5.595   3.362   1.443  0.3485 -1.7278 -0.9322
 2976SOL    HW2 9739   5.724   3.322   1.373  1.1636 -1.9516  0.6421
 2977SOL     OW 9740   1.086   0.692   4.122 -0.5144  0.3995  0.5507
 2977SOL    HW1 9741   1.051   0.617   4.170 -1.0150  0.1441 -0.1880
 2977SOL    HW2 9742   1.035   0.694   4.041 -0.1354  1.2145  0.3227
 2978SOL     OW 9743   5.305   0.637   5.220 -0.4971 -0.3114 -0.1775
 2978SOL    HW1 9744   5.335   0.547   5.224  1.8531  0.4451  0.8374
 2978SOL    HW2 9745   5.342   0.670   5.138  2.2918  0.8178  1.3958
 2979SOL     OW 9746   6.171   1.622   6.677  0.2522 -0.0399  0.2606
 2979SOL    HW1 9747   6.142   1.596   6.764 -0.4919  2.8125  0.9551
 2979SOL    HW2 9748   6.118   1.569   6.617 -1.8418  0.4677  1.5531
 2980SOL     OW 9749   1.463   3.019   7.416 -0.1652  0.1615  0.3623
 2980SOL    HW1 9750   1.380   2.980   7.386  0.2176  1.9229 -3.6904
 2980SOL    HW2 9751   1.527   2.950   7.403 -0.6937 -0.6745  1.9428
 2981SOL     OW 9752   2.145   7.805   1.725 -1.0088 -0.0965  0.4007
 2981SOL    HW1 9753   2.167   7.884   1.776 -0.1473  0.3399 -0.5966
 2981SOL    HW2 9754   2.229   7.778   1.686 -1.9383  0.8634 -2.5130
 2982SOL     OW 9755   6.081   4.514   0.018  0.0838 -0.8673  0.2882
 2982SOL    HW1 9756   6.172   4.492   0.037 -1.2815 -5.4275  3.2094
 2982SOL    HW2 9757   6.055   4.454  -0.051 -1.3554 -1.7695  1.5338
 2983SOL     OW 9758   1.313   5.476   2.037  0.1593 -0.0182 -0.5060
 2983SOL    HW1 9759   1.332   5.506   2.126 -0.0127 -0.6445 -0.2557
 2983SOL    HW2 9760   1.364   5.535   1.981 -1.4411  1.8387 -0.1407
 2984SOL     OW 9761   4.081   2.693   0.523 -0.0383 -0.0756  0.3065
 2984SOL    HW1 9762   4.039   2.623   0.472 -2.1024  1.3258 -0.0418
 2984SOL    HW2 9763   4.023   2.768   0.513  2.5111  1.9665  0.0479
 2985SOL     OW 9764   1.116   6.230   1.870  0.0697 -0.6435  0.3543
 2985SOL    HW1 9765   1.180   6.218   1.939 -0.2533  0.7234  0.9249
 2985SOL    HW2 9766   1.118   6.148   1.821  1.7227 -0.8979  0.7858
 2986SOL     OW 9767   7.627   6.913   0.387 -0.1617  0.2192  0.8598
 2986SOL    HW1 9768   7.707   6.949   0.425  0.9621 -0.9631 -0.2823
 2986SOL    HW2 9769   7.557   6.945   0.443  1.0066  2.1021  1.3035
 2987SOL     OW 9770   1.867   3.521   4.868  0.2672  0.4811  0.1266
 2987SOL    HW1 9771   1.822   3.605   4.871 -0.3176  0.1736  0.1408
 2987SOL    HW2 9772   1.891   3.504   4.960 -1.2089 -0.2037  0.4097
 2988SOL     OW 9773   4.810   7.178   7.898 -0.2279  0.6859  0.5557
 2988SOL    HW1 9774   4.853   7.202   7.980  1.2298  0.1517 -0.0263
 2988SOL    HW2 9775   4.866   7.214   7.830 -1.2157  0.7784 -0.2231
 2989SOL     OW 9776   4.072   3.735   1.108 -0.2126  0.4823  0.2794
 2989SOL    HW1 9777   4.032   3.655   1.074  1.8027 -0.7655  0.6302
 2989SOL    HW2 9778   4.008   3.771   1.168 -0.8445 -1.3851  0.7918
 2990SOL     OW 9779   6.413   6.207   3.131  0.2435 -0.0697  0.2558
 2990SOL    HW1 9780   6.379   6.243   3.048 -1.5748  0.0925  1.0222
 2990SOL    HW2 9781   6.454   6.282   3.174  0.2328  0.0972 -0.0192
 2991SOL     OW 9782   5.048   1.456   0.107 -0.5886 -0.8776 -0.1331
 2991SOL    HW1 9783   5.060   1.531   0.166 -0.7733 -1.1286  0.2303
 2991SOL    HW2 9784   5.085   1.382   0.155  1.1620 -0.7437 -1.2030
 2992SOL     OW 9785   7.089   4.290   1.736 -0.1045 -0.7114 -0.2604
 2992SOL    HW1 9786   7.108   4.360   1.798 -1.2674 -0.8820  0.3078
 2992SOL    HW2 9787   7.027   4.328   1.674 -1.7693 -1.5915  0.8134
 2993SOL     OW 9788   1.030   6.587   5.964 -0.3574 -0.6359 -0.2087
 2993SOL    HW1 9789   1.125   6.585   5.961 -0.3781 -1.1446 -1.0241
 2993SOL    HW2 9790   1.007   6.674   5.930 -0.1900 -0.7211 -0.5491
 2994SOL     OW 9791   4.562   5.133   7.251 -0.0737 -0.2420 -0.3721
 2994SOL    HW1 9792   4.559   5.101   7.341 -0.6490  1.0906  0.1083
 2994SOL    HW2 9793   4.543   5.227   7.258  0.5928  0.0287 -1.8127
 2995SOL     OW 9794   2.001   1.367   4.184  1.1347 -0.0194 -0.1085
 2995SOL    HW1 9795   2.036   1.442   4.136  0.1174  1.5964  1.5443
 2995SOL    HW2 9796   1.906   1.380   4.182  0.8278 -2.1126 -1.0506
 2996SOL     OW 9797   5.909   0.129   5.564 -0.7431  0.0747  0.3594
 2996SOL    HW1 9798   5.814   0.124   5.573 -1.0631 -0.3827 -2.3250
 2996SOL    HW2 9799   5.927   0.083   5.482  1.7330  0.7344  0.4718
 2997SOL     OW 9800   2.204   4.118   3.450  0.2780  0.1352 -0.2514
 2997SOL    HW1 9801   2.189   4.198   3.400 -0.9553 -0.6148 -1.1462
 2997SOL    HW2 9802   2.265   4.144   3.520 -1.0620  2.1368  0.2504
 2998SOL     OW 9803   3.319   0.312   1.397  0.5730  0.3949  0.1689
 2998SOL    HW1 9804   3.305   0.369   1.472 -1.0144 -0.1799  0.3314
 2998SOL    HW2 9805   3.381   0.246   1.428  0.0951  0.2868  0.9134
 2999SOL     OW 9806   7.201   5.471   7.011 -0.3755  0.4065  0.0835
 2999SOL    HW1 9807   7.190   5.378   6.992  1.4222  0.0904  0.3843
 2999SOL    HW2 9808   7.203   5.475   7.107 -2.7513  1.1069  0.1743
 3000SOL     OW 9809   2.189   4.802   4.179  0.1795  0.1017 -0.4934
 3000SOL    HW1 9810   2.130   4.741   4.224  1.9225 -0.0732  1.7294
 3000SOL    HW2 9811   2.264   4.748   4.153  1.2031  1.0321  0.4258
 3001SOL     OW 9812   5.936   5.705   2.857 -0.3230 -0.0423 -0.2220
 3001SOL    HW1 9813   6.023   5.742   2.874  1.8364 -3.7117 -2.0349
 3001SOL    HW2 9814   5.911   5.664   2.940  1.1329 -1.4374 -0.4172
 3002SOL     OW 9815   3.532   0.926   3.364 -0.0542 -0.2792  0.3219
 3002SOL    HW1 9816   3.481   0.997   3.327 -1.7978 -0.0996  2.7527
 3002SOL    HW2 9817   3.606   0.968   3.408  1.1086 -0.3690 -1.4455
 3003SOL     OW 9818   2.193   6.674   3.127  0.4906 -0.5454  0.1573
 3003SOL    HW1 9819   2.146   6.608   3.179 -0.3961 -0.1819 -0.1599
 3003SOL    HW2 9820   2.286   6.656   3.143  0.2506 -1.4590  0.5832
 3004SOL     OW 9821   7.002   2.781   6.208  0.0506 -0.0575 -0.0677
 3004SOL    HW1 9822   6.941   2.787   6.282  2.2740  1.0383  1.8301
 3004SOL    HW2 9823   6.950   2.806   6.132 -1.5915  2.1204  1.6341
 3005SOL     OW 9824   2.833   4.850   7.361  0.1044 -0.4096  0.7853
 3005SOL    HW1 9825   2.907   4.811   7.407  0.5648 -1.5180 -0.8009
 3005SOL    HW2 9826   2.810   4.785   7.294 -2.1303  0.0340  1.0607
 3006SOL     OW 9827   1.860   1.294   2.894  0.5043  0.2959  0.0886
 3006SOL    HW1 9828   1.879   1.369   2.837  0.4895  0.7678  0.7011
 3006SOL    HW2 9829   1.889   1.321   2.981  0.4443 -0.3888  0.3309
 3007SOL     OW 9830   4.434   3.783   4.441  0.2468  0.4325 -0.3511
 3007SOL    HW1 9831   4.383   3.831   4.375  0.0915 -0.7531 -1.1206
 3007SOL    HW2 9832   4.402   3.818   4.525 -0.5591  0.9802 -0.8662
 3008SOL     OW 9833   6.128   3.813   2.375  0.4992 -0.3148 -0.0651
 3008SOL    HW1 9834   6.115   3.900   2.413 -0.0880 -0.1266 -0.6745
 3008SOL    HW2 9835   6.150   3.830   2.283  1.2255 -0.7850  0.0092
 3009SOL     OW 9836   1.075   3.649   7.593 -0.1199  0.4378 -0.0626
 3009SOL    HW1 9837   1.158   3.685   7.624 -0.4048  1.5070 -0.4913
 3009SOL    HW2 9838   1.095   3.615   7.506 -0.3469  1.7046 -0.6409
 3010SOL     OW 9839   7.993   1.621   7.071  0.3980  0.1138 -0.4253
 3010SOL    HW1 9840   7.906   1.610   7.034  0.2431  1.4512 -0.5101
 3010SOL    HW2 9841   8.048   1.648   6.997  0.4882  1.0021 -0.0447
 3011SOL     OW 9842   3.939   4.334   5.672  0.3317  0.2381  0.4808
 3011SOL    HW1 9843   3.890   4.308   5.750  0.7947  0.8802  0.9989
 3011SOL    HW2 9844   3.874   4.374   5.615  0.0126 -0.1160  0.5965
 3012SOL     OW 9845   6.368   1.949   0.043 -1.2123 -0.1735 -0.4614
 3012SOL    HW1 9846   6.427   1.941  -0.032  0.0153  2.1635  0.1580
 3012SOL    HW2 9847   6.305   1.877   0.032  0.2382 -1.2320 -2.5028
 3013SOL     OW 9848   0.069   0.417   7.439 -0.6233 -0.0413 -0.3586
 3013SOL    HW1 9849   0.053   0.511   7.428 -1.0035 -0.1680 -0.9378
 3013SOL    HW2 9850   0.042   0.398   7.529 -0.2948  0.4521 -0.1544
 3014SOL     OW 9851   1.243   7.544   7.818 -0.0432 -0.4256 -0.1453
 3014SOL    HW1 9852   1.240   7.604   7.892 -0.1683  0.7518 -1.0604
 3014SOL    HW2 9853   1.327   7.499   7.827  0.5284  0.6370  0.0224
 3015SOL     OW 9854   7.694   3.664   4.316 -0.6509 -0.2762  0.4563
 3015SOL    HW1 9855   7.736   3.668   4.402 -1.3285  0.9354  0.7466
 3015SOL    HW2 9856   7.609   3.705   4.329 -1.6425 -2.0024 -0.3058
 3016SOL     OW 9857   0.879   1.570   2.345 -0.3683 -0.3726  0.1744
 3016SOL    HW1 9858   0.882   1.518   2.425 -1.3370 -0.2123  0.3308
 3016SOL    HW2 9859   0.942   1.528   2.286 -1.1886 -1.7686  0.2632
 3017SOL     OW 9860   1.249   2.279   1.757  0.0565  0.1025  0.2455
 3017SOL    HW1 9861   1.336   2.279   1.797  0.5966  0.9125 -0.8657
 3017SOL    HW2 9862   1.266   2.287   1.663 -1.2503  1.4060  0.0862
 3018SOL     OW 9863   4.861   0.055   7.031  0.1186 -0.1493  0.1819
 3018SOL    HW1 9864   4.865  -0.037   7.008 -0.8073  0.0120 -0.7209
 3018SOL    HW2 9865   4.768   0.077   7.025  0.3567  0.9086  0.1267
 3019SOL     OW 9866   0.547   5.343   2.343  0.1866  0.0029 -0.5714
 3019SOL    HW1 9867   0.573   5.397   2.268 -0.7227  0.4350 -0.5972
 3019SOL    HW2 9868   0.451   5.341   2.338  0.1952 -1.2923 -0.3278
 3020SOL     OW 9869   0.784   1.548   5.926  0.4738  0.4952  0.0293
 3020SOL    HW1 9870   0.847   1.615   5.954  1.4282 -0.8844  1.3028
 3020SOL    HW2 9871   0.766   1.570   5.834  0.5880  2.5922  0.4506
 3021SOL     OW 9872   0.822   1.480   3.163  0.3329 -0.1962 -0.3417
 3021SOL    HW1 9873   0.878   1.409   3.195 -0.6720  0.4751  3.2375
 3021SOL    HW2 9874   0.737   1.438   3.150 -0.0671  0.1529  1.0406
 3022SOL     OW 9875   6.553   5.257   1.551 -0.2297  0.3934  0.1480
 3022SOL    HW1 9876   6.587   5.169   1.569 -0.8737  0.2317  0.6166
 3022SOL    HW2 9877   6.515   5.286   1.634  0.9066  1.5564  0.2762
 3023SOL     OW 9878   7.344   4.332   2.364 -0.0819  0.3785 -0.7281
 3023SOL    HW1 9879   7.310   4.255   2.317 -1.9507  1.5674 -1.4465
 3023SOL    HW2 9880   7.367   4.394   2.296  0.3053  0.9153 -0.1233
 3024SOL     OW 9881   5.544   6.291   5.987  0.3240 -0.7215  0.1429
 3024SOL    HW1 9882   5.482   6.260   6.053 -1.0456 -0.8917 -1.1646
 3024SOL    HW2 9883   5.514   6.380   5.967  2.3780  0.4133  1.6489
 3025SOL     OW 9884   0.025   3.345   7.011  0.0891  0.2704 -0.6101
 3025SOL    HW1 9885  -0.032   3.405   6.963  2.8853  2.5228 -1.3740
 3025SOL    HW2 9886   0.079   3.303   6.944 -1.0927 -2.5032  0.0066
 3026SOL     OW 9887   5.633   0.130   7.393  0.4027 -0.0866  0.3050
 3026SOL    HW1 9888   5.713   0.122   7.341 -0.4481 -0.2967 -1.0221
 3026SOL    HW2 9889   5.619   0.224   7.401  0.5803 -0.0512  0.2154
 3027SOL     OW 9890   1.014   1.558   7.625  0.3145 -0.2092 -0.0423
 3027SOL    HW1 9891   1.045   1.623   7.562 -1.2077 -0.0729 -0.7038
 3027SOL    HW2 9892   0.963   1.608   7.688  3.4704 -0.0262  2.5970
 3028SOL     OW 9893   4.040   3.374   3.108  0.0449  0.1589 -0.3411
 3028SOL    HW1 9894   4.074   3.358   3.020  0.5562  0.6528 -0.2406
 3028SOL    HW2 9895   3.980   3.448   3.097  0.6398  0.6730 -0.1624
 3029SOL     OW 9896   4.706   7.917   6.389  0.1876  0.0878 -0.3012
 3029SOL    HW1 9897   4.614   7.941   6.400 -0.1856 -1.0404 -0.7796
 3029SOL    HW2 9898   4.753   8.000   6.384 -0.8539  0.6742 -0.4754
 3030SOL     OW 9899   5.906   4.066   6.063  0.4459 -0.0941 -0.3172
 3030SOL    HW1 9900   5.995   4.033   6.048  0.7258  0.9163 -0.9727
 3030SOL    HW2 9901   5.863   3.997   6.113  2.1057  0.0678  1.4963
 3031SOL     OW 9902   2.644   4.448   2.669 -0.6683  0.3975  0.4345
 3031SOL    HW1 9903   2.704   4.438   2.744  0.0559 -0.1711 -0.1993
 3031SOL    HW2 9904   2.578   4.380   2.682 -1.3211  1.1673  1.2541
 3032SOL     OW 9905   2.981   6.284   1.469  0.6491  0.6549  0.6378
 3032SOL    HW1 9906   2.920   6.346   1.430  0.6533  0.2818  0.0066
 3032SOL    HW2 9907   3.067   6.317   1.445  0.6526 -0.9378 -2.0213
 3033SOL     OW 9908   2.109   2.564   3.135  0.4681  0.0241 -0.4848
 3033SOL    HW1 9909   2.068   2.641   3.096  0.7847  0.2407 -0.3944
 3033SOL    HW2 9910   2.190   2.552   3.086  0.2546 -0.4646 -0.7303
 3034SOL     OW 9911   6.366   7.673   0.058  0.0234 -0.7394  0.3346
 3034SOL    HW1 9912   6.379   7.614   0.132  1.3741  0.2328  0.9283
 3034SOL    HW2 9913   6.401   7.626  -0.017  1.6684 -0.4956  0.9098
 3035SOL     OW 9914   0.848   3.055   5.804  0.4963 -0.1081  0.5289
 3035SOL    HW1 9915   0.803   3.009   5.875 -0.2984  0.7035  0.5682
 3035SOL    HW2 9916   0.819   3.146   5.813 -2.0737 -0.4574 -2.6641
 3036SOL     OW 9917   4.358   3.036   2.992 -0.2229  0.1455  0.2939
 3036SOL    HW1 9918   4.449   3.063   2.976 -0.2487  0.0666  0.0037
 3036SOL    HW2 9919   4.364   2.975   3.065 -0.1050  0.5445  0.6254
 3037SOL     OW 9920   0.208   7.847   4.123  0.0524  0.0005  0.1287
 3037SOL    HW1 9921   0.170   7.827   4.209 -0.7310  0.2151 -0.1509
 3037SOL    HW2 9922   0.266   7.773   4.105 -1.4415 -1.1662 -0.1118
 3038SOL     OW 9923   0.322   3.824   5.872  0.4809  0.2374 -0.0927
 3038SOL    HW1 9924   0.255   3.891   5.859 -1.5771 -1.0597  2.8474
 3038SOL    HW2 9925   0.331   3.818   5.967  2.3456 -2.0001 -0.3427
 3039SOL     OW 9926   3.914   1.559   4.370  0.2920 -0.1058  0.0537
 3039SOL    HW1 9927   3.959   1.500   4.309  1.1741  0.4631  0.1288
 3039SOL    HW2 9928   3.831   1.516   4.389  0.9369 -1.3455  0.1424
 3040SOL     OW 9929   5.719   4.309   6.697  0.3939 -0.1652  0.8084
 3040SOL    HW1 9930   5.717   4.325   6.791 -1.9317 -1.1392  0.9963
 3040SOL    HW2 9931   5.783   4.239   6.686 -0.3923 -1.1022  1.9119
 3041SOL     OW 9932   3.142   6.668   6.982  0.2461  0.3220  0.1378
 3041SOL    HW1 9933   3.206   6.699   7.046 -0.3307  1.0687  0.3699
 3041SOL    HW2 9934   3.066   6.645   7.034  0.3057 -0.5195 -0.1419
 3042SOL     OW 9935   7.696   7.249   6.866 -0.4562 -0.5345  0.0297
 3042SOL    HW1 9936   7.739   7.322   6.822 -1.8621  0.5058  0.3061
 3042SOL    HW2 9937   7.750   7.232   6.943 -0.8352  1.1581  0.7057
 3043SOL     OW 9938   4.122   3.751   4.660  0.6266  0.6038  0.4528
 3043SOL    HW1 9939   4.122   3.656   4.654 -1.0294  0.5661  0.7374
 3043SOL    HW2 9940   4.032   3.774   4.681  1.0775  2.2182  0.7450
 3044SOL     OW 9941   3.046   0.186   0.944  0.3060 -0.3009  0.6303
 3044SOL    HW1 9942   3.058   0.198   1.038  0.6405 -0.8797  0.6649
 3044SOL    HW2 9943   3.133   0.163   0.911  0.0316 -0.9099  0.3102
 3045SOL     OW 9944   6.731   1.109   5.103 -0.0673 -0.2821  0.1938
 3045SOL    HW1 9945   6.826   1.099   5.107  0.0901  1.3615  1.5605
 3045SOL    HW2 9946   6.718   1.192   5.056 -0.9048 -1.0961 -1.0910
 3046SOL     OW 9947   7.424   1.501   1.614  0.5881  0.1553  0.3978
 3046SOL    HW1 9948   7.461   1.515   1.702  0.5628  0.7816  0.3121
 3046SOL    HW2 9949   7.442   1.582   1.567  1.7677 -0.6397 -0.5974
 3047SOL     OW 9950   0.833   5.372   6.336  0.0276 -0.0586  0.6865
 3047SOL    HW1 9951   0.747   5.331   6.333  0.3790 -0.8539  1.1694
 3047SOL    HW2 9952   0.835   5.420   6.419 -0.6360  1.5459 -0.1864
 3048SOL     OW 9953   5.814   4.961   2.908 -0.1173 -0.2042 -0.1882
 3048SOL    HW1 9954   5.774   5.045   2.886  0.3386 -0.5093 -2.3218
 3048SOL    HW2 9955   5.740   4.906   2.936 -0.2477  1.3149  2.9848
 3049SOL     OW 9956   7.068   4.381   3.606  0.0121 -0.2644  0.0096
 3049SOL    HW1 9957   7.028   4.365   3.692  1.9664 -1.0351  0.8517
 3049SOL    HW2 9958   7.066   4.296   3.562 -0.3795 -0.0224 -0.4483
 3050SOL     OW 9959   6.231   5.140   4.541 -0.0874 -0.2000  0.5086
 3050SOL    HW1 9960   6.155   5.126   4.483 -0.5643 -0.9303  1.2890
 3050SOL    HW2 9961   6.203   5.107   4.626  0.7073  0.6119  1.1059
 3051SOL     OW 9962   0.024   7.839   2.020 -0.2613  0.8059 -0.1094
 3051SOL    HW1 9963   0.103   7.842   1.966 -1.3216  0.8850 -1.6945
 3051SOL    HW2 9964   0.035   7.761   2.074  1.7090  1.7846  1.0262
 3052SOL     OW 9965   3.374   2.478   0.978  0.4972 -0.4104  0.7071
 3052SOL    HW1 9966   3.285   2.443   0.977  0.4726 -0.4493  2.1474
 3052SOL    HW2 9967   3.395   2.488   1.070  2.3285 -1.2363  0.4269
 3053SOL     OW 9968   2.157   7.750   3.278  0.9892 -0.4070  0.5687
 3053SOL    HW1 9969   2.165   7.690   3.352 -0.2097 -0.0266  1.0205
 3053SOL    HW2 9970   2.220   7.820   3.297  1.4174 -0.8205  0.7086
 3054SOL     OW 9971   4.996   7.386   0.891 -0.3337  0.2454  0.3643
 3054SOL    HW1 9972   5.092   7.390   0.900 -0.3786  1.6662  0.4309
 3054SOL    HW2 9973   4.982   7.330   0.815  0.6313  1.3425 -0.6707
 3055SOL     OW 9974   0.207   0.603   0.258 -0.3962  0.1484  0.2041
 3055SOL    HW1 9975   0.217   0.661   0.183  2.3054  0.0469  0.3588
 3055SOL    HW2 9976   0.149   0.649   0.318 -0.8841  1.1967 -1.0477
 3056SOL     OW 9977   4.931   5.622   1.402  0.5213  0.6947  0.5280
 3056SOL    HW1 9978   4.971   5.536   1.389 -2.3752 -0.6383 -0.4837
 3056SOL    HW2 9979   4.948   5.669   1.320 -0.1511  0.0571  0.0130
 3057SOL     OW 9980   0.173   3.694   7.513  0.0215 -0.7475 -0.3374
 3057SOL    HW1 9981   0.203   3.637   7.442  0.8303 -0.7414 -0.0130
 3057SOL    HW2 9982   0.228   3.669   7.588 -0.7169 -0.6533  0.2442
 3058SOL     OW 9983   6.044   3.402   7.113  0.5995 -0.5285  0.0807
 3058SOL    HW1 9984   6.125   3.452   7.102  1.9857 -2.3378  1.3085
 3058SOL    HW2 9985   6.070   3.311   7.096 -1.7196 -0.9310 -1.6981
 3059SOL     OW 9986   4.079   6.993   1.840  0.5491  0.0570  0.1128
 3059SOL    HW1 9987   4.163   6.956   1.813  1.3542  1.1217  1.0656
 3059SOL    HW2 9988   4.095   7.029   1.927 -0.8230  0.5356  0.1971
 3060SOL     OW 9989   1.229   3.110   2.899  0.3080  0.1806  0.3465
 3060SOL    HW1 9990   1.154   3.065   2.937  0.7291 -1.9384 -1.1336
 3060SOL    HW2 9991   1.274   3.149   2.973 -0.5732 -1.1476  1.6382
 3061SOL     OW 9992   4.187   4.100   3.684  0.0753  0.2349  0.7318
 3061SOL    HW1 9993   4.139   4.126   3.605  0.5041  0.1447  0.4369
 3061SOL    HW2 9994   4.260   4.163   3.689  1.8318 -1.5588 -0.6605
 3062SOL     OW 9995   6.972   6.373   3.518 -0.1557  0.3973 -0.5575
 3062SOL    HW1 9996   6.883   6.406   3.510 -0.2755  0.4078  0.6918
 3062SOL    HW2 9997   7.026   6.439   3.474 -0.7502  0.4189 -1.2673
 3063SOL     OW 9998   1.154   0.066   0.180  0.2593  0.3701  0.1247
 3063SOL    HW1 9999   1.174   0.015   0.102 -0.7363 -0.4074  0.3610
 3063SOL    HW210000   1.067   0.104   0.163 -0.7085 -1.1030  1.4653
 3064SOL     OW10001   5.483   5.983   3.325  0.0936  0.1493 -0.5157
 3064SOL    HW110002   5.500   6.068   3.285 -2.2693 -0.4387 -3.1495
 3064SOL    HW210003   5.490   5.921   3.252 -1.0943 -1.4799  0.6922
 3065SOL     OW10004   2.319   1.035   3.941 -0.4767 -0.6381  0.0128
 3065SOL    HW110005   2.231   1.065   3.964 -0.4512  0.0740 -0.7679
 3065SOL    HW210006   2.372   1.054   4.018 -0.3149  2.0174 -0.6825
 3066SOL     OW10007   5.283   2.601   7.142  0.1023  0.5270  0.0044
 3066SOL    HW110008   5.250   2.645   7.220 -1.9631  0.2429 -0.6275
 3066SOL    HW210009   5.339   2.532   7.174  0.6971  1.5127  1.1467
 3067SOL     OW10010   4.257   5.701   1.078 -0.0119 -0.2788  0.5632
 3067SOL    HW110011   4.288   5.623   1.124 -2.0911 -1.3564  0.2219
 3067SOL    HW210012   4.318   5.770   1.105  0.9344 -1.6520  2.1239
 3068SOL     OW10013   4.357   4.261   2.723  0.2215  0.1869 -0.0069
 3068SOL    HW110014   4.443   4.280   2.686  0.2834 -0.7057 -0.3515
 3068SOL    HW210015   4.357   4.166   2.736 -1.0292  0.0361 -0.8634
 3069SOL     OW10016   0.234   2.250   6.901  0.0147  0.5465  0.0120
 3069SOL    HW110017   0.249   2.197   6.822 -2.3891  1.6459 -1.2639
 3069SOL    HW210018   0.185   2.192   6.959 -0.3617  0.5206 -0.3255
 3070SOL     OW10019   0.539   6.363   5.285 -0.4049  0.4603 -0.7168
 3070SOL    HW110020   0.540   6.268   5.298  1.7360  0.6698  1.5621
 3070SOL    HW210021   0.478   6.395   5.352  0.4595  0.7641 -0.0472
 3071SOL     OW10022   7.183   0.992   6.910  0.4445  0.5280  0.5600
 3071SOL    HW110023   7.198   0.901   6.885  0.5703  0.9974 -1.2275
 3071SOL    HW210024   7.089   0.999   6.922  0.2656  0.4822 -0.7362
 3072SOL     OW10025   7.298   7.489   0.199 -0.4191  0.2550 -0.3498
 3072SOL    HW110026   7.226   7.446   0.246 -0.2534 -0.0042 -0.3327
 3072SOL    HW210027   7.264   7.576   0.178  0.2229  1.1558  2.0440
 3073SOL     OW10028   0.915   0.196   0.114 -0.2266 -0.1760 -0.4503
 3073SOL    HW110029   0.946   0.281   0.082  0.2709 -0.0030  0.4481
 3073SOL    HW210030   0.828   0.213   0.150  0.5046  0.3172  1.1832
 3074SOL     OW10031   5.322   0.924   2.291 -0.1254 -0.3806  0.1795
 3074SOL    HW110032   5.233   0.900   2.265 -0.5183  1.8290 -0.6996
 3074SOL    HW210033   5.354   0.980   2.220  1.0953  0.7882  1.5868
 3075SOL     OW10034   1.828   0.322   2.521  0.0948 -0.1648 -0.0434
 3075SOL    HW110035   1.796   0.386   2.584 -0.8299  0.9099 -1.5496
 3075SOL    HW210036   1.786   0.240   2.547 -0.3715  0.2852  0.6625
 3076SOL     OW10037   3.319   5.726   3.184  0.3414 -0.2809 -0.3994
 3076SOL    HW110038   3.254   5.724   3.255  0.3640 -0.5235 -0.3866
 3076SOL    HW210039   3.353   5.816   3.186 -0.6610  0.1310 -1.0047
 3077SOL     OW10040   2.849   2.530   4.074  0.0301  0.1989  0.2737
 3077SOL    HW110041   2.778   2.552   4.134  0.2498  1.1174  0.2025
 3077SOL    HW210042   2.832   2.582   3.996  0.7600  0.3958  0.2414
 3078SOL     OW10043   6.934   4.671   0.392  0.3656 -0.1303  0.1750
 3078SOL    HW110044   7.030   4.665   0.393  0.5904  1.4279 -2.6979
 3078SOL    HW210045   6.906   4.589   0.351  0.3614 -0.8655  1.5717
 3079SOL     OW10046   1.177   2.455   1.204 -0.0280  0.2587  0.1692
 3079SOL    HW110047   1.225   2.376   1.178 -1.2773 -0.2607 -0.6952
 3079SOL    HW210048   1.204   2.522   1.141 -0.6932 -0.1390 -0.5614
 3080SOL     OW10049   2.394   5.238   6.097  0.1007  0.4015 -0.1797
 3080SOL    HW110050   2.420   5.195   6.179 -0.9274 -0.8600 -0.4680
 3080SOL    HW210051   2.307   5.202   6.079 -0.0915  1.3968 -1.3320
 3081SOL     OW10052   6.330   2.831   7.077  0.5762 -0.2229  0.6145
 3081SOL    HW110053   6.287   2.754   7.040 -0.3719  0.9441 -0.8487
 3081SOL    HW210054   6.423   2.810   7.073  0.3248 -1.4333  0.6075
 3082SOL     OW10055   5.724   4.481   3.722 -0.3368  0.5078  0.7116
 3082SOL    HW110056   5.699   4.399   3.763  1.5038  0.3767  1.6924
 3082SOL    HW210057   5.776   4.455   3.646 -0.1985  0.7488  0.7220
 3083SOL     OW10058   4.989   4.145   4.036 -0.0681 -0.4772  0.4370
 3083SOL    HW110059   5.007   4.100   3.953 -1.0539 -0.0223 -0.0385
 3083SOL    HW210060   4.896   4.168   4.031  0.0812  0.3619  1.2815
 3084SOL     OW10061   1.352   6.962   1.355 -0.0097 -0.2943 -0.1347
 3084SOL    HW110062   1.393   6.934   1.274 -0.8065  0.1389 -0.6994
 3084SOL    HW210063   1.304   7.042   1.332  0.8497  0.6258  1.0586
 3085SOL     OW10064   0.223   6.397   7.774  0.1599 -0.5666 -0.1923
 3085SOL    HW110065   0.131   6.392   7.746 -0.1917  1.6349  0.3797
 3085SOL    HW210066   0.253   6.482   7.742  1.7919 -0.9505  0.2444
 3086SOL     OW10067   0.504   7.253   2.198  0.0668 -0.0732 -0.2270
 3086SOL    HW110068   0.503   7.329   2.257  0.2835 -0.1996 -0.0566
 3086SOL    HW210069   0.535   7.181   2.253  0.5875 -0.1237 -0.5737
 3087SOL     OW10070   1.017   7.929   3.675  0.2941 -0.2107  0.1214
 3087SOL    HW110071   1.070   8.009   3.677 -0.8086  0.5319  0.7430
 3087SOL    HW210072   0.966   7.936   3.595  0.7867 -0.7026 -0.2421
 3088SOL     OW10073   6.741   3.480   6.039  0.0940 -0.3195  0.1497
 3088SOL    HW110074   6.743   3.564   5.993  1.1165 -0.4735 -0.1183
 3088SOL    HW210075   6.774   3.417   5.975 -1.8620 -1.1813 -0.0951
 3089SOL     OW10076   1.230   4.990   4.799 -0.3177  0.4326 -0.2249
 3089SOL    HW110077   1.157   4.978   4.859  1.7989 -2.1411  2.0953
 3089SOL    HW210078   1.217   4.924   4.731 -0.2194  0.0432  0.1323
 3090SOL     OW10079   6.799   6.299   4.529  0.6181  0.1933 -0.0793
 3090SOL    HW110080   6.841   6.385   4.526  1.2480 -0.1344 -1.2141
 3090SOL    HW210081   6.758   6.296   4.615  1.2802  1.3012  0.3036
 3091SOL     OW10082   5.073   2.462   2.298 -0.1196 -0.1403 -0.4922
 3091SOL    HW110083   5.041   2.521   2.367  0.3529  2.9211 -2.6432
 3091SOL    HW210084   5.033   2.378   2.317  0.1743  0.4592  3.5858
 3092SOL     OW10085   6.826   6.474   7.928  0.4265  0.2284  0.1401
 3092SOL    HW110086   6.796   6.561   7.902  2.7977  1.3148  0.7143
 3092SOL    HW210087   6.808   6.419   7.852  0.4351  1.6223 -0.9136
 3093SOL     OW10088   5.313   0.764   0.153 -0.5239 -0.4137  0.1641
 3093SOL    HW110089   5.256   0.804   0.219 -1.8551  1.6859 -2.0922
 3093SOL    HW210090   5.258   0.757   0.075  1.0502 -2.5928 -0.8653
 3094SOL     OW10091   4.693   0.986   0.218 -0.0183 -0.8669 -0.0690
 3094SOL    HW110092   4.598   0.976   0.212  0.0877 -2.1695  0.3229
 3094SOL    HW210093   4.705   1.067   0.267 -0.9102 -0.0793 -1.0905
 3095SOL     OW10094   2.262   1.490   7.233  0.0975 -0.7772  0.2587
 3095SOL    HW110095   2.207   1.531   7.167  1.0216 -0.4109 -0.3080
 3095SOL    HW210096   2.219   1.407   7.253  0.0229 -1.0935 -1.1210
 3096SOL     OW10097   6.560   0.709   6.992 -0.3246  0.1138 -0.4361
 3096SOL    HW110098   6.481   0.685   6.944 -1.3283  1.4057  0.5136
 3096SOL    HW210099   6.537   0.699   7.084  0.6268  0.4784 -0.1384
 3097SOL     OW10100   5.910   3.056   5.607  0.4270 -0.2827  0.0736
 3097SOL    HW110101   5.909   3.001   5.686  0.8667 -0.2924  0.0724
 3097SOL    HW210102   5.826   3.038   5.565 -0.3532  0.6315  1.1664
 3098SOL     OW10103   2.108   6.017   6.893  0.3562  0.0158  0.0615
 3098SOL    HW110104   2.097   6.030   6.799 -0.9360 -2.0443 -0.1359
 3098SOL    HW210105   2.118   5.922   6.903 -0.7625  0.0642  2.1057
 3099SOL     OW10106   4.545   4.120   2.958  0.4767 -0.3195 -0.0786
 3099SOL    HW110107   4.596   4.059   3.012  0.5365 -0.8065 -0.6669
 3099SOL    HW210108   4.498   4.063   2.897 -2.0713 -0.0206  1.4812
 3100SOL     OW10109   2.422   2.238   7.762  0.0115  0.3361  0.0236
 3100SOL    HW110110   2.416   2.333   7.749 -0.1805  0.0977 -2.0167
 3100SOL    HW210111   2.335   2.212   7.791  0.1701  0.8149  0.9601
 3101SOL     OW10112   1.019   5.326   5.855 -0.8184 -0.7153 -0.3279
 3101SOL    HW110113   1.090   5.386   5.878 -0.6365 -0.0769 -2.4383
 3101SOL    HW210114   1.059   5.239   5.861 -0.8528 -0.6324  1.8877
 3102SOL     OW10115   4.965   5.010   1.126  0.1063  0.2746 -0.3191
 3102SOL    HW110116   4.899   5.060   1.172 -0.7899 -1.8049  0.7697
 3102SOL    HW210117   4.983   5.061   1.047 -0.3067  2.5502  0.9789
 3103SOL     OW10118   5.213   7.550   2.482  0.0901 -0.7387  0.2362
 3103SOL    HW110119   5.166   7.528   2.562 -0.4669 -1.0991 -0.1791
 3103SOL    HW210120   5.145   7.582   2.422  0.2442 -1.9126 -0.6054
 3104SOL     OW10121   7.364   5.702   5.674  0.1329  0.5549 -0.1574
 3104SOL    HW110122   7.365   5.712   5.769 -1.0485 -4.7627  0.7248
 3104SOL    HW210123   7.442   5.650   5.655 -1.2207 -1.1148 -1.5084
 3105SOL     OW10124   3.706   0.653   7.053  0.6292  0.1344  0.0307
 3105SOL    HW110125   3.665   0.671   7.138  0.3271  0.3531 -0.1625
 3105SOL    HW210126   3.696   0.734   7.004 -0.9740 -0.5986 -0.9365
 3106SOL     OW10127   6.535   5.418   5.935  0.4212 -0.0726 -0.0608
 3106SOL    HW110128   6.474   5.344   5.931 -0.7370  0.7051  1.8017
 3106SOL    HW210129   6.611   5.389   5.884 -0.2044 -2.3428  0.1687
 3107SOL     OW10130   1.498   7.523   1.415 -0.1606 -0.0108 -0.2792
 3107SOL    HW110131   1.572   7.571   1.451 -0.5244 -0.6782  1.4562
 3107SOL    HW210132   1.535   7.473   1.343  0.7386  0.8603 -0.4446
 3108SOL     OW10133   6.679   2.132   5.675 -0.4969  0.2059 -0.5195
 3108SOL    HW110134   6.627   2.210   5.696 -0.9110  0.2810 -1.7153
 3108SOL    HW210135   6.766   2.151   5.708 -0.5289  1.3027 -1.0390
 3109SOL     OW10136   1.046   7.530   4.002  0.2754  0.0098 -0.7124
 3109SOL    HW110137   1.025   7.590   3.930  2.8844  1.6277 -0.2973
 3109SOL    HW210138   1.090   7.586   4.067  2.2166 -2.2065  0.0318
 3110SOL     OW10139   6.333   0.873   7.630  0.2058  0.2185 -0.1010
 3110SOL    HW110140   6.309   0.938   7.696  3.0391  0.1312  1.1620
 3110SOL    HW210141   6.357   0.925   7.553  2.0783  0.7444  0.7733
 3111SOL     OW10142   5.495   4.562   1.101  0.3473  0.2568 -0.2305
 3111SOL    HW110143   5.469   4.580   1.011 -1.0400  0.5366  0.2043
 3111SOL    HW210144   5.525   4.471   1.099 -1.8357 -0.5297 -0.5769
 3112SOL     OW10145   4.127   2.601   1.450 -0.4902 -0.7739  0.9430
 3112SOL    HW110146   4.075   2.629   1.375  0.1140  0.7305  1.0553
 3112SOL    HW210147   4.189   2.673   1.464  1.1870 -2.2066  1.2219
 3113SOL     OW10148   0.968   6.871   6.878 -0.4669 -0.1549  0.3791
 3113SOL    HW110149   1.063   6.875   6.878 -0.4814  0.5767  1.5393
 3113SOL    HW210150   0.948   6.781   6.906 -0.1112  0.0832  1.4237
 3114SOL     OW10151   4.961   6.878   5.512  0.2957 -0.2263  0.1461
 3114SOL    HW110152   4.912   6.960   5.500 -1.3643 -1.1438  0.3369
 3114SOL    HW210153   4.950   6.857   5.605 -0.1767 -1.1919 -0.1195
 3115SOL     OW10154   4.652   7.819   7.307 -0.7872  0.0598  0.3224
 3115SOL    HW110155   4.593   7.853   7.375 -1.5443 -1.6251  0.5481
 3115SOL    HW210156   4.610   7.845   7.225 -0.4509  1.1302  0.4704
 3116SOL     OW10157   7.679   2.169   4.373  0.5014  0.0702  0.4570
 3116SOL    HW110158   7.710   2.101   4.313  4.1493  0.9807  1.0535
 3116SOL    HW210159   7.669   2.125   4.457  0.6334 -0.1559  0.3528
 3117SOL     OW10160   3.549   2.849   2.776  0.4026 -0.1133 -0.0511
 3117SOL    HW110161   3.626   2.903   2.793  1.1491 -0.8976 -0.8069
 3117SOL    HW210162   3.534   2.858   2.682 -0.6022  0.2354  0.1290
 3118SOL     OW10163   4.521   3.764   4.846  0.0789  0.4773  0.0373
 3118SOL    HW110164   4.604   3.787   4.804 -0.0065  0.1004 -0.3509
 3118SOL    HW210165   4.529   3.796   4.935  0.4838  0.8088 -0.1155
 3119SOL     OW10166   1.845   0.046   4.394  0.5669 -0.4919  0.1393
 3119SOL    HW110167   1.905   0.032   4.466 -0.4126 -3.1885  0.5684
 3119SOL    HW210168   1.758   0.028   4.431 -0.0012 -1.5059 -1.5576
 3120SOL     OW10169   4.244   4.180   7.750 -0.5040  0.0548  0.5667
 3120SOL    HW110170   4.257   4.161   7.843 -0.4007 -1.2980  0.3059
 3120SOL    HW210171   4.175   4.119   7.723 -0.5128  0.4153 -0.2429
 3121SOL     OW10172   7.619   7.778   4.938  0.4980  0.3268 -0.4420
 3121SOL    HW110173   7.579   7.695   4.964  1.0538  0.3580  0.5652
 3121SOL    HW210174   7.706   7.754   4.907  0.3408  0.4477 -0.9935
 3122SOL     OW10175   2.338   2.581   2.549  0.0800  0.2841 -0.2190
 3122SOL    HW110176   2.276   2.595   2.621  1.9636 -0.0606  1.5439
 3122SOL    HW210177   2.338   2.486   2.536  1.2590  0.1254  0.7833
 3123SOL     OW10178   3.199   2.864   0.151  0.2000  0.3449 -0.4278
 3123SOL    HW110179   3.247   2.835   0.073  0.7349  0.1394 -0.0302
 3123SOL    HW210180   3.131   2.922   0.117  0.8163  0.7518 -1.0017
 3124SOL     OW10181   0.221   5.995   1.820  0.1571  0.3139 -0.0042
 3124SOL    HW110182   0.259   5.907   1.812  0.7828  0.5362  0.4410
 3124SOL    HW210183   0.288   6.053   1.784  0.0068  0.6652  0.2745
 3125SOL     OW10184   1.895   6.118   6.335  0.0389  0.0230  0.0197
 3125SOL    HW110185   1.842   6.198   6.342  0.2467  0.0354  2.1738
 3125SOL    HW210186   1.963   6.140   6.271 -0.9080  0.9626 -0.7132
 3126SOL     OW10187   6.709   3.766   0.537  0.5650  0.0931  0.3335
 3126SOL    HW110188   6.690   3.781   0.630  1.9603 -0.7027  0.7702
 3126SOL    HW210189   6.623   3.766   0.495 -0.2932 -1.6693  1.9434
 3127SOL     OW10190   0.400   2.948   3.077  0.1067  0.2265  0.2999
 3127SOL    HW110191   0.495   2.949   3.062  0.2267  0.0508  1.0336
 3127SOL    HW210192   0.383   3.027   3.128  0.1917 -0.8505  2.0698
 3128SOL     OW10193   7.717   1.233   1.866 -0.1367 -0.3217  0.4297
 3128SOL    HW110194   7.662   1.230   1.944  1.0991  0.5365  1.3723
 3128SOL    HW210195   7.762   1.149   1.865 -0.8794 -0.7290  0.0650
 3129SOL     OW10196   3.209   5.290   2.133 -0.3577 -0.8164 -0.6046
 3129SOL    HW110197   3.200   5.270   2.226 -1.3703 -1.2756 -0.7809
 3129SOL    HW210198   3.127   5.257   2.094 -0.7319  0.9502 -1.3939
 3130SOL     OW10199   6.102   7.760   6.184 -0.1144  0.0494 -0.3106
 3130SOL    HW110200   6.108   7.716   6.099  0.2103  0.6194 -0.5835
 3130SOL    HW210201   6.127   7.692   6.247  0.3918 -0.1624 -0.7276
 3131SOL     OW10202   7.319   5.515   2.010 -0.4464 -0.0306 -0.1542
 3131SOL    HW110203   7.299   5.606   2.032  1.6858 -0.2474  3.6180
 3131SOL    HW210204   7.248   5.465   2.050 -1.1664 -0.1086 -1.4904
 3132SOL     OW10205   6.090   1.527   6.166  0.1126 -0.1302  0.1430
 3132SOL    HW110206   6.029   1.567   6.228  1.0667  1.0725  0.3348
 3132SOL    HW210207   6.113   1.442   6.205 -0.8362 -0.2635  0.4345
 3133SOL     OW10208   4.432   5.554   2.904  0.1903  0.3491 -0.5567
 3133SOL    HW110209   4.388   5.633   2.872 -2.6903 -1.1552 -0.6612
 3133SOL    HW210210   4.387   5.482   2.860  0.9737 -1.4608  1.4073
 3134SOL     OW10211   0.445   2.011   3.860  0.3330 -0.0910 -0.8327
 3134SOL    HW110212   0.459   1.994   3.767  1.4149 -1.2223 -0.4945
 3134SOL    HW210213   0.357   1.978   3.877  0.1277  0.1204 -1.4532
 3135SOL     OW10214   2.191   0.096   0.168 -0.7562  0.6374  0.2003
 3135SOL    HW110215   2.226   0.067   0.084 -1.7667  0.7180 -0.2664
 3135SOL    HW210216   2.257   0.156   0.202 -0.1103  0.2290 -0.3012
 3136SOL     OW10217   4.503   0.037   5.113 -0.3683  0.3402  0.7301
 3136SOL    HW110218   4.567   0.015   5.045 -0.4049  0.8256  0.5381
 3136SOL    HW210219   4.454  -0.044   5.127  0.6098 -0.1882  1.2372
 3137SOL     OW10220   4.796   6.139   5.446 -0.3668  0.4360  0.2967
 3137SOL    HW110221   4.835   6.078   5.383  2.5001  2.3653 -0.0145
 3137SOL    HW210222   4.852   6.132   5.524 -0.1530  2.3276  0.3616
 3138SOL     OW10223   0.529   4.854   2.319 -0.3859  0.3533 -0.2331
 3138SOL    HW110224   0.523   4.807   2.236 -1.0971 -0.0501  0.0420
 3138SOL    HW210225   0.550   4.786   2.383  0.3000  0.6865 -0.1018
 3139SOL     OW10226   3.409   2.472   3.282 -0.3968 -0.3165 -0.5175
 3139SOL    HW110227   3.344   2.529   3.324  0.1226 -1.0326  1.3704
 3139SOL    HW210228   3.493   2.510   3.308 -0.0178 -2.3241  1.5070
 3140SOL     OW10229   5.961   0.540   4.191 -0.1286 -0.3747  0.6067
 3140SOL    HW110230   6.004   0.555   4.275  0.7170 -1.6831  0.4347
 3140SOL    HW210231   6.033   0.534   4.128 -0.6759 -0.6450 -0.0002
 3141SOL     OW10232   3.039   1.570   3.149  0.3082 -0.0624  0.3553
 3141SOL    HW110233   2.978   1.635   3.114  0.1282 -0.1214  0.5576
 3141SOL    HW210234   3.111   1.623   3.184  0.3113  0.0131  0.2371
 3142SOL     OW10235   1.975   2.050   0.493 -0.5477  0.4463 -0.2741
 3142SOL    HW110236   2.011   2.134   0.521 -0.9131  0.7363 -0.6634
 3142SOL    HW210237   2.036   2.018   0.426 -0.6088  0.5699 -0.3865
 3143SOL     OW10238   0.792   1.331   7.687 -0.7104  0.2454 -0.3086
 3143SOL    HW110239   0.866   1.392   7.689  0.9967 -1.7104  1.0363
 3143SOL    HW210240   0.743   1.351   7.767 -0.8840  0.6630 -0.5157
 3144SOL     OW10241   2.215   6.180   0.127 -0.3606  0.6353 -0.0345
 3144SOL    HW110242   2.289   6.234   0.099 -0.8530  1.6688  0.5923
 3144SOL    HW210243   2.163   6.168   0.047 -0.0432  0.7581 -0.2638
 3145SOL     OW10244   5.884   0.723   1.623  0.0464  0.0786 -0.0601
 3145SOL    HW110245   5.975   0.728   1.651  0.4841  4.3802 -1.4945
 3145SOL    HW210246   5.842   0.666   1.687  2.9846  0.9784  2.9467
 3146SOL     OW10247   4.993   4.309   4.287 -0.1537  0.6917 -0.0170
 3146SOL    HW110248   5.036   4.261   4.216  1.2311 -0.4894  1.5283
 3146SOL    HW210249   4.949   4.241   4.339 -0.0497  1.3580  0.9749
 3147SOL     OW10250   4.677   2.949   2.158  0.0517 -0.0938 -0.6235
 3147SOL    HW110251   4.757   3.001   2.154 -0.1044  0.3753  1.2177
 3147SOL    HW210252   4.611   3.004   2.116  0.6552 -0.4809 -2.1455
 3148SOL     OW10253   5.869   2.920   5.818  0.0569  0.0306  0.2839
 3148SOL    HW110254   5.831   2.841   5.781 -2.5917  1.4877 -0.3535
 3148SOL    HW210255   5.934   2.888   5.881 -0.7493 -2.6121 -0.1114
 3149SOL     OW10256   6.530   3.714   2.023  0.4630 -0.2163 -0.1336
 3149SOL    HW110257   6.541   3.681   1.934  0.1101 -0.2503 -0.1662
 3149SOL    HW210258   6.437   3.701   2.042  0.2714  0.9130 -0.2093
 3150SOL     OW10259   3.733   6.454   3.188 -0.0128 -0.4602 -0.3799
 3150SOL    HW110260   3.720   6.448   3.093  0.5862 -1.0410 -0.4328
 3150SOL    HW210261   3.673   6.389   3.224 -1.2079  0.6778 -0.2642
 3151SOL     OW10262   6.124   6.317   4.378 -0.1199  0.4395 -0.5386
 3151SOL    HW110263   6.047   6.289   4.328 -1.0914  1.2341  0.4609
 3151SOL    HW210264   6.128   6.257   4.452  2.0600 -1.5480 -2.1208
 3152SOL     OW10265   1.936   0.101   2.179  0.0247 -0.1754  0.2481
 3152SOL    HW110266   1.970   0.017   2.209 -1.4376  0.2791  3.7330
 3152SOL    HW210267   1.857   0.079   2.129  0.1808 -0.8865  0.3086
 3153SOL     OW10268   2.888   5.850   0.780  0.3632  0.0922 -0.5242
 3153SOL    HW110269   2.849   5.764   0.763  0.9163 -0.5638  1.2442
 3153SOL    HW210270   2.820   5.897   0.830  0.6448  0.1131 -0.1598
 3154SOL     OW10271   6.807   2.027   4.035  0.0626  0.0594  0.0776
 3154SOL    HW110272   6.769   2.112   4.014 -1.0876 -0.2181  0.8941
 3154SOL    HW210273   6.864   2.044   4.109  0.1331  0.1897 -0.0070
 3155SOL     OW10274   0.057   0.615   6.340  0.0978  0.9235  0.1976
 3155SOL    HW110275   0.153   0.614   6.332  0.2085  0.5800  1.3754
 3155SOL    HW210276   0.040   0.662   6.421 -0.7053  0.4062  0.3409
 3156SOL     OW10277   0.589   6.764   1.298  0.4616  0.4378  0.4543
 3156SOL    HW110278   0.552   6.844   1.259 -0.8147 -0.8148 -1.0347
 3156SOL    HW210279   0.610   6.789   1.388  0.8801  2.6753 -0.1986
 3157SOL     OW10280   5.468   2.427   6.006 -0.0996 -0.4610 -0.1576
 3157SOL    HW110281   5.470   2.332   6.022  0.6487 -0.6874 -1.4518
 3157SOL    HW210282   5.559   2.455   6.013 -0.1528 -0.0591 -0.9744
 3158SOL     OW10283   7.440   2.925   5.542 -0.4112  0.1233 -0.0963
 3158SOL    HW110284   7.455   2.918   5.636  0.5090  0.1752 -0.2231
 3158SOL    HW210285   7.409   2.838   5.516  1.2890 -0.5339 -0.0573
 3159SOL     OW10286   5.553   5.636   5.972  0.1739 -0.2003  0.2376
 3159SOL    HW110287   5.632   5.600   5.931  0.7076  1.1716  0.0047
 3159SOL    HW210288   5.584   5.714   6.018 -1.3630  1.7297 -1.7988
 3160SOL     OW10289   4.068   1.262   5.680  0.0231 -0.0457  0.1484
 3160SOL    HW110290   4.053   1.274   5.773  1.1789  0.4378  0.2985
 3160SOL    HW210291   4.142   1.201   5.674  0.5788  0.6505 -0.4044
 3161SOL     OW10292   5.244   4.420   2.083 -0.0140  0.0906 -0.3556
 3161SOL    HW110293   5.297   4.373   2.148  0.2437  2.7459  1.4992
 3161SOL    HW210294   5.272   4.384   1.999  1.0093 -2.1698  0.8656
 3162SOL     OW10295   4.075   6.268   3.032 -0.1010 -0.3254 -0.0613
 3162SOL    HW110296   4.040   6.193   3.080 -0.6190 -0.4332 -0.6001
 3162SOL    HW210297   4.168   6.248   3.021 -0.2157 -0.8412 -0.1170
 3163SOL     OW10298   2.701   4.367   7.667 -0.1721  0.1471  0.3689
 3163SOL    HW110299   2.671   4.354   7.757  3.8284 -0.8561  1.7707
 3163SOL    HW210300   2.765   4.439   7.673  0.9477 -0.6290 -1.4327
 3164SOL     OW10301   3.673   5.624   6.205 -0.0065 -0.8701 -0.3641
 3164SOL    HW110302   3.711   5.607   6.119  1.4215  1.0331 -0.1700
 3164SOL    HW210303   3.748   5.636   6.263 -0.9047  0.2359  0.6350
 3165SOL     OW10304   5.900   7.919   2.996  0.5429  0.8379  1.2109
 3165SOL    HW110305   5.812   7.893   2.970 -0.0268  2.7599  1.0376
 3165SOL    HW210306   5.895   7.928   3.091  1.3463 -1.6326  1.5736
 3166SOL     OW10307   0.423   7.545   4.142  0.6894 -0.9268  0.2004
 3166SOL    HW110308   0.340   7.518   4.102 -0.3456 -0.0517  1.6422
 3166SOL    HW210309   0.489   7.488   4.102 -0.1464  0.1426 -3.0001
 3167SOL     OW10310   4.674   6.309   6.362 -0.3721  0.4260 -0.6153
 3167SOL    HW110311   4.679   6.390   6.312  0.6628  0.4563 -0.4848
 3167SOL    HW210312   4.591   6.269   6.334 -1.4913  2.0651  0.1836
 3168SOL     OW10313   7.890   5.382   4.365 -0.2029 -0.3244 -0.2818
 3168SOL    HW110314   7.836   5.363   4.441  2.1933 -1.2400  1.2899
 3168SOL    HW210315   7.917   5.296   4.332  0.0493  0.1011 -1.2414
 3169SOL     OW10316   1.629   6.950   2.976  0.1665  0.6012 -0.1771
 3169SOL    HW110317   1.678   7.031   2.961  0.0814  1.3570  3.0305
 3169SOL    HW210318   1.582   6.965   3.058  0.2194 -2.7236  0.5983
 3170SOL     OW10319   4.233   4.990   6.206  0.0262 -0.0517  0.2800
 3170SOL    HW110320   4.224   4.918   6.144  0.4602 -0.3490  0.5622
 3170SOL    HW210321   4.156   5.045   6.189 -0.5598 -0.8157  0.3708
 3171SOL     OW10322   2.108   0.699   4.489  0.0364  0.1998 -0.1506
 3171SOL    HW110323   2.120   0.771   4.551  1.5511  0.6991 -0.9673
 3171SOL    HW210324   2.015   0.702   4.466 -0.3159  0.6669  1.2738
 3172SOL     OW10325   0.913   0.802   1.496 -0.1344 -0.1164  0.0203
 3172SOL    HW110326   1.000   0.770   1.472 -0.1337 -0.8022  0.9043
 3172SOL    HW210327   0.853   0.748   1.444 -0.1154 -1.3057  1.1827
 3173SOL     OW10328   7.297   3.924   6.996  0.4559  0.5903 -0.4899
 3173SOL    HW110329   7.340   3.949   7.077 -0.1583  1.3598 -0.3872
 3173SOL    HW210330   7.354   3.956   6.927  0.6007  0.6144 -0.3587
 3174SOL     OW10331   0.378   2.432   7.782  0.3402 -0.1526 -0.5666
 3174SOL    HW110332   0.394   2.513   7.733 -1.6491  0.4840 -0.2447
 3174SOL    HW210333   0.324   2.459   7.856  1.8137 -1.3921  1.0356
 3175SOL     OW10334   0.564   0.852   7.882  0.1824  0.0697 -0.0094
 3175SOL    HW110335   0.567   0.861   7.977 -0.1019 -1.1548  0.1450
 3175SOL    HW210336   0.475   0.881   7.859 -0.1428 -0.6824  0.2510
 3176SOL     OW10337   3.233   1.398   3.942 -0.2358 -0.3273  0.3702
 3176SOL    HW110338   3.156   1.356   3.902 -0.3692  0.2286  0.0166
 3176SOL    HW210339   3.249   1.349   4.022 -0.3450 -1.0818 -0.0677
 3177SOL     OW10340   1.860   0.382   4.492  0.3640  0.1993 -0.2066
 3177SOL    HW110341   1.803   0.452   4.524  0.7797  0.6584 -0.4589
 3177SOL    HW210342   1.803   0.304   4.490  0.1107  0.3438  0.8315
 3178SOL     OW10343   2.295   1.723   1.619  0.3712  0.3718  0.1798
 3178SOL    HW110344   2.342   1.725   1.535  0.4375  1.4597  0.2401
 3178SOL    HW210345   2.216   1.670   1.600  1.6817 -1.6985  0.1445
 3179SOL     OW10346   3.308   6.364   2.813 -0.4662  0.2854  0.1880
 3179SOL    HW110347   3.229   6.415   2.830 -0.6043 -0.4602  1.9453
 3179SOL    HW210348   3.277   6.285   2.769 -0.7604 -0.1893  1.2344
 3180SOL     OW10349   0.647   5.041   3.193  0.2167 -0.1835  0.1584
 3180SOL    HW110350   0.586   5.110   3.169  0.0881  0.5758  2.3546
 3180SOL    HW210351   0.733   5.084   3.195  0.5267 -0.7181 -0.8295
 3181SOL     OW10352   6.504   4.617   6.980  0.0134 -0.1263  0.4761
 3181SOL    HW110353   6.526   4.524   6.974  0.5717 -0.0440  1.0825
 3181SOL    HW210354   6.413   4.622   6.951 -0.3715 -1.0193  1.4228
 3182SOL     OW10355   7.951   7.497   7.817  0.4316  0.0469 -0.0154
 3182SOL    HW110356   8.041   7.525   7.800  0.1802  0.2047 -1.1805
 3182SOL    HW210357   7.897   7.561   7.770 -0.3206  0.3262  1.1912
 3183SOL     OW10358   5.156   7.234   7.173 -0.2055 -0.1663  0.0028
 3183SOL    HW110359   5.124   7.200   7.256 -1.4186 -1.5291 -0.9590
 3183SOL    HW210360   5.242   7.193   7.162  0.5380  1.0262  1.1421
 3184SOL     OW10361   4.199   1.605   7.954  0.2552 -0.0800 -0.6506
 3184SOL    HW110362   4.191   1.663   7.878  1.1947 -1.3219 -1.7359
 3184SOL    HW210363   4.273   1.549   7.933 -0.1334 -1.1477  0.7314
 3185SOL     OW10364   3.227   4.424   1.395  0.2150  0.0695 -0.2785
 3185SOL    HW110365   3.255   4.511   1.423  2.7497 -1.1270  1.2009
 3185SOL    HW210366   3.155   4.402   1.454  0.4329  0.6434  0.2138
 3186SOL     OW10367   5.370   2.754   3.826  0.2364 -0.0802 -0.0356
 3186SOL    HW110368   5.332   2.778   3.910  0.0016 -0.3854 -0.0564
 3186SOL    HW210369   5.459   2.726   3.847  0.4024  0.4708  0.0315
 3187SOL     OW10370   0.149   0.875   2.966  0.3987 -0.3922  0.1396
 3187SOL    HW110371   0.142   0.956   2.915 -0.3358  0.8928  2.1542
 3187SOL    HW210372   0.153   0.806   2.900 -1.6758  1.0528 -1.6483
 3188SOL     OW10373   0.256   3.421   4.668  0.4750  0.2400  0.7587
 3188SOL    HW110374   0.190   3.486   4.646 -0.0145 -1.0215 -1.9991
 3188SOL    HW210375   0.228   3.385   4.752 -0.7387  1.6706  1.0066
 3189SOL     OW10376   2.829   7.443   2.494  0.3301 -0.4352 -0.3393
 3189SOL    HW110377   2.792   7.496   2.565  0.8275 -0.6836  0.1082
 3189SOL    HW210378   2.758   7.438   2.429 -0.0510 -0.0208  0.0334
 3190SOL     OW10379   5.037   5.637   3.980  0.7171  0.0945 -0.0718
 3190SOL    HW110380   5.073   5.684   4.055  0.4469  1.1936 -0.5920
 3190SOL    HW210381   4.946   5.620   4.004  0.7289  0.1316 -0.0006
 3191SOL     OW10382   5.756   0.956   1.655  0.5022  0.1965  0.1975
 3191SOL    HW110383   5.813   0.880   1.639 -0.6868 -0.8049  0.5632
 3191SOL    HW210384   5.813   1.032   1.642  1.8717 -0.7609  0.3795
 3192SOL     OW10385   1.635   0.274   5.093  0.1553 -0.0762 -0.0502
 3192SOL    HW110386   1.639   0.366   5.066 -0.3591 -0.0879 -0.1783
 3192SOL    HW210387   1.567   0.236   5.037  1.6648 -0.9953 -1.3583
 3193SOL     OW10388   0.813   7.675   2.025  0.0059 -0.3358 -0.1962
 3193SOL    HW110389   0.758   7.675   2.103  0.3602  0.5482  0.0727
 3193SOL    HW210390   0.868   7.597   2.033  0.4365  0.0515  0.7370
 3194SOL     OW10391   3.114   2.160   6.909 -0.3766 -0.1416 -0.9783
 3194SOL    HW110392   3.137   2.069   6.890 -0.8764 -0.1261 -1.6893
 3194SOL    HW210393   3.140   2.208   6.830  2.6575  0.8473  0.4515
 3195SOL     OW10394   1.901   1.456   2.456 -0.0273 -0.0270  0.7306
 3195SOL    HW110395   1.849   1.379   2.437  1.0189 -0.6577  0.3317
 3195SOL    HW210396   1.843   1.513   2.507 -1.1462 -0.6091  0.1224
 3196SOL     OW10397   0.754   0.866   1.024 -0.4328 -0.4397 -0.0798
 3196SOL    HW110398   0.706   0.841   0.945  1.1004  0.5800 -1.4112
 3196SOL    HW210399   0.717   0.950   1.050 -0.1439 -0.2034 -0.4277
 3197SOL     OW10400   3.323   5.455   1.047  0.4464  0.1140 -0.3525
 3197SOL    HW110401   3.411   5.473   1.013 -0.3014 -0.2070 -2.6265
 3197SOL    HW210402   3.324   5.492   1.135  3.0611 -0.4922 -0.0475
 3198SOL     OW10403   1.764   0.516   0.774  0.9431  0.3805  0.1786
 3198SOL    HW110404   1.725   0.473   0.850 -0.2382  0.8688 -0.1274
 3198SOL    HW210405   1.802   0.445   0.722  1.1753 -0.0229  0.8864
 3199SOL     OW10406   6.060   2.116   7.901  0.0822  0.0775 -0.3740
 3199SOL    HW110407   6.009   2.035   7.899  1.7305 -0.9929 -1.6156
 3199SOL    HW210408   5.997   2.185   7.880 -1.0678 -1.0271 -0.6923
 3200SOL     OW10409   7.886   2.166   7.769 -0.2111  0.3357 -0.4259
 3200SOL    HW110410   7.879   2.080   7.810 -1.3542  0.5612 -0.0861
 3200SOL    HW210411   7.977   2.173   7.741 -0.0440 -0.8737 -0.2250
 3201SOL     OW10412   2.321   6.991   4.015 -0.1875 -0.0281 -0.4977
 3201SOL    HW110413   2.300   6.965   3.925 -1.8128  0.5985 -0.3363
 3201SOL    HW210414   2.267   6.933   4.070  1.1094 -0.7020  0.1239
 3202SOL     OW10415   4.898   2.362   4.042  0.4952 -0.4129  0.2284
 3202SOL    HW110416   4.955   2.439   4.032  0.7012 -0.6792 -0.7833
 3202SOL    HW210417   4.809   2.398   4.043  0.6336 -0.0767  0.8533
 3203SOL     OW10418   4.697   5.887   4.041  0.6232  1.0885  0.8171
 3203SOL    HW110419   4.692   5.964   4.099  0.7296  1.0723  0.8472
 3203SOL    HW210420   4.726   5.816   4.097  0.8796  1.1072  0.7115
 3204SOL     OW10421   1.713   0.590   5.125 -0.6467 -0.3824  0.1264
 3204SOL    HW110422   1.692   0.541   5.204 -1.3533  1.3493  1.0640
 3204SOL    HW210423   1.800   0.627   5.143 -1.1992  0.7676  0.5053
 3205SOL     OW10424   6.627   0.698   4.944 -0.0842 -0.1156  0.6128
 3205SOL    HW110425   6.635   0.681   5.038  0.3835 -1.4072  0.3561
 3205SOL    HW210426   6.716   0.688   4.909 -0.5199 -1.4595 -0.2225
 3206SOL     OW10427   2.601   4.684   3.998 -0.2424 -0.2895 -0.0503
 3206SOL    HW110428   2.629   4.768   4.034  1.8850 -1.0338  0.1202
 3206SOL    HW210429   2.667   4.662   3.933 -0.2637 -2.2481  0.5336
 3207SOL     OW10430   5.076   0.723   7.420 -0.5677 -0.0181 -0.4779
 3207SOL    HW110431   5.144   0.664   7.452 -1.5535 -0.2549  1.2743
 3207SOL    HW210432   5.016   0.666   7.372  0.8322  0.3154 -2.7842
 3208SOL     OW10433   3.055   3.450   6.574  0.4162  0.5276  0.3039
 3208SOL    HW110434   3.034   3.358   6.556  0.1422  0.8312 -1.0098
 3208SOL    HW210435   2.988   3.500   6.529 -0.1202  1.3887  1.9641
 3209SOL     OW10436   7.645   2.209   5.648  0.2730  0.0872 -0.8292
 3209SOL    HW110437   7.583   2.264   5.697 -0.5467 -2.2306  0.9133
 3209SOL    HW210438   7.682   2.150   5.714  1.5040 -1.1141 -2.5087
 3210SOL     OW10439   1.236   0.179   0.624  0.5692  0.0152 -0.1515
 3210SOL    HW110440   1.272   0.092   0.609  0.0009 -0.0517 -1.2100
 3210SOL    HW210441   1.159   0.184   0.566  1.7464  1.9324 -1.6949
 3211SOL     OW10442   5.407   4.539   3.497 -0.0507  0.1553 -0.0625
 3211SOL    HW110443   5.311   4.539   3.497 -0.0764 -1.2878  0.2464
 3211SOL    HW210444   5.431   4.449   3.518  1.3674 -0.1853 -2.7256
 3212SOL     OW10445   5.318   7.328   2.057 -0.2192 -0.5965 -0.2539
 3212SOL    HW110446   5.254   7.258   2.046 -0.8918 -0.6083  2.8089
 3212SOL    HW210447   5.266   7.402   2.089  1.0787 -0.2003  1.0490
 3213SOL     OW10448   1.118   3.925   4.493  0.0524 -0.3814 -0.5954
 3213SOL    HW110449   1.068   3.897   4.570 -0.6930  0.1810 -0.8724
 3213SOL    HW210450   1.206   3.941   4.528 -0.1877 -0.4639  0.0746
 3214SOL     OW10451   0.349   2.825   4.751 -0.1105  0.0570 -0.0462
 3214SOL    HW110452   0.416   2.867   4.697  0.3691 -0.0575  0.4600
 3214SOL    HW210453   0.274   2.815   4.692 -0.2507  1.6589 -0.1655
 3215SOL     OW10454   3.794   5.243   5.134 -0.3114 -0.0334  0.2974
 3215SOL    HW110455   3.764   5.155   5.110 -0.9655  0.3661 -0.3618
 3215SOL    HW210456   3.716   5.287   5.167 -0.2274  0.6522 -0.3917
 3216SOL     OW10457   7.495   5.504   3.334 -0.2928 -0.3680  0.0490
 3216SOL    HW110458   7.522   5.594   3.353 -1.2368 -0.4678  2.0834
 3216SOL    HW210459   7.565   5.450   3.371 -0.9808 -0.5041  1.2031
 3217SOL     OW10460   4.441   6.689   4.351 -0.1032 -0.3355 -0.3776
 3217SOL    HW110461   4.375   6.746   4.390  1.2658  2.6562 -2.0740
 3217SOL    HW210462   4.514   6.692   4.413 -0.1490 -0.4956 -0.3165
 3218SOL     OW10463   7.525   6.095   6.642  0.2723  0.6173  0.0058
 3218SOL    HW110464   7.483   6.012   6.665  0.7734  0.4530  0.3318
 3218SOL    HW210465   7.488   6.158   6.704  1.2280  0.2789  0.9446
 3219SOL     OW10466   6.586   4.342   2.975 -0.0815  0.0995 -0.6195
 3219SOL    HW110467   6.497   4.377   2.988  0.1924  1.2487 -1.6011
 3219SOL    HW210468   6.615   4.382   2.893  1.3600 -0.2418 -0.2993
 3220SOL     OW10469   4.942   3.321   0.640 -0.1758  0.3018  0.0080
 3220SOL    HW110470   4.891   3.398   0.615  0.1745  0.6347  0.3098
 3220SOL    HW210471   4.950   3.327   0.735  0.7464  0.4630 -0.0660
 3221SOL     OW10472   2.860   3.986   6.015  0.7640 -0.0084  0.3561
 3221SOL    HW110473   2.921   3.976   5.942  0.4670 -0.4227  0.1640
 3221SOL    HW210474   2.891   4.064   6.061  0.1596  1.0674 -0.9844
 3222SOL     OW10475   4.899   0.802   2.998 -0.8665 -0.1828  0.1048
 3222SOL    HW110476   4.834   0.747   2.955 -0.6092 -1.0282  0.7621
 3222SOL    HW210477   4.849   0.860   3.055 -1.0223 -1.4033  1.2501
 3223SOL     OW10478   5.952   7.567   2.536 -0.3142  0.7060  0.2045
 3223SOL    HW110479   5.997   7.637   2.489  1.6115 -0.2022  0.5788
 3223SOL    HW210480   5.912   7.514   2.467  2.0008 -0.3009 -0.4492
 3224SOL     OW10481   7.608   2.604   6.809  0.4060  0.1954 -0.0972
 3224SOL    HW110482   7.638   2.520   6.844 -0.7010 -0.0543  0.2950
 3224SOL    HW210483   7.549   2.580   6.738  0.1552  0.6468 -0.0417
 3225SOL     OW10484   4.334   4.212   7.481  0.3618  0.2433  0.1645
 3225SOL    HW110485   4.252   4.245   7.445 -1.3051 -1.8403  1.7551
 3225SOL    HW210486   4.319   4.208   7.576  1.8877 -1.2360  0.4027
 3226SOL     OW10487   3.757   1.575   3.956  0.2308  0.4556  0.4731
 3226SOL    HW110488   3.773   1.661   3.917 -0.0882  0.9345  1.3814
 3226SOL    HW210489   3.812   1.515   3.905 -0.9840  0.8748 -1.4260
 3227SOL     OW10490   5.858   2.367   0.695  0.6395 -0.1378  0.4230
 3227SOL    HW110491   5.893   2.443   0.649 -0.1015  0.1676  0.3473
 3227SOL    HW210492   5.896   2.292   0.649  0.4373  0.1713 -0.2678
 3228SOL     OW10493   2.636   6.219   1.498 -0.6134  0.2250  0.2683
 3228SOL    HW110494   2.704   6.263   1.447 -0.9147  0.3060 -0.0683
 3228SOL    HW210495   2.584   6.290   1.535  0.1983  0.1983  1.5378
 3229SOL     OW10496   0.832   5.915   6.200 -0.2677  0.9784 -0.5099
 3229SOL    HW110497   0.833   5.820   6.204  0.1928  0.9533 -1.1116
 3229SOL    HW210498   0.775   5.942   6.272  1.2898  0.3359  1.0252
 3230SOL     OW10499   3.907   7.314   2.667  0.1538 -0.0545  0.3860
 3230SOL    HW110500   3.981   7.375   2.659  0.1111  0.0331  0.6706
 3230SOL    HW210501   3.838   7.365   2.709 -0.6141  0.3308 -1.2705
 3231SOL     OW10502   0.873   0.373   0.978 -0.7033 -0.4107  0.0543
 3231SOL    HW110503   0.932   0.414   0.914  0.9127 -1.3942  0.8455
 3231SOL    HW210504   0.892   0.280   0.972 -0.4059 -0.5301  2.0084
 3232SOL     OW10505   0.991   4.159   3.361 -0.2182 -0.0512  0.2524
 3232SOL    HW110506   0.951   4.244   3.379  0.1062  0.0047  0.7340
 3232SOL    HW210507   1.066   4.155   3.420  0.1418 -0.4043 -0.2240
 3233SOL     OW10508   1.468   3.625   6.890  0.4287  0.1441 -0.3565
 3233SOL    HW110509   1.478   3.605   6.797 -1.3346 -0.3944 -0.4819
 3233SOL    HW210510   1.400   3.693   6.892  0.7096  0.4087  0.5180
 3234SOL     OW10511   1.683   1.494   1.845  0.1513 -0.2206  0.0732
 3234SOL    HW110512   1.712   1.403   1.843  0.7258 -0.1811  2.9166
 3234SOL    HW210513   1.697   1.525   1.755 -0.8653 -3.1198 -1.2040
 3235SOL     OW10514   1.052   5.159   5.489  0.1351 -0.1549  0.2727
 3235SOL    HW110515   1.066   5.235   5.545 -0.4315  1.9564 -2.2606
 3235SOL    HW210516   1.064   5.192   5.400 -0.9479 -2.8492 -0.9844
 3236SOL     OW10517   0.894   6.295   5.019 -0.0915  0.1621  0.3337
 3236SOL    HW110518   0.858   6.315   5.105 -1.1249  0.8471 -0.2367
 3236SOL    HW210519   0.986   6.319   5.025  0.4862 -2.1068  1.9910
 3237SOL     OW10520   1.936   4.529   4.505 -0.3825 -0.3627  0.0164
 3237SOL    HW110521   1.925   4.553   4.597 -0.6203 -1.8876  0.4110
 3237SOL    HW210522   1.877   4.454   4.492 -1.5203  0.7683 -1.7871
 3238SOL     OW10523   7.327   3.982   6.473 -0.1028  0.8855 -0.0033
 3238SOL    HW110524   7.395   3.990   6.539  1.0179  0.6796 -1.1070
 3238SOL    HW210525   7.314   3.887   6.463 -1.6841  0.9212  1.3037
 3239SOL     OW10526   6.735   1.941   2.783 -0.4003  0.0849  0.1914
 3239SOL    HW110527   6.682   2.012   2.819 -1.3339  1.0937 -2.9424
 3239SOL    HW210528   6.823   1.958   2.817 -1.0957  1.2234  1.5333
 3240SOL     OW10529   2.380   7.896   3.340 -0.0555 -0.0868 -0.0639
 3240SOL    HW110530   2.346   7.926   3.425  0.0886 -2.0854  0.7713
 3240SOL    HW210531   2.448   7.960   3.317 -1.1973  1.3921  0.5076
 3241SOL     OW10532   3.021   0.046   2.414 -0.4542 -0.2632 -0.1518
 3241SOL    HW110533   3.107   0.009   2.392  1.0795  1.9848  1.5288
 3241SOL    HW210534   3.031   0.140   2.396 -2.7807 -0.0293 -0.4336
 3242SOL     OW10535   6.953   3.089   3.657 -0.4499 -0.5176  0.0876
 3242SOL    HW110536   6.887   3.126   3.599 -2.1037 -0.2997  1.9798
 3242SOL    HW210537   6.983   3.164   3.710 -2.1723 -1.3240  2.3937
 3243SOL     OW10538   6.248   2.547   0.289 -0.3130  0.5121  0.0779
 3243SOL    HW110539   6.265   2.626   0.341  0.4754 -0.0511  0.7104
 3243SOL    HW210540   6.235   2.579   0.200 -1.1532  1.4534  0.5253
 3244SOL     OW10541   2.585   3.012   2.844 -0.4087 -0.0421  0.2418
 3244SOL    HW110542   2.585   3.058   2.760  0.8412 -1.3584 -0.5123
 3244SOL    HW210543   2.671   2.971   2.850 -1.6665 -2.8697  0.5292
 3245SOL     OW10544   1.046   1.922   0.563 -0.1151  0.3384 -0.0541
 3245SOL    HW110545   1.076   1.958   0.646  0.1949  2.3181 -0.9712
 3245SOL    HW210546   0.986   1.988   0.527  0.2555 -0.1566 -1.6913
 3246SOL     OW10547   1.068   5.031   6.352 -0.0315 -0.4647 -1.0602
 3246SOL    HW110548   1.093   5.115   6.312  1.0470 -0.5367 -0.5711
 3246SOL    HW210549   1.049   4.974   6.278  0.4704 -0.1545 -1.4344
 3247SOL     OW10550   2.835   4.784   0.931  0.0439  0.6609 -0.4339
 3247SOL    HW110551   2.907   4.724   0.950 -1.4654 -0.9646  0.4055
 3247SOL    HW210552   2.834   4.845   1.004  0.0385  0.1520 -0.0056
 3248SOL     OW10553   7.632   4.347   3.314  0.3186  0.4105  0.0985
 3248SOL    HW110554   7.723   4.347   3.286  0.5271  1.8895  0.6997
 3248SOL    HW210555   7.633   4.298   3.397  0.5455  0.3525  0.0628
 3249SOL     OW10556   5.764   7.387   3.795 -0.7171 -0.3091 -0.3728
 3249SOL    HW110557   5.718   7.334   3.861 -0.8180 -1.3772 -1.2775
 3249SOL    HW210558   5.856   7.364   3.805 -0.6973 -0.2514 -0.4213
 3250SOL     OW10559   6.499   7.446   7.621  0.7494 -0.6397 -0.3124
 3250SOL    HW110560   6.431   7.416   7.561 -0.2320  0.0297  0.4314
 3250SOL    HW210561   6.503   7.376   7.687 -0.8505  0.3357  0.8846
 3251SOL     OW10562   3.785   5.758   0.754 -0.5625  0.1203  0.8164
 3251SOL    HW110563   3.691   5.740   0.756 -0.3314 -1.1343  1.0439
 3251SOL    HW210564   3.791   5.853   0.761 -1.8250  0.2505  0.4439
 3252SOL     OW10565   1.604   5.343   2.254 -0.3571  0.1164  0.5010
 3252SOL    HW110566   1.680   5.344   2.312  1.0105  0.3633 -1.2023
 3252SOL    HW210567   1.587   5.251   2.237  0.2749  0.0766  0.0432
 3253SOL     OW10568   4.890   0.555   4.183  0.5034 -0.1617  0.0582
 3253SOL    HW110569   4.920   0.554   4.273  0.6281  0.4203  0.0221
 3253SOL    HW210570   4.969   0.547   4.130  0.5804  0.9955 -0.0275
 3254SOL     OW10571   5.052   7.926   2.311  0.1614  0.4701 -0.3933
 3254SOL    HW110572   4.991   7.951   2.380 -1.1025 -0.4358 -1.1366
 3254SOL    HW210573   5.047   7.996   2.247 -1.6435 -0.5103 -1.3902
 3255SOL     OW10574   0.679   4.351   2.670  0.5187  0.1795  0.4318
 3255SOL    HW110575   0.619   4.425   2.672  1.4993  0.9939  0.5897
 3255SOL    HW210576   0.763   4.388   2.641  1.8534 -0.2154  3.3699
 3256SOL     OW10577   1.439   7.591   2.897  0.3417 -0.1812 -0.1070
 3256SOL    HW110578   1.377   7.614   2.966  1.1211  2.1026 -0.0875
 3256SOL    HW210579   1.390   7.605   2.816 -0.0026 -1.0847 -0.0657
 3257SOL     OW10580   0.251   5.844   3.520 -0.4304 -0.0150 -0.6818
 3257SOL    HW110581   0.346   5.833   3.509 -0.0833  2.0951 -0.1898
 3257SOL    HW210582   0.213   5.789   3.451  1.2281  0.8805 -2.3997
 3258SOL     OW10583   1.850   7.476   5.479 -0.0911 -0.7691  0.0767
 3258SOL    HW110584   1.809   7.425   5.409 -2.4547  1.3144 -0.2040
 3258SOL    HW210585   1.869   7.561   5.439 -1.1241  0.3349  1.7975
 3259SOL     OW10586   1.033   0.905   7.939 -0.1710  0.2000  0.0292
 3259SOL    HW110587   0.964   0.971   7.932 -1.1794 -0.8227  0.2441
 3259SOL    HW210588   1.110   0.955   7.969 -1.1431  1.1326  1.0568
 3260SOL     OW10589   5.817   2.923   6.984 -0.4583  0.5121 -0.0920
 3260SOL    HW110590   5.795   3.010   6.953  2.1549  1.0118 -0.7338
 3260SOL    HW210591   5.741   2.869   6.959 -2.2799  2.5994  0.6335
 3261SOL     OW10592   1.253   3.241   0.624 -0.1950 -0.2258  0.3567
 3261SOL    HW110593   1.328   3.269   0.571 -0.0982  0.9910  1.0932
 3261SOL    HW210594   1.283   3.162   0.669  0.0094 -0.7927 -0.7405
 3262SOL     OW10595   6.251   0.498   1.310 -0.2946 -0.2306 -0.2526
 3262SOL    HW110596   6.163   0.487   1.345 -1.2064 -1.9225 -2.8297
 3262SOL    HW210597   6.308   0.456   1.375 -1.3830  0.5351  1.2492
 3263SOL     OW10598   4.975   6.722   5.076 -0.2502 -0.3842  0.2070
 3263SOL    HW110599   4.939   6.695   4.991  0.2613 -0.3753 -0.0125
 3263SOL    HW210600   4.918   6.794   5.103 -0.0344  0.0415 -0.4309
 3264SOL     OW10601   4.336   4.705   4.121 -0.3019  0.3850  0.0943
 3264SOL    HW110602   4.303   4.790   4.151  0.8772  0.6931  0.5562
 3264SOL    HW210603   4.408   4.684   4.180 -0.6716 -1.0251  0.0881
 3265SOL     OW10604   7.915   5.199   0.844 -0.0262  0.3859  0.5627
 3265SOL    HW110605   7.870   5.260   0.786 -1.2419 -2.2408 -1.5030
 3265SOL    HW210606   7.851   5.178   0.912  0.0585  0.7197  0.7448
 3266SOL     OW10607   1.012   7.796   1.653 -0.3037 -0.7621  0.1413
 3266SOL    HW110608   0.972   7.867   1.602 -0.5947 -1.4727 -0.6403
 3266SOL    HW210609   0.992   7.818   1.744 -2.5063 -1.0924 -0.2208
 3267SOL     OW10610   1.986   7.306   4.103  0.4428 -0.0968  0.4342
 3267SOL    HW110611   2.028   7.373   4.157  0.2087 -0.8378  1.5689
 3267SOL    HW210612   1.960   7.238   4.165  0.9039 -1.3664 -0.7327
 3268SOL     OW10613   6.291   6.865   4.016  0.0073 -0.5284 -0.1117
 3268SOL    HW110614   6.323   6.949   3.984 -0.0456 -1.4582 -2.8689
 3268SOL    HW210615   6.203   6.884   4.049  0.6501  0.7570  0.9771
 3269SOL     OW10616   6.300   7.286   6.281 -0.1416  0.9297 -0.6180
 3269SOL    HW110617   6.365   7.230   6.323 -1.0927 -0.2465 -0.6540
 3269SOL    HW210618   6.235   7.303   6.349 -1.4069 -0.5319 -1.4043
 3270SOL     OW10619   0.005   3.517   3.484  0.8041 -0.0023 -0.1936
 3270SOL    HW110620  -0.061   3.585   3.465  0.8683  0.0884 -0.0911
 3270SOL    HW210621  -0.046   3.444   3.518  0.8393  0.3793  0.7125
 3271SOL     OW10622   6.677   1.476   7.139 -0.3963  0.8087  0.2092
 3271SOL    HW110623   6.715   1.404   7.089 -0.3496  0.6313  0.4949
 3271SOL    HW210624   6.715   1.554   7.101  0.8328  0.5991  0.9528
 3272SOL     OW10625   7.274   1.963   1.963 -0.7842 -0.0956  0.0672
 3272SOL    HW110626   7.360   1.963   2.005 -0.2589 -2.0962 -0.9083
 3272SOL    HW210627   7.236   2.048   1.987  0.4807 -0.1112  2.4846
 3273SOL     OW10628   3.976   7.694   0.594 -0.0760  0.3917 -0.7014
 3273SOL    HW110629   3.904   7.756   0.606 -0.1992  0.2157 -0.5253
 3273SOL    HW210630   3.939   7.625   0.539  0.4313  1.1033 -1.9824
 3274SOL     OW10631   5.831   3.563   1.157  0.0217 -0.4492 -0.2653
 3274SOL    HW110632   5.743   3.583   1.189  0.6733  0.5248  1.0150
 3274SOL    HW210633   5.889   3.614   1.213  1.3682 -0.3577 -1.6723
 3275SOL     OW10634   1.902   5.224   3.883  0.2745  0.0635 -0.3526
 3275SOL    HW110635   1.981   5.186   3.844  0.2108  0.2240 -0.6419
 3275SOL    HW210636   1.840   5.151   3.885  0.3084  0.0311 -0.4635
 3276SOL     OW10637   6.084   1.831   0.526 -0.4126  0.2244 -0.3939
 3276SOL    HW110638   6.173   1.798   0.514 -0.6898 -0.3783 -0.8450
 3276SOL    HW210639   6.078   1.850   0.620  0.3259  0.6961 -0.4266
 3277SOL     OW10640   0.419   5.851   0.439 -0.1483  0.5627  0.0722
 3277SOL    HW110641   0.503   5.885   0.407  0.0124 -0.6078 -0.8383
 3277SOL    HW210642   0.368   5.929   0.459  0.6741  1.3247 -0.6530
 3278SOL     OW10643   5.449   4.728   5.910  0.9196  0.1516 -0.2847
 3278SOL    HW110644   5.467   4.638   5.882  0.2497 -1.0215  2.6787
 3278SOL    HW210645   5.518   4.747   5.974 -1.6157 -0.2102  2.7921
 3279SOL     OW10646   4.080   2.729   5.310  0.3489  0.0392 -0.4515
 3279SOL    HW110647   4.144   2.662   5.284  1.2183  0.6458  0.0391
 3279SOL    HW210648   4.114   2.810   5.271  0.7677  0.6552  1.1076
 3280SOL     OW10649   6.174   6.075   2.879  0.5314 -0.0797 -0.2566
 3280SOL    HW110650   6.102   6.099   2.821 -0.8240  0.2295  1.4897
 3280SOL    HW210651   6.208   6.159   2.909  0.0238 -0.2449  0.8071
 3281SOL     OW10652   2.754   2.703   2.316  0.3112 -0.0275 -0.3552
 3281SOL    HW110653   2.735   2.719   2.224  2.2398 -0.5791 -0.8975
 3281SOL    HW210654   2.719   2.615   2.333  0.0512  0.0314 -0.5862
 3282SOL     OW10655   2.285   4.119   4.027 -0.1426  0.1377  0.0437
 3282SOL    HW110656   2.380   4.110   4.022 -0.1103  0.3589  0.2206
 3282SOL    HW210657   2.251   4.068   3.953  0.0989 -0.1711  0.1463
 3283SOL     OW10658   5.904   6.264   2.960  0.1695 -0.4923 -0.0083
 3283SOL    HW110659   5.822   6.311   2.974  1.0285  1.4947 -1.0966
 3283SOL    HW210660   5.878   6.173   2.951 -1.8244 -0.0240  0.4321
 3284SOL     OW10661   4.960   4.060   1.177  0.0033 -0.0508  0.0715
 3284SOL    HW110662   5.027   4.123   1.149 -1.5910  0.9965 -1.6705
 3284SOL    HW210663   4.973   3.985   1.119 -1.6234  1.0521 -1.8683
 3285SOL     OW10664   3.819   2.197   1.788 -0.5953  0.0652 -0.0962
 3285SOL    HW110665   3.821   2.292   1.784 -1.3474  0.0785 -0.2992
 3285SOL    HW210666   3.904   2.169   1.751 -0.5919  0.6363 -0.5294
 3286SOL     OW10667   5.984   0.700   4.535  0.5736  0.2147 -0.3298
 3286SOL    HW110668   5.902   0.700   4.487  0.6085 -1.2416 -0.4598
 3286SOL    HW210669   5.979   0.776   4.593 -1.2768 -0.3557  0.3376
 3287SOL     OW10670   4.302   1.202   2.558  0.3454 -0.3907  0.0853
 3287SOL    HW110671   4.223   1.205   2.612  1.0361 -1.3569  1.1831
 3287SOL    HW210672   4.362   1.265   2.599  0.0037  0.7283 -1.0468
 3288SOL     OW10673   5.692   2.035   7.435 -0.4888  0.5141 -0.1196
 3288SOL    HW110674   5.676   1.970   7.504 -0.0469  0.2861 -0.2308
 3288SOL    HW210675   5.606   2.054   7.400 -0.9164  1.6792  1.4395
 3289SOL     OW10676   3.358   3.080   0.233  0.2282  0.5444  0.3770
 3289SOL    HW110677   3.289   3.016   0.214  0.7211  0.0403  0.2691
 3289SOL    HW210678   3.339   3.109   0.322  0.7558 -0.7461  0.9411
 3290SOL     OW10679   5.791   1.092   0.855 -0.2438  0.1493 -0.4951
 3290SOL    HW110680   5.791   1.068   0.948  0.4886  0.6059 -0.3648
 3290SOL    HW210681   5.771   1.185   0.854  0.7786  0.3799 -0.7108
 3291SOL     OW10682   6.596   7.944   3.520  0.2211  0.1663 -0.0021
 3291SOL    HW110683   6.512   7.985   3.537 -0.6180 -1.0616 -0.9273
 3291SOL    HW210684   6.651   7.967   3.595 -0.3398  2.4712 -0.2335
 3292SOL     OW10685   3.492   2.054   1.289  0.1725 -0.1129 -0.0102
 3292SOL    HW110686   3.411   2.063   1.238 -0.7630 -2.4733  0.9271
 3292SOL    HW210687   3.541   1.986   1.244  1.2776  0.6797 -0.0501
 3293SOL     OW10688   5.433   6.158   5.748 -0.1229  0.0678  0.2351
 3293SOL    HW110689   5.461   6.203   5.828 -0.9141  0.3252  0.3752
 3293SOL    HW210690   5.351   6.200   5.724 -0.3627 -0.6241 -0.1990
 3294SOL     OW10691   2.038   5.725   2.191  0.0607  0.1292 -0.2401
 3294SOL    HW110692   1.998   5.810   2.170  0.3212  1.0325  2.4495
 3294SOL    HW210693   2.132   5.744   2.196  0.0932 -0.2245  0.6629
 3295SOL     OW10694   2.815   2.886   2.891 -0.1291 -0.3011  0.2670
 3295SOL    HW110695   2.884   2.937   2.934  1.6756 -0.6841 -1.9689
 3295SOL    HW210696   2.802   2.810   2.949  0.4597  0.3723  1.3206
 3296SOL     OW10697   5.965   1.621   6.899  0.3501 -0.1756 -0.3487
 3296SOL    HW110698   5.875   1.636   6.868  0.2683 -0.4063 -0.2237
 3296SOL    HW210699   5.956   1.611   6.994  0.4948 -0.2920 -0.3476
 3297SOL     OW10700   1.498   3.978   0.577  0.3656  0.3259 -0.1075
 3297SOL    HW110701   1.495   4.056   0.522 -0.3814 -0.8536 -1.8125
 3297SOL    HW210702   1.407   3.962   0.601  0.2559 -1.0317 -1.3084
 3298SOL     OW10703   2.644   4.636   5.292  0.1846  0.1027  0.5130
 3298SOL    HW110704   2.572   4.588   5.333 -0.3587  0.5911  0.1505
 3298SOL    HW210705   2.692   4.674   5.365  0.2831 -0.5081  0.7736
 3299SOL     OW10706   7.351   4.017   3.458 -0.2684 -0.0314 -0.4304
 3299SOL    HW110707   7.441   3.996   3.482 -0.7243 -1.4247  0.1431
 3299SOL    HW210708   7.310   4.044   3.541 -1.0303 -1.8969 -0.1479
 3300SOL     OW10709   3.803   7.311   1.188  0.2294  0.5290 -0.2339
 3300SOL    HW110710   3.800   7.240   1.124  0.9599 -0.5946  0.9225
 3300SOL    HW210711   3.724   7.299   1.241  1.3504 -0.7114  1.2355
 3301SOL     OW10712   7.791   1.046   6.971 -0.4259 -0.8552  0.3739
 3301SOL    HW110713   7.734   1.053   6.895 -0.1182  0.3453  0.2352
 3301SOL    HW210714   7.874   1.082   6.942 -0.3863 -0.1283  1.3540
 3302SOL     OW10715   4.592   6.539   3.722 -0.5234  0.2503  0.4903
 3302SOL    HW110716   4.645   6.460   3.721  0.2799  0.7852  0.0532
 3302SOL    HW210717   4.522   6.520   3.784 -2.2540 -2.0588 -1.9205
 3303SOL     OW10718   1.705   2.446   6.356 -0.5944  1.4161 -0.1564
 3303SOL    HW110719   1.655   2.377   6.312  1.1080  0.8557 -1.3303
 3303SOL    HW210720   1.744   2.496   6.285  0.2738  2.0035  0.7121
 3304SOL     OW10721   3.526   0.785   0.282 -0.0741 -0.1909  0.1409
 3304SOL    HW110722   3.583   0.857   0.254 -1.0005 -0.2256 -2.0269
 3304SOL    HW210723   3.529   0.788   0.378  0.5361  2.2393  0.1074
 3305SOL     OW10724   2.972   1.868   0.567  0.0915  0.1080  0.3168
 3305SOL    HW110725   2.900   1.819   0.529  1.4202 -0.8551 -1.0968
 3305SOL    HW210726   2.976   1.949   0.516 -1.3886  1.2832  1.9196
 3306SOL     OW10727   1.790   6.566   2.257 -0.1582 -0.0450 -0.3822
 3306SOL    HW110728   1.854   6.565   2.328 -1.1346 -0.0225  0.5258
 3306SOL    HW210729   1.834   6.613   2.186  0.4716  0.8397  0.5607
 3307SOL     OW10730   1.727   1.578   2.603 -0.2516  0.5049 -0.5542
 3307SOL    HW110731   1.662   1.584   2.533 -1.4788  0.2908  0.5180
 3307SOL    HW210732   1.680   1.537   2.676  1.5027 -1.0124 -0.1977
 3308SOL     OW10733   5.335   5.907   1.904  0.4092 -0.0758  0.0129
 3308SOL    HW110734   5.312   5.948   1.821  0.2561  0.1290  0.1555
 3308SOL    HW210735   5.379   5.976   1.954  0.9848 -0.3520 -0.1080
 3309SOL     OW10736   2.582   2.172   6.976  0.1354 -0.0807  0.2233
 3309SOL    HW110737   2.576   2.266   6.994  1.3687  0.5091 -2.0295
 3309SOL    HW210738   2.642   2.139   7.044 -0.0234  0.8155  0.8218
 3310SOL     OW10739   1.731   0.200   5.347 -0.4170  0.1701 -0.6901
 3310SOL    HW110740   1.703   0.108   5.340 -0.8413  0.2493 -0.0712
 3310SOL    HW210741   1.711   0.237   5.261  0.8016 -0.5934 -1.3224
 3311SOL     OW10742   3.360   4.285   5.263  0.1727  1.1677  0.5034
 3311SOL    HW110743   3.364   4.247   5.351  0.5904  1.4264  0.5962
 3311SOL    HW210744   3.403   4.370   5.271  0.2484  1.1749  0.0373
 3312SOL     OW10745   2.920   4.042   1.399  0.0708  0.2277 -1.0600
 3312SOL    HW110746   3.012   4.030   1.420  0.2142  0.9069 -1.2771
 3312SOL    HW210747   2.917   4.122   1.347 -0.8044  0.9910  0.1100
 3313SOL     OW10748   0.891   4.041   6.740 -0.0685  0.0387  0.5774
 3313SOL    HW110749   0.898   4.136   6.730  1.2150  0.0270  1.2159
 3313SOL    HW210750   0.835   4.030   6.817 -0.4507  0.2559  0.3396
 3314SOL     OW10751   3.228   0.142   6.811 -0.1193 -0.5046 -0.0017
 3314SOL    HW110752   3.143   0.108   6.841  0.2789 -1.0248  0.5670
 3314SOL    HW210753   3.216   0.237   6.808 -0.9788 -0.6135 -0.7419
 3315SOL     OW10754   0.836   3.623   1.997 -0.0760  0.5702  0.1690
 3315SOL    HW110755   0.832   3.644   2.090 -1.6467 -0.4454  0.3679
 3315SOL    HW210756   0.926   3.591   1.984  0.0706  0.4347  1.4068
 3316SOL     OW10757   4.747   7.198   1.645 -0.0042  0.1180  0.4638
 3316SOL    HW110758   4.656   7.168   1.648  0.0676 -0.0668  0.8726
 3316SOL    HW210759   4.768   7.202   1.552 -0.7197  1.0234  0.3228
 3317SOL     OW10760   1.903   5.464   2.044 -0.3921  0.5165 -0.2563
 3317SOL    HW110761   1.880   5.373   2.026  1.9477 -0.2483  0.2065
 3317SOL    HW210762   1.908   5.505   1.958  1.1276 -0.5405 -0.7231
 3318SOL     OW10763   7.593   0.102   2.844 -0.1570 -0.5356  0.0965
 3318SOL    HW110764   7.601   0.043   2.769 -1.2299  0.3477 -0.7564
 3318SOL    HW210765   7.539   0.174   2.812  0.6015  0.6150  1.2840
 3319SOL     OW10766   4.954   3.096   1.385 -0.6224 -0.4257 -0.3649
 3319SOL    HW110767   5.024   3.075   1.446 -0.4923  0.2975 -0.2635
 3319SOL    HW210768   4.950   3.020   1.326  0.3388 -0.4013 -0.4650
 3320SOL     OW10769   3.279   1.696   6.797  0.0181 -0.2978  0.0786
 3320SOL    HW110770   3.341   1.709   6.725  1.4319  0.0950  1.3276
 3320SOL    HW210771   3.316   1.623   6.847 -0.5299 -0.0473  0.8579
 3321SOL     OW10772   5.112   5.252   4.558 -0.1589 -0.3470 -0.2861
 3321SOL    HW110773   5.033   5.265   4.610 -1.1676  0.1446 -1.8574
 3321SOL    HW210774   5.134   5.160   4.570  0.1187 -0.0673  1.6100
 3322SOL     OW10775   3.812   0.712   3.535  0.8964 -1.0616 -0.1159
 3322SOL    HW110776   3.863   0.639   3.500  2.0512 -0.3477  0.0350
 3322SOL    HW210777   3.877   0.778   3.557 -0.0912 -0.1924  0.2546
 3323SOL     OW10778   3.485   4.741   6.800 -0.1988 -0.5132  0.6867
 3323SOL    HW110779   3.429   4.810   6.834 -0.8044 -0.0428 -1.1611
 3323SOL    HW210780   3.425   4.673   6.768  0.0401  0.7811 -2.9902
 3324SOL     OW10781   4.984   4.157   7.378 -0.1634 -0.2888  0.0443
 3324SOL    HW110782   5.032   4.122   7.304 -1.3105  0.2815 -1.0157
 3324SOL    HW210783   4.903   4.192   7.340 -0.9188 -0.2426  1.6038
 3325SOL     OW10784   6.473   5.524   7.090  0.1130 -0.0176  0.1091
 3325SOL    HW110785   6.536   5.492   7.155  0.2291  0.6393  0.3291
 3325SOL    HW210786   6.399   5.465   7.097  0.8664 -1.0525 -0.4394
 3326SOL     OW10787   5.626   6.319   3.586 -0.1906 -0.1634 -0.3464
 3326SOL    HW110788   5.576   6.253   3.635  2.2322 -1.2307  0.8828
 3326SOL    HW210789   5.682   6.267   3.527  1.2699  0.7725  0.1501
 3327SOL     OW10790   3.855   7.069   5.308 -0.7131 -0.2439  0.3689
 3327SOL    HW110791   3.867   7.162   5.287  0.5818  0.0200  2.1077
 3327SOL    HW210792   3.761   7.060   5.322 -0.9678  0.6080 -0.6270
 3328SOL     OW10793   4.885   0.846   2.247  0.1518 -0.3288  0.0499
 3328SOL    HW110794   4.897   0.937   2.273 -1.4118 -0.5431  1.6623
 3328SOL    HW210795   4.815   0.813   2.303  0.8942 -2.6277 -0.2506
 3329SOL     OW10796   2.580   4.976   0.250  0.1315  0.1326 -0.1776
 3329SOL    HW110797   2.649   4.975   0.184 -0.8087  1.2001 -1.2281
 3329SOL    HW210798   2.605   5.046   0.311  0.1735  0.2609 -0.3413
 3330SOL     OW10799   6.977   3.312   3.851  0.6767  0.2639 -0.2274
 3330SOL    HW110800   7.043   3.378   3.873 -0.5815  3.1844 -4.0849
 3330SOL    HW210801   6.894   3.349   3.882  0.0150  0.3826 -1.9860
 3331SOL     OW10802   3.755   4.145   3.048  0.4267  0.6266 -0.0952
 3331SOL    HW110803   3.683   4.131   3.109  1.1395  0.9126  0.8485
 3331SOL    HW210804   3.828   4.172   3.104  1.1001  0.9089 -1.0877
 3332SOL     OW10805   5.784   0.933   3.382  0.1956 -0.0396  0.1450
 3332SOL    HW110806   5.845   0.861   3.366  1.3930  0.6450  1.4652
 3332SOL    HW210807   5.824   1.009   3.340 -1.3848 -0.1995 -1.8242
 3333SOL     OW10808   5.526   4.656   3.780  0.4715 -0.0224  0.2167
 3333SOL    HW110809   5.483   4.643   3.695 -2.6303 -3.4740  2.0002
 3333SOL    HW210810   5.608   4.608   3.772  0.0009 -0.7336 -0.7561
 3334SOL     OW10811   5.123   5.838   5.585 -0.0238  0.3590  0.3214
 3334SOL    HW110812   5.069   5.800   5.515  0.4908 -0.4455  0.3483
 3334SOL    HW210813   5.111   5.779   5.659  0.5951  0.3874  0.4466
 3335SOL     OW10814   4.436   6.946   1.281 -0.1002  0.4591  0.8490
 3335SOL    HW110815   4.460   6.854   1.269 -0.7348  0.3010  0.7434
 3335SOL    HW210816   4.519   6.992   1.288  0.2323 -0.0432  0.2901
 3336SOL     OW10817   3.920   6.113   4.834  0.1046  0.5449 -0.0263
 3336SOL    HW110818   3.897   6.052   4.763 -1.7297 -0.6738  1.4895
 3336SOL    HW210819   3.875   6.194   4.811  2.1515  1.2481 -1.8150
 3337SOL     OW10820   6.575   0.835   1.071  0.1855 -0.5825 -0.5323
 3337SOL    HW110821   6.481   0.849   1.072  0.2716 -0.0244  0.8546
 3337SOL    HW210822   6.608   0.897   1.006 -0.0691  1.6753  1.3764
 3338SOL     OW10823   3.442   6.825   1.723  0.0588 -0.3435 -0.1297
 3338SOL    HW110824   3.423   6.917   1.739 -0.2970 -0.1962 -1.3067
 3338SOL    HW210825   3.529   6.811   1.762 -0.2064  0.2872  0.7046
 3339SOL     OW10826   0.838   6.506   2.319  0.0110  0.9802 -0.4119
 3339SOL    HW110827   0.889   6.587   2.308 -0.6127  1.3852 -0.3780
 3339SOL    HW210828   0.894   6.438   2.283  0.6022  1.4097 -0.3299
 3340SOL     OW10829   2.731   0.305   4.361 -0.3641  0.1528  0.5536
 3340SOL    HW110830   2.665   0.359   4.317  0.1589 -0.5607 -1.2152
 3340SOL    HW210831   2.808   0.309   4.304  0.6286 -0.2107  1.8221
 3341SOL     OW10832   7.322   1.176   7.542 -0.0544 -0.2088  0.1300
 3341SOL    HW110833   7.307   1.264   7.577  0.9492 -0.4266  1.1476
 3341SOL    HW210834   7.297   1.118   7.613  0.1029 -0.7336 -0.2409
 3342SOL     OW10835   2.477   7.623   2.995 -0.7147  0.9638 -0.0166
 3342SOL    HW110836   2.553   7.611   2.939 -0.5746 -0.1414  0.3982
 3342SOL    HW210837   2.497   7.575   3.075 -1.7446  0.8501  0.1976
 3343SOL     OW10838   2.593   7.073   4.754  0.3771  0.0276 -0.3537
 3343SOL    HW110839   2.632   7.155   4.722  1.1512  0.0891  0.7099
 3343SOL    HW210840   2.583   7.087   4.848 -1.9129 -0.1319 -0.5252
 3344SOL     OW10841   2.497   7.351   7.942  0.4744  0.1165  0.1298
 3344SOL    HW110842   2.517   7.319   8.031  0.8076  1.2564  0.4774
 3344SOL    HW210843   2.561   7.306   7.886 -0.9009 -2.0219  0.1675
 3345SOL     OW10844   0.827   4.173   7.725  0.5565  0.3076 -0.4716
 3345SOL    HW110845   0.861   4.147   7.811  1.1653  1.7527 -0.2437
 3345SOL    HW210846   0.738   4.203   7.742  0.1401 -0.7935 -0.6090
 3346SOL     OW10847   4.873   5.736   6.113 -0.4338  0.0015 -0.9562
 3346SOL    HW110848   4.946   5.678   6.137 -1.1631  0.1093  1.9396
 3346SOL    HW210849   4.915   5.812   6.073  0.9316 -0.5763 -0.6975
 3347SOL     OW10850   5.712   5.581   0.507 -0.8958 -0.0017 -0.1833
 3347SOL    HW110851   5.735   5.663   0.462  0.1806 -0.1928  0.0046
 3347SOL    HW210852   5.704   5.605   0.599 -0.8563 -0.0562 -0.1657
 3348SOL     OW10853   5.089   3.292   0.200 -0.2063 -0.0169 -0.9175
 3348SOL    HW110854   5.112   3.234   0.273  2.8538  0.0743 -1.6829
 3348SOL    HW210855   5.081   3.379   0.240 -0.8398 -0.3096 -0.3822
 3349SOL     OW10856   3.894   0.132   4.705 -0.5745  0.5299 -0.4856
 3349SOL    HW110857   3.876   0.052   4.754 -0.4192  0.7330 -0.0883
 3349SOL    HW210858   3.832   0.196   4.739  0.3846  1.0356  0.3947
 3350SOL     OW10859   7.722   5.502   2.773 -0.0117 -0.3532  0.4411
 3350SOL    HW110860   7.656   5.435   2.793  0.9780 -1.5626 -0.2324
 3350SOL    HW210861   7.797   5.453   2.741  1.1475  1.0221  0.9760
 3351SOL     OW10862   3.721   3.369   3.248 -0.5451 -0.3509  0.3591
 3351SOL    HW110863   3.757   3.450   3.212 -0.9219  0.2895  1.3974
 3351SOL    HW210864   3.666   3.335   3.178 -1.2755  0.8793  0.3010
 3352SOL     OW10865   4.366   4.459   2.084  0.1939  0.2915 -0.1351
 3352SOL    HW110866   4.294   4.505   2.127 -3.1380  0.3762 -4.9702
 3352SOL    HW210867   4.422   4.529   2.051  0.0160  0.4382 -0.1271
 3353SOL     OW10868   1.174   1.892   6.149 -0.0869  0.1324  0.5668
 3353SOL    HW110869   1.237   1.863   6.084  1.8510  1.1946  1.8627
 3353SOL    HW210870   1.143   1.977   6.117 -0.4312 -0.1134  0.2316
 3354SOL     OW10871   4.459   3.782   1.942 -0.3316 -0.0511  0.1093
 3354SOL    HW110872   4.479   3.694   1.910 -0.2837 -0.3029  0.8110
 3354SOL    HW210873   4.367   3.795   1.920  0.1835  0.5699 -1.8896
 3355SOL     OW10874   3.882   1.355   3.824 -0.3630 -0.1842 -0.3397
 3355SOL    HW110875   3.896   1.261   3.834 -0.8621 -0.2054  0.2179
 3355SOL    HW210876   3.835   1.363   3.741 -2.9109 -0.7203  0.9415
 3356SOL     OW10877   3.421   2.837   0.498 -0.7449  0.1848 -0.5717
 3356SOL    HW110878   3.400   2.765   0.558 -0.0050  0.0521 -0.4553
 3356SOL    HW210879   3.356   2.904   0.517  0.1937  0.6530  1.2590
 3357SOL     OW10880   0.488   4.714   5.831 -0.0072  0.3761  0.9092
 3357SOL    HW110881   0.400   4.720   5.869 -0.1851 -1.4658  0.9204
 3357SOL    HW210882   0.533   4.792   5.862 -2.0231  2.0694 -0.1884
 3358SOL     OW10883   7.366   5.824   0.103 -0.2598 -0.4252 -0.2562
 3358SOL    HW110884   7.410   5.908   0.109 -0.5479 -0.3280  0.6975
 3358SOL    HW210885   7.436   5.759   0.111 -0.0842 -0.2816 -0.6023
 3359SOL     OW10886   6.986   6.267   6.901  0.4504 -0.4230 -0.0240
 3359SOL    HW110887   6.972   6.354   6.939  0.9115 -0.7855  1.0443
 3359SOL    HW210888   6.920   6.259   6.833 -1.0357 -0.0631  1.2995
 3360SOL     OW10889   2.247   4.473   6.533  0.0775 -0.5110  0.2633
 3360SOL    HW110890   2.171   4.419   6.552 -0.6381  0.2913 -0.2522
 3360SOL    HW210891   2.212   4.548   6.485  1.4166 -1.0735 -1.7311
 3361SOL     OW10892   7.136   1.769   7.323 -0.2727 -0.1671 -0.0522
 3361SOL    HW110893   7.192   1.846   7.323  1.0109 -1.0261 -2.0411
 3361SOL    HW210894   7.048   1.804   7.310  0.1262  1.0247  0.2762
 3362SOL     OW10895   6.429   5.105   0.443  0.6662 -0.8984  0.2917
 3362SOL    HW110896   6.456   5.021   0.405  0.5174 -0.3083 -1.2070
 3362SOL    HW210897   6.510   5.143   0.477  0.8144 -1.4326  0.5422
 3363SOL     OW10898   3.544   0.364   0.836  0.0196  0.2036  0.2604
 3363SOL    HW110899   3.524   0.284   0.788  0.2832  0.4961 -0.3419
 3363SOL    HW210900   3.468   0.378   0.893 -0.9667  0.6644 -1.1329
 3364SOL     OW10901   1.609   0.109   2.475 -0.1381  0.2401 -0.3051
 3364SOL    HW110902   1.564   0.139   2.396  0.0610 -0.5827 -0.7336
 3364SOL    HW210903   1.670   0.043   2.444  1.3102  1.2611  0.2843
 3365SOL     OW10904   3.935   2.493   7.706 -0.0407 -0.2878  0.1387
 3365SOL    HW110905   3.929   2.399   7.688  0.9613 -0.1813 -0.8822
 3365SOL    HW210906   3.875   2.507   7.778 -0.1450 -1.7354  0.3733
 3366SOL     OW10907   5.744   7.448   5.449 -0.4364 -0.6157  0.6691
 3366SOL    HW110908   5.779   7.391   5.380  1.2655  0.7637  0.3163
 3366SOL    HW210909   5.731   7.532   5.405 -2.0948 -0.4790  1.3744
 3367SOL     OW10910   0.566   5.171   3.748 -0.1948  0.5337 -0.0534
 3367SOL    HW110911   0.477   5.138   3.734  0.3972 -2.3064  2.1058
 3367SOL    HW210912   0.561   5.218   3.831  0.1394  1.2961 -0.4556
 3368SOL     OW10913   2.223   6.843   0.076 -0.1326 -0.3106 -0.5705
 3368SOL    HW110914   2.237   6.758   0.118  2.0339  0.0610 -0.4166
 3368SOL    HW210915   2.166   6.825   0.002 -1.9281 -1.4184  0.9880
 3369SOL     OW10916   5.356   6.435   1.333 -0.0869 -0.3120 -0.4333
 3369SOL    HW110917   5.441   6.396   1.350  0.3228  0.2817 -1.1018
 3369SOL    HW210918   5.373   6.507   1.273 -1.3920 -1.9670 -2.9859
 3370SOL     OW10919   2.319   6.579   0.511  0.4636 -0.0760 -0.3194
 3370SOL    HW110920   2.241   6.624   0.479  1.4877  0.6555 -1.9379
 3370SOL    HW210921   2.300   6.486   0.500 -0.2532  0.0893 -0.5081
 3371SOL     OW10922   7.466   3.231   4.572 -0.0994 -0.4038 -0.4015
 3371SOL    HW110923   7.418   3.281   4.506  1.0050  1.1623 -0.0803
 3371SOL    HW210924   7.445   3.139   4.553 -1.9152  0.1326 -1.2396
 3372SOL     OW10925   7.093   2.806   5.487 -0.3604  0.0747  0.6765
 3372SOL    HW110926   7.098   2.862   5.409  2.6393 -2.0892 -0.8706
 3372SOL    HW210927   7.000   2.804   5.508 -1.2374  1.3486 -2.4200
 3373SOL     OW10928   1.971   6.478   1.108 -0.3639  0.0632 -0.2857
 3373SOL    HW110929   1.890   6.487   1.160 -0.7679 -2.5532 -0.2881
 3373SOL    HW210930   1.952   6.523   1.026 -2.1193 -0.9898 -0.5292
 3374SOL     OW10931   2.249   5.739   4.124  0.3091 -0.0558 -0.0889
 3374SOL    HW110932   2.282   5.819   4.083 -1.1526  0.3451 -0.5540
 3374SOL    HW210933   2.245   5.675   4.052 -0.2617  0.0159 -0.1263
 3375SOL     OW10934   6.154   5.617   7.571  0.8886  0.5433  0.2704
 3375SOL    HW110935   6.153   5.712   7.556 -1.7739  1.1351  3.0394
 3375SOL    HW210936   6.225   5.603   7.634  1.1851  0.7380 -0.0211
 3376SOL     OW10937   6.063   3.441   3.214  0.2033  0.1716 -0.0882
 3376SOL    HW110938   6.000   3.471   3.149  0.4505  0.2109 -0.3135
 3376SOL    HW210939   6.013   3.432   3.294 -0.7890 -2.7122 -0.9181
 3377SOL     OW10940   5.497   5.728   6.723  0.4062 -0.6221  0.2657
 3377SOL    HW110941   5.539   5.683   6.796 -0.7712 -1.1766  0.6337
 3377SOL    HW210942   5.476   5.659   6.660 -1.8986 -0.7519  1.0747
 3378SOL     OW10943   4.788   4.051   6.655 -0.6032 -0.6909 -0.1665
 3378SOL    HW110944   4.800   3.957   6.658 -0.0366 -0.6567 -0.8988
 3378SOL    HW210945   4.872   4.087   6.684  0.2088 -0.4349 -2.6265
 3379SOL     OW10946   2.411   1.730   1.103  0.0756 -1.0448  0.5065
 3379SOL    HW110947   2.387   1.768   1.019 -1.3672 -0.9708  0.9185
 3379SOL    HW210948   2.503   1.754   1.115  0.0403 -0.2713 -0.6170
 3380SOL     OW10949   1.631   0.574   2.339 -0.6625  0.0445  0.3660
 3380SOL    HW110950   1.660   0.489   2.306 -2.4061 -0.9680  1.3234
 3380SOL    HW210951   1.634   0.632   2.263  1.5017 -0.5824 -0.0815
 3381SOL     OW10952   0.419   2.467   3.046 -0.0442  0.1136  0.0457
 3381SOL    HW110953   0.338   2.416   3.049  0.6397 -1.0027  0.1882
 3381SOL    HW210954   0.444   2.477   3.138  0.5657 -0.5333 -0.0422
 3382SOL     OW10955   7.771   1.626   6.048  0.0894 -0.1020 -0.2865
 3382SOL    HW110956   7.720   1.666   6.118  1.5206  1.4476 -0.0824
 3382SOL    HW210957   7.714   1.558   6.013 -0.4702 -1.3662  2.7642
 3383SOL     OW10958   5.289   5.480   3.126 -0.0711 -0.2098 -0.0475
 3383SOL    HW110959   5.375   5.483   3.084  0.2377  0.6285  0.6168
 3383SOL    HW210960   5.239   5.549   3.083  0.2742  0.7102  0.9975
 3384SOL     OW10961   1.627   4.159   7.133  0.0695  0.3122 -0.3402
 3384SOL    HW110962   1.570   4.204   7.196  2.4747  1.6465  1.0831
 3384SOL    HW210963   1.632   4.219   7.059  0.0674  0.4831 -0.2054
 3385SOL     OW10964   5.556   6.137   0.082  0.4649 -0.0172  0.7527
 3385SOL    HW110965   5.506   6.056   0.089 -0.1182 -0.0453 -2.1454
 3385SOL    HW210966   5.646   6.111   0.100  0.2167 -1.2311  0.3714
 3386SOL     OW10967   5.695   2.732   3.381 -0.0052  0.3774  0.3809
 3386SOL    HW110968   5.672   2.790   3.453 -0.3661  1.0175 -0.2316
 3386SOL    HW210969   5.611   2.703   3.345  0.1104  1.6529 -1.0176
 3387SOL     OW10970   2.601   7.106   5.046  0.1270  0.5984  0.0296
 3387SOL    HW110971   2.683   7.061   5.024 -0.7934 -1.0595 -0.2254
 3387SOL    HW210972   2.607   7.120   5.141  0.2730 -0.4708  0.1934
 3388SOL     OW10973   6.030   3.120   4.430 -0.1081 -0.6285  0.5310
 3388SOL    HW110974   6.101   3.057   4.418 -0.3160 -1.3905  2.8432
 3388SOL    HW210975   5.953   3.066   4.448 -1.1240  0.2190 -0.9925
 3389SOL     OW10976   1.293   0.318   5.023  0.3537  0.2135  0.3405
 3389SOL    HW110977   1.332   0.237   5.056  0.7506  0.5814  0.7990
 3389SOL    HW210978   1.303   0.313   4.928 -1.4415 -1.1998  0.1711
 3390SOL     OW10979   4.938   2.559   7.329 -0.0102 -0.1172 -0.7286
 3390SOL    HW110980   4.859   2.612   7.339  0.2184  0.1266 -0.1531
 3390SOL    HW210981   4.908   2.469   7.346  0.1691  0.1676  1.5007
 3391SOL     OW10982   2.242   2.108   2.890  0.1279  0.2519  0.4514
 3391SOL    HW110983   2.246   2.141   2.980  1.1808  0.4369  0.3506
 3391SOL    HW210984   2.151   2.081   2.878 -0.1379  0.6865  1.4081
 3392SOL     OW10985   4.801   3.239   2.253 -0.2782 -0.2928  0.1471
 3392SOL    HW110986   4.727   3.252   2.194 -1.1287 -0.8020  1.0823
 3392SOL    HW210987   4.866   3.305   2.225 -0.2156 -1.1994 -2.0107
 3393SOL     OW10988   4.522   0.907   2.974 -0.4810  0.0732 -0.9518
 3393SOL    HW110989   4.536   0.915   3.069 -2.5649 -0.6655 -0.5397
 3393SOL    HW210990   4.453   0.971   2.955 -1.2295 -0.9193 -1.6595
 3394SOL     OW10991   6.881   0.324   1.194  0.0565  0.5134 -0.2053
 3394SOL    HW110992   6.945   0.378   1.147 -2.1326  0.5707 -3.3751
 3394SOL    HW210993   6.913   0.323   1.284  3.6162  1.8317 -1.2792
 3395SOL     OW10994   4.914   3.726   6.380 -0.1443 -0.8976 -0.1389
 3395SOL    HW110995   4.841   3.744   6.320  0.5557 -1.3282 -1.1577
 3395SOL    HW210996   4.977   3.678   6.326  0.1966 -1.9382  1.1456
 3396SOL     OW10997   4.663   5.167   7.881  0.6864  0.2617 -0.2896
 3396SOL    HW110998   4.736   5.216   7.917  1.4665 -0.2048 -1.2082
 3396SOL    HW210999   4.691   5.143   7.793 -0.9729  0.9519 -1.0577
 3397SOL     OW11000   2.348   5.685   1.882 -0.4563 -0.4667  0.2077
 3397SOL    HW111001   2.323   5.738   1.958  2.4051 -0.5068  1.2770
 3397SOL    HW211002   2.275   5.696   1.820 -2.4058  0.3964  2.5016
 3398SOL     OW11003   5.841   0.554   6.431 -0.1702 -0.0307  0.6716
 3398SOL    HW111004   5.769   0.616   6.440 -0.1258 -0.0238  0.9961
 3398SOL    HW211005   5.917   0.600   6.466  0.1741  0.2714 -0.4156
 3399SOL     OW11006   2.619   0.259   4.797 -0.0842 -0.5930 -0.0471
 3399SOL    HW111007   2.680   0.246   4.870 -0.6606  0.0372  0.5578
 3399SOL    HW211008   2.534   0.273   4.839 -0.1549  1.3953 -0.7659
 3400SOL     OW11009   1.858   6.430   6.681 -0.1347  0.1702 -0.5786
 3400SOL    HW111010   1.910   6.425   6.601  1.9628 -0.6883  0.7531
 3400SOL    HW211011   1.838   6.338   6.702  1.9095  0.0921  1.3937
 3401SOL     OW11012   5.994   3.692   1.976 -0.1480 -0.2088  0.0704
 3401SOL    HW111013   5.908   3.704   2.015 -0.9358  2.0525 -2.0907
 3401SOL    HW211014   5.986   3.610   1.927 -1.4605  0.4288 -0.8661
 3402SOL     OW11015   3.529   2.166   4.276 -0.2011  0.3347 -0.0589
 3402SOL    HW111016   3.597   2.104   4.248 -1.2910 -0.2480 -1.5146
 3402SOL    HW211017   3.574   2.251   4.278  0.4626  0.0512 -1.5365
 3403SOL     OW11018   4.047   3.771   0.094  0.7295 -0.1281  0.0224
 3403SOL    HW111019   3.989   3.804   0.025  1.3889  0.9508 -0.0274
 3403SOL    HW211020   4.028   3.826   0.169 -0.5797 -1.8203  0.9988
 3404SOL     OW11021   5.597   7.658   1.091 -0.4334 -0.1626 -0.3410
 3404SOL    HW111022   5.692   7.650   1.096 -0.3097 -0.3516 -2.2038
 3404SOL    HW211023   5.581   7.751   1.076 -0.5906 -0.0319  0.6044
 3405SOL     OW11024   6.007   5.403   6.019  0.3975 -0.2725  0.1739
 3405SOL    HW111025   6.094   5.441   6.004  1.0541 -1.2194  1.3826
 3405SOL    HW211026   5.947   5.477   6.011  1.5048  0.7658  1.0911
 3406SOL     OW11027   5.822   1.389   2.519 -0.3388 -0.8587 -0.3688
 3406SOL    HW111028   5.836   1.330   2.593  1.2072 -0.2966 -0.1824
 3406SOL    HW211029   5.902   1.441   2.514 -0.9734  0.0543 -1.5941
 3407SOL     OW11030   7.055   6.353   6.563 -0.7211 -0.6610  0.3814
 3407SOL    HW111031   7.002   6.415   6.612  0.1709 -0.9230  1.7150
 3407SOL    HW211032   6.996   6.319   6.495 -1.6922  0.4096  0.6604
 3408SOL     OW11033   6.239   4.931   5.837  0.5643  0.3665 -0.1034
 3408SOL    HW111034   6.189   4.957   5.760  1.9395  1.9093 -0.5076
 3408SOL    HW211035   6.172   4.906   5.901 -0.6100 -0.5812 -1.6238
 3409SOL     OW11036   0.948   2.734   1.305  0.3221 -0.0990 -0.2174
 3409SOL    HW111037   0.853   2.729   1.311  0.1624  2.2995  0.5473
 3409SOL    HW211038   0.965   2.758   1.214  0.0320  1.0760  0.0138
 3410SOL     OW11039   5.643   7.224   5.798 -0.1281 -0.0953 -0.0149
 3410SOL    HW111040   5.681   7.145   5.839  0.6355 -0.2684 -1.0412
 3410SOL    HW211041   5.706   7.293   5.817 -0.7388  0.2573  0.7766
 3411SOL     OW11042   0.867   7.063   2.380  0.0803  0.3414 -0.0315
 3411SOL    HW111043   0.859   6.967   2.384 -0.2975  0.3463 -0.6128
 3411SOL    HW211044   0.943   7.078   2.324  1.1072  0.3713  1.3161
 3412SOL     OW11045   2.282   1.121   3.406 -0.2427  0.0234  0.2943
 3412SOL    HW111046   2.328   1.204   3.394 -0.3436  0.0584  0.1445
 3412SOL    HW211047   2.303   1.095   3.496  2.0101 -1.1624 -0.5169
 3413SOL     OW11048   2.895   3.085   5.335 -0.3859  0.1089 -0.5907
 3413SOL    HW111049   2.907   3.137   5.414 -0.6823  0.0398 -0.5014
 3413SOL    HW211050   2.956   3.011   5.346  0.4759  0.7380 -0.9900
 3414SOL     OW11051   1.555   2.496   2.665 -0.4762 -0.0040 -0.1847
 3414SOL    HW111052   1.626   2.436   2.689  0.7039  0.9324 -1.1947
 3414SOL    HW211053   1.589   2.583   2.685 -2.0738  0.3805  1.0369
 3415SOL     OW11054   1.808   2.270   3.951 -0.6460 -0.8323 -0.3613
 3415SOL    HW111055   1.839   2.251   4.040 -1.3726  1.3888  0.4211
 3415SOL    HW211056   1.883   2.309   3.907 -1.2436  1.3550  0.4493
 3416SOL     OW11057   0.650   1.519   1.806 -0.0410 -0.9864 -0.2036
 3416SOL    HW111058   0.719   1.583   1.821  0.3332 -1.3038 -0.5569
 3416SOL    HW211059   0.591   1.529   1.881  1.2501 -1.8477  0.9740
 3417SOL     OW11060   4.179   5.298   7.790  0.0511 -0.1145 -0.2715
 3417SOL    HW111061   4.129   5.371   7.825  1.5961  0.6224  0.4829
 3417SOL    HW211062   4.135   5.220   7.824  0.2501  0.5480  1.5749
 3418SOL     OW11063   5.026   2.911   1.206 -0.3551 -0.1050 -0.3520
 3418SOL    HW111064   5.120   2.923   1.217 -0.2432 -1.2402  0.1461
 3418SOL    HW211065   5.006   2.951   1.121  0.8019 -0.9164 -1.0395
 3419SOL     OW11066   0.624   5.587   6.377 -0.1237 -0.2496  0.6191
 3419SOL    HW111067   0.575   5.516   6.336  1.8253 -2.6189  2.1196
 3419SOL    HW211068   0.646   5.646   6.305 -0.7450 -1.8283 -0.9309
 3420SOL     OW11069   3.497   7.544   2.684  0.6403 -0.0640  0.3534
 3420SOL    HW111070   3.425   7.606   2.678  2.0195  1.5744  0.1265
 3420SOL    HW211071   3.576   7.597   2.675  1.8756 -1.9529 -0.7138
 3421SOL     OW11072   7.426   5.773   3.174 -0.6523  0.2856 -0.3708
 3421SOL    HW111073   7.511   5.734   3.198 -0.9237  0.0361  0.2008
 3421SOL    HW211074   7.393   5.809   3.256  0.2469  3.0500 -1.1271
 3422SOL     OW11075   6.560   6.944   0.721 -0.0640  0.1752  0.5710
 3422SOL    HW111076   6.646   6.962   0.759 -0.1666  0.0232  0.8812
 3422SOL    HW211077   6.523   6.877   0.779  0.3169 -1.0416 -0.5495
 3423SOL     OW11078   3.559   7.623   5.467  0.4714  0.4566  0.1406
 3423SOL    HW111079   3.563   7.717   5.447 -0.4198  0.4214 -0.2525
 3423SOL    HW211080   3.465   7.603   5.471  0.6436 -0.6016 -0.6665
 3424SOL     OW11081   5.619   2.472   3.165 -0.2492  0.0676 -0.4677
 3424SOL    HW111082   5.559   2.500   3.097 -0.6953 -1.7746 -0.8890
 3424SOL    HW211083   5.705   2.502   3.136 -0.5587  0.0778 -1.3859
 3425SOL     OW11084   7.287   7.119   0.780  0.4075  0.4692  0.7089
 3425SOL    HW111085   7.224   7.100   0.850  1.2842 -0.1190  1.3537
 3425SOL    HW211086   7.293   7.215   0.780 -2.2147  0.7280 -0.9376
 3426SOL     OW11087   6.488   7.721   3.398 -0.4626 -0.3156  0.3530
 3426SOL    HW111088   6.420   7.707   3.465 -1.6545  1.5973 -0.3853
 3426SOL    HW211089   6.538   7.796   3.430 -0.8086  0.3810 -0.6779
 3427SOL     OW11090   6.065   6.141   6.257  0.1262 -0.4003 -0.0447
 3427SOL    HW111091   6.020   6.080   6.199  1.1835 -1.2760  0.0340
 3427SOL    HW211092   6.119   6.195   6.199  1.1831 -1.2763  0.1023
 3428SOL     OW11093   3.508   5.842   6.071 -0.3322  0.0243  0.1904
 3428SOL    HW111094   3.589   5.808   6.108 -1.0060 -1.4551  0.3932
 3428SOL    HW211095   3.525   5.850   5.978  0.1488  0.0162  0.2784
 3429SOL     OW11096   0.962   2.915   5.595  0.4705 -0.0344  0.2848
 3429SOL    HW111097   1.039   2.887   5.644  0.5202 -0.0992  0.1700
 3429SOL    HW211098   0.909   2.964   5.658  0.7779  0.3150  0.2736
 3430SOL     OW11099   4.439   1.886   7.237  0.0947 -0.0761 -0.2318
 3430SOL    HW111100   4.375   1.815   7.244  0.3984 -0.3128  0.1780
 3430SOL    HW211101   4.463   1.905   7.327 -1.0339  1.5272 -0.2291
 3431SOL     OW11102   2.580   5.830   2.775 -0.2803 -0.2053 -0.1013
 3431SOL    HW111103   2.586   5.922   2.748  1.5250 -0.3834 -0.3944
 3431SOL    HW211104   2.622   5.781   2.705  2.2472 -0.8917  1.7823
 3432SOL     OW11105   0.069   3.002   2.704 -0.8162  0.1467  0.5115
 3432SOL    HW111106  -0.021   2.987   2.677 -0.1761  0.0008 -1.6933
 3432SOL    HW211107   0.065   3.081   2.758 -2.3316 -0.2144  0.9760
 3433SOL     OW11108   5.156   2.892   7.210  0.1363 -0.1053 -0.1845
 3433SOL    HW111109   5.139   2.976   7.252 -1.6490  0.0438 -1.1371
 3433SOL    HW211110   5.126   2.827   7.273 -0.3865  0.0454 -0.2759
 3434SOL     OW11111   4.207   5.339   3.481  0.3831  0.6066 -0.1194
 3434SOL    HW111112   4.138   5.274   3.472  0.0892  1.1149 -1.7783
 3434SOL    HW211113   4.278   5.309   3.424  1.0584  0.7151  0.6394
 3435SOL     OW11114   0.190   2.318   4.612  0.4089 -0.1196 -0.2535
 3435SOL    HW111115   0.282   2.296   4.598  0.3909 -0.1671 -0.2955
 3435SOL    HW211116   0.191   2.377   4.687  0.4425 -0.3863 -0.0428
 3436SOL     OW11117   7.501   1.642   7.361  0.6971 -0.2590 -0.3180
 3436SOL    HW111118   7.490   1.714   7.298  1.2051 -0.7406 -0.9688
 3436SOL    HW211119   7.508   1.564   7.307  1.1058 -0.6889  0.3428
 3437SOL     OW11120   6.720   2.580   4.886 -0.4445 -0.5073 -0.1005
 3437SOL    HW111121   6.760   2.607   4.968 -2.1788 -1.4812  1.1341
 3437SOL    HW211122   6.626   2.593   4.900 -1.3676 -5.5689  0.0936
 3438SOL     OW11123   4.776   5.472   3.749 -0.1096 -0.0442  0.5628
 3438SOL    HW111124   4.829   5.516   3.683  1.0745 -1.4162  0.5389
 3438SOL    HW211125   4.719   5.414   3.700  0.3532 -0.6257  0.6946
 3439SOL     OW11126   2.216   2.546   6.338 -0.4485  0.5616 -0.4879
 3439SOL    HW111127   2.229   2.472   6.279  2.9672 -0.6400  1.5267
 3439SOL    HW211128   2.196   2.506   6.423  0.0440  1.9978  0.3393
 3440SOL     OW11129   3.776   3.289   7.615  0.7688 -0.0379  0.2486
 3440SOL    HW111130   3.736   3.249   7.537  0.3289 -0.4029  0.6505
 3440SOL    HW211131   3.870   3.283   7.599  0.7025  2.3214 -1.4627
 3441SOL     OW11132   4.256   2.097   3.910 -0.2998  0.0126 -0.0728
 3441SOL    HW111133   4.345   2.067   3.892 -1.1395 -1.8042 -1.5834
 3441SOL    HW211134   4.236   2.063   3.997  0.5676  0.6878  0.4000
 3442SOL     OW11135   0.339   3.873   7.011 -0.2819  0.5882 -0.4248
 3442SOL    HW111136   0.432   3.891   7.002  0.1116 -0.5051  0.9814
 3442SOL    HW211137   0.334   3.777   7.022 -1.5061  0.6743  0.0195
 3443SOL     OW11138   1.404   1.093   4.993 -0.0273  0.1676  0.3126
 3443SOL    HW111139   1.361   1.136   5.068  0.1362 -0.7305  0.9354
 3443SOL    HW211140   1.488   1.138   4.985  0.1119  0.0252  0.9152
 3444SOL     OW11141   1.834   3.608   7.861 -0.1050  0.3055 -0.6322
 3444SOL    HW111142   1.919   3.583   7.825  0.3641  0.2055  0.4978
 3444SOL    HW211143   1.819   3.696   7.826  2.1319  1.8102  1.8292
 3445SOL     OW11144   4.637   5.845   7.507 -0.0595  0.5522 -0.1219
 3445SOL    HW111145   4.675   5.914   7.562  3.0869  0.7352 -2.2515
 3445SOL    HW211146   4.712   5.799   7.471 -2.0380 -2.4943 -0.7184
 3446SOL     OW11147   0.417   1.070   6.561 -0.0143 -0.5525 -0.3252
 3446SOL    HW111148   0.478   1.025   6.503  0.2860 -1.3977  0.6347
 3446SOL    HW211149   0.421   1.022   6.643 -0.4457  0.6169  0.4081
 3447SOL     OW11150   4.938   5.015   7.833 -0.5280  0.7670 -0.7114
 3447SOL    HW111151   4.962   5.044   7.745  0.3316 -1.2222 -1.1873
 3447SOL    HW211152   4.978   5.079   7.891  1.6477  0.3670 -1.6816
 3448SOL     OW11153   1.633   7.481   6.976  0.7179  0.3113  0.0133
 3448SOL    HW111154   1.634   7.536   6.898  2.6179  0.4166  0.0459
 3448SOL    HW211155   1.696   7.522   7.035 -0.4077  0.0276  1.4736
 3449SOL     OW11156   4.470   0.545   3.803  0.3655 -0.0399  0.0895
 3449SOL    HW111157   4.434   0.464   3.767 -1.6856  0.4770  0.8536
 3449SOL    HW211158   4.496   0.521   3.893 -0.8158  0.2751  0.5261
 3450SOL     OW11159   6.833   2.973   2.174  0.4425  0.1113  0.2581
 3450SOL    HW111160   6.901   2.924   2.220  0.3952 -2.3575 -2.0576
 3450SOL    HW211161   6.841   2.946   2.082 -2.7236  0.8078 -0.3585
 3451SOL     OW11162   4.330   5.669   7.212  0.1848 -0.3649  0.3389
 3451SOL    HW111163   4.296   5.687   7.299  1.0272  1.1195  0.4064
 3451SOL    HW211164   4.416   5.712   7.210 -0.3129  0.6852 -1.5909
 3452SOL     OW11165   0.203   3.120   5.419  0.2274 -0.1959 -0.4228
 3452SOL    HW111166   0.223   3.175   5.495 -1.0748 -0.0084 -0.1873
 3452SOL    HW211167   0.235   3.033   5.443  0.6356  0.0592 -0.0346
 3453SOL     OW11168   1.594   4.897   4.843 -0.0664 -0.5505  0.6459
 3453SOL    HW111169   1.590   4.987   4.876  2.3942  0.3882 -1.2239
 3453SOL    HW211170   1.663   4.856   4.895  0.1858 -0.7094  0.1908
 3454SOL     OW11171   3.665   3.431   4.173  0.2062  0.3915  0.0551
 3454SOL    HW111172   3.720   3.399   4.102  0.2848  0.2950  0.1580
 3454SOL    HW211173   3.579   3.390   4.158 -0.4236  2.0628 -1.2231
 3455SOL     OW11174   7.613   2.376   1.526  0.3334 -0.6968  0.0933
 3455SOL    HW111175   7.698   2.397   1.487  0.4340  1.2040  1.2435
 3455SOL    HW211176   7.618   2.409   1.615 -2.5243  2.0307 -0.5931
 3456SOL     OW11177   7.316   6.051   7.812  0.1137 -0.2507  0.0452
 3456SOL    HW111178   7.316   6.146   7.800 -0.2922  0.0639  2.1574
 3456SOL    HW211179   7.397   6.033   7.861 -0.0691 -0.9189  0.1121
 3457SOL     OW11180   4.052   2.202   4.298 -0.3662 -0.4560 -0.5924
 3457SOL    HW111181   4.124   2.164   4.247 -1.7861 -1.0374 -2.2849
 3457SOL    HW211182   4.038   2.141   4.370  1.3860  0.1346  0.2907
 3458SOL     OW11183   4.811   7.282   0.650 -0.0811 -0.1652  0.1250
 3458SOL    HW111184   4.793   7.375   0.660  1.6517  0.0061  2.1889
 3458SOL    HW211185   4.735   7.238   0.689 -0.8047  0.3561 -0.6720
 3459SOL     OW11186   1.550   1.666   5.456 -0.0346 -0.4013 -0.2496
 3459SOL    HW111187   1.517   1.747   5.415 -0.8524 -0.2984  0.5834
 3459SOL    HW211188   1.634   1.691   5.494  1.0254 -0.6361 -2.3008
 3460SOL     OW11189   7.931   6.830   0.984 -0.2699 -0.6653 -0.0104
 3460SOL    HW111190   8.000   6.871   1.036 -0.2355 -0.1452 -0.4524
 3460SOL    HW211191   7.927   6.740   1.016  1.7128 -1.1844 -1.0317
 3461SOL     OW11192   3.734   4.224   6.780  0.3317  0.8230 -0.2553
 3461SOL    HW111193   3.798   4.174   6.833  0.2623 -0.1350 -1.0551
 3461SOL    HW211194   3.788   4.269   6.715  0.1310 -1.8031 -2.4414
 3462SOL     OW11195   2.383   3.431   7.861 -0.4628 -0.3425 -0.0685
 3462SOL    HW111196   2.344   3.354   7.901  1.9480 -2.6035 -1.7498
 3462SOL    HW211197   2.454   3.456   7.920 -1.2844  0.7512  0.5147
 3463SOL     OW11198   6.302   2.553   1.036 -0.0162  0.2379  0.4284
 3463SOL    HW111199   6.223   2.579   1.083 -0.7091 -1.1408  0.0891
 3463SOL    HW211200   6.351   2.499   1.097 -0.0094 -0.0412  0.1792
 3464SOL     OW11201   2.790   4.028   2.078 -0.2009 -0.2450  0.2179
 3464SOL    HW111202   2.819   4.109   2.120 -0.8857 -0.2435  0.6995
 3464SOL    HW211203   2.783   3.965   2.149 -1.7405 -0.1403  0.1808
 3465SOL     OW11204   0.975   2.308   3.993 -0.0491 -0.4233  0.4371
 3465SOL    HW111205   1.063   2.271   3.990 -0.3640 -1.2328  0.8011
 3465SOL    HW211206   0.988   2.402   3.982  0.6490 -0.7788 -2.4137
 3466SOL     OW11207   3.702   2.606   7.885  0.6554 -0.0766 -0.0285
 3466SOL    HW111208   3.671   2.695   7.903  1.0227  0.0649 -0.0881
 3466SOL    HW211209   3.657   2.581   7.804 -0.8839 -0.6557  0.9724
 3467SOL     OW11210   6.094   6.158   4.073 -0.3791  0.8269 -0.5048
 3467SOL    HW111211   6.011   6.206   4.076 -1.1448 -0.4284 -0.4980
 3467SOL    HW211212   6.093   6.115   3.987 -0.3226 -0.1512 -0.0355
 3468SOL     OW11213   7.603   0.611   5.099  0.7380  0.2694  0.2485
 3468SOL    HW111214   7.573   0.536   5.047 -0.3518  1.6288 -1.1603
 3468SOL    HW211215   7.698   0.598   5.106  0.7258 -0.6490 -0.9667
 3469SOL     OW11216   5.405   7.350   2.913  0.0572  0.2659 -0.0398
 3469SOL    HW111217   5.408   7.259   2.942 -0.7826  0.6114  1.1906
 3469SOL    HW211218   5.442   7.400   2.986  0.7253  0.9153 -0.7957
 3470SOL     OW11219   6.295   3.592   6.536 -0.0237 -0.0587 -0.0166
 3470SOL    HW111220   6.238   3.563   6.466  0.4148 -0.5370 -0.1798
 3470SOL    HW211221   6.383   3.591   6.498  0.3955 -1.5868  0.9007
 3471SOL     OW11222   1.366   1.444   1.483 -0.8567  0.0039  0.0976
 3471SOL    HW111223   1.414   1.456   1.565  0.3103  0.5346 -0.6432
 3471SOL    HW211224   1.301   1.376   1.503  0.2176 -0.7561  1.1188
 3472SOL     OW11225   0.421   5.974   7.653 -0.6721  0.2362  0.2625
 3472SOL    HW111226   0.399   5.910   7.721  1.1817  0.2774  0.9486
 3472SOL    HW211227   0.452   5.921   7.579  0.6797  0.2956  0.7613
 3473SOL     OW11228   5.040   1.227   5.412  0.1297  0.0896  0.2202
 3473SOL    HW111229   5.031   1.133   5.427 -1.1541  0.4168  1.9613
 3473SOL    HW211230   5.133   1.245   5.425  0.6645 -1.1307 -1.6542
 3474SOL     OW11231   5.603   6.257   4.612  0.0804 -0.1031 -0.1806
 3474SOL    HW111232   5.646   6.315   4.549  0.0349 -1.3499 -1.4071
 3474SOL    HW211233   5.622   6.296   4.698  4.1663 -0.8542 -0.5520
 3475SOL     OW11234   7.520   7.566   3.686  0.4771 -0.7421  0.4052
 3475SOL    HW111235   7.546   7.557   3.594 -1.2389 -2.9741  0.0416
 3475SOL    HW211236   7.424   7.575   3.683  0.2636 -1.9698  1.9857
 3476SOL     OW11237   6.931   0.139   1.879 -0.0855  0.4554  0.5554
 3476SOL    HW111238   6.921   0.230   1.910  1.4329  0.4247  1.2265
 3476SOL    HW211239   7.017   0.112   1.911 -0.0635 -0.8841 -0.5307
 3477SOL     OW11240   1.201   7.996   6.928  0.0600  0.1582 -0.0379
 3477SOL    HW111241   1.209   8.086   6.962 -0.0421 -0.0077  0.4411
 3477SOL    HW211242   1.231   7.941   7.000 -2.3442 -0.3175  0.6952
 3478SOL     OW11243   1.163   7.830   1.989  0.1356 -0.6776  0.1568
 3478SOL    HW111244   1.208   7.910   1.962  0.0893 -1.0454 -1.0750
 3478SOL    HW211245   1.073   7.842   1.960  0.0452 -1.0232  0.2886
 3479SOL     OW11246   5.126   7.690   1.823 -0.3647 -0.3388  0.1410
 3479SOL    HW111247   5.146   7.611   1.773  0.4346 -1.1547  1.6613
 3479SOL    HW211248   5.212   7.723   1.850 -0.7542  0.3331  0.5739
 3480SOL     OW11249   3.720   5.701   7.880 -0.4356  0.0900 -0.2911
 3480SOL    HW111250   3.750   5.688   7.970  1.3382 -1.1802 -1.0023
 3480SOL    HW211251   3.776   5.770   7.845 -1.8251  1.3462 -0.1595
 3481SOL     OW11252   2.570   3.631   7.970 -0.3507 -0.4080 -0.0101
 3481SOL    HW111253   2.654   3.671   7.994 -0.1299 -1.0473  0.3181
 3481SOL    HW211254   2.570   3.631   7.874 -1.0620  1.8076 -0.0601
 3482SOL     OW11255   4.326   1.712   1.815 -0.2666  0.3599  0.4979
 3482SOL    HW111256   4.279   1.686   1.736  0.9677 -1.3261  0.2737
 3482SOL    HW211257   4.262   1.764   1.865 -0.9864  1.7511 -1.7045
 3483SOL     OW11258   4.640   7.208   0.856 -0.5968  0.5066  0.2724
 3483SOL    HW111259   4.564   7.237   0.905 -0.0992  0.0238  1.3557
 3483SOL    HW211260   4.698   7.169   0.921  0.4976  0.6835 -0.5572
 3484SOL     OW11261   2.833   0.281   7.111  0.0555  0.6168 -0.3678
 3484SOL    HW111262   2.775   0.326   7.173 -0.0677  0.0943 -0.0990
 3484SOL    HW211263   2.873   0.211   7.162  0.6862  0.7718 -0.6354
 3485SOL     OW11264   1.964   4.697   5.656  0.1976  1.0520 -0.2147
 3485SOL    HW111265   1.933   4.606   5.646 -0.4428  1.3641 -1.1954
 3485SOL    HW211266   2.032   4.691   5.723 -0.8642  0.0816  0.8337
 3486SOL     OW11267   1.045   4.296   1.578 -0.5972 -0.7851  0.7630
 3486SOL    HW111268   1.001   4.234   1.520  0.0494 -0.9946  0.4810
 3486SOL    HW211269   1.124   4.321   1.530 -0.9157  0.3700  0.8145
 3487SOL     OW11270   7.427   5.935   3.574 -0.6178 -0.3920 -0.1331
 3487SOL    HW111271   7.365   5.966   3.507 -1.1433 -0.3640  0.3638
 3487SOL    HW211272   7.443   6.012   3.629  1.4752  0.1967 -1.4534
 3488SOL     OW11273   5.832   7.670   6.120 -0.7021 -0.3314 -0.1701
 3488SOL    HW111274   5.917   7.703   6.149  0.6073 -2.9761 -0.7093
 3488SOL    HW211275   5.824   7.702   6.030  0.1209 -0.7236 -0.3918
 3489SOL     OW11276   6.920   3.786   7.580  0.1971 -0.0616  0.4279
 3489SOL    HW111277   6.830   3.753   7.589 -0.1602  0.8206  0.1585
 3489SOL    HW211278   6.927   3.854   7.647  0.8114 -0.4247  0.7375
 3490SOL     OW11279   7.669   2.605   2.166  0.1544  0.0393 -0.1170
 3490SOL    HW111280   7.602   2.623   2.232 -0.4180  0.6472 -0.8448
 3490SOL    HW211281   7.734   2.674   2.178 -0.9602  1.3990 -1.4820
 3491SOL     OW11282   1.754   0.127   4.758 -0.3375 -0.1825 -0.5329
 3491SOL    HW111283   1.824   0.162   4.813 -3.3035  2.5622  1.8783
 3491SOL    HW211284   1.755   0.182   4.680  1.5741 -1.7537 -1.7281
 3492SOL     OW11285   3.817   2.476   1.844  0.0293  0.2604  0.1817
 3492SOL    HW111286   3.813   2.531   1.922 -0.6896 -1.4812  1.4282
 3492SOL    HW211287   3.872   2.525   1.783  0.4863  1.7398  1.7173
 3493SOL     OW11288   7.221   0.239   1.082  0.1649 -0.0162  0.2251
 3493SOL    HW111289   7.238   0.213   1.173 -0.2973  0.5667  0.4863
 3493SOL    HW211290   7.191   0.330   1.088 -0.2929 -0.1107 -0.4722
 3494SOL     OW11291   1.185   6.281   3.284  0.4803  1.1365 -0.5057
 3494SOL    HW111292   1.208   6.192   3.309  1.3114  1.3337 -0.5392
 3494SOL    HW211293   1.197   6.333   3.363  1.0812  1.3975 -0.7529
 3495SOL     OW11294   2.430   3.194   1.087 -0.1080  0.1008  0.0892
 3495SOL    HW111295   2.389   3.128   1.142 -0.9669 -0.2563 -0.9640
 3495SOL    HW211296   2.358   3.249   1.056  0.3797  0.4038 -0.5415
 3496SOL     OW11297   5.855   3.730   2.293  0.1624  0.4268 -0.6152
 3496SOL    HW111298   5.948   3.748   2.306 -0.1864  2.2649 -0.3789
 3496SOL    HW211299   5.814   3.816   2.291 -1.6865 -0.3816  0.3252
 3497SOL     OW11300   4.786   1.140   3.912 -0.1737  0.0081 -0.1564
 3497SOL    HW111301   4.738   1.223   3.909  1.4404  1.0962  1.7312
 3497SOL    HW211302   4.718   1.074   3.924 -1.3516  1.2635  0.3680
 3498SOL     OW11303   4.913   7.578   2.523  0.4128 -0.7954  1.2408
 3498SOL    HW111304   4.922   7.615   2.435  0.4858 -1.8854  0.7702
 3498SOL    HW211305   4.819   7.568   2.536  0.4458 -1.8086  0.7658
 3499SOL     OW11306   4.647   3.127   2.432 -0.3282  0.5876 -0.2565
 3499SOL    HW111307   4.717   3.145   2.368  1.0728 -1.1772  0.6786
 3499SOL    HW211308   4.574   3.097   2.378  0.5239 -0.0158 -1.1391
 3500SOL     OW11309   2.604   3.887   0.238 -0.1603  0.1188 -0.1300
 3500SOL    HW111310   2.548   3.812   0.223 -0.5009  0.1086  1.0938
 3500SOL    HW211311   2.679   3.873   0.180 -0.0707 -1.3196  0.3066
 3501SOL     OW11312   5.009   1.366   6.334 -0.2363  0.2865 -0.5172
 3501SOL    HW111313   4.984   1.275   6.353 -2.8297  0.6169 -1.9437
 3501SOL    HW211314   5.007   1.410   6.419  1.7576 -1.0752  0.3063
 3502SOL     OW11315   4.002   5.837   6.000 -0.5659  0.3172  0.8524
 3502SOL    HW111316   4.007   5.819   5.907  0.7644 -0.2036  1.0042
 3502SOL    HW211317   4.005   5.751   6.042 -0.8337  0.5597  1.3900
 3503SOL     OW11318   6.978   3.843   0.487  0.3151 -1.1378  0.0465
 3503SOL    HW111319   6.967   3.871   0.397 -0.4826 -1.4445  0.0359
 3503SOL    HW211320   6.896   3.796   0.508 -0.0560  0.0070  1.3187
 3504SOL     OW11321   5.967   0.332   6.532 -0.0419  0.5357  0.2317
 3504SOL    HW111322   5.928   0.412   6.498 -0.0595  1.0874  1.4941
 3504SOL    HW211323   5.981   0.277   6.454 -2.0071  0.8789 -0.4193
 3505SOL     OW11324   4.939   5.326   2.364 -0.8724 -0.0044  0.0136
 3505SOL    HW111325   4.905   5.354   2.279 -0.6358 -0.3887 -0.2121
 3505SOL    HW211326   4.950   5.231   2.355 -1.6976 -0.1818  0.7776
 3506SOL     OW11327   7.084   0.735   2.207  0.5005  0.5063  0.1415
 3506SOL    HW111328   7.098   0.661   2.148  0.8305 -0.0377  0.8872
 3506SOL    HW211329   7.047   0.696   2.286  1.0198  1.0921  0.6810
 3507SOL     OW11330   6.999   5.265   4.389  0.0126 -0.2126  0.4474
 3507SOL    HW111331   6.971   5.325   4.458  2.6796  0.8833  0.7019
 3507SOL    HW211332   7.023   5.185   4.436  0.3681 -0.0076  0.6203
 3508SOL     OW11333   4.393   4.725   0.594  0.2226 -0.2982  0.2730
 3508SOL    HW111334   4.358   4.790   0.655  0.3516  0.5801 -0.5641
 3508SOL    HW211335   4.465   4.683   0.642  2.1661  2.2682 -0.1545
 3509SOL     OW11336   5.069   6.167   0.993  0.6558 -0.2987 -0.0963
 3509SOL    HW111337   5.073   6.078   1.029  1.1991 -0.0396  0.5073
 3509SOL    HW211338   5.115   6.221   1.058 -2.6369  1.0334  1.3549
 3510SOL     OW11339   7.577   3.873   6.528 -0.2554 -0.1033  0.1307
 3510SOL    HW111340   7.586   3.905   6.439 -2.1873  0.2125  0.0009
 3510SOL    HW211341   7.513   3.802   6.522 -0.2239 -0.2528  1.2265
 3511SOL     OW11342   0.324   7.519   5.616  0.3533 -0.1116  0.4105
 3511SOL    HW111343   0.303   7.546   5.705  1.3992  1.8924  0.1287
 3511SOL    HW211344   0.239   7.506   5.574 -0.1694 -2.6851  2.0623
 3512SOL     OW11345   0.729   6.415   4.382  0.0418 -0.0045 -0.1901
 3512SOL    HW111346   0.820   6.409   4.352  0.8551  2.6441  1.3946
 3512SOL    HW211347   0.687   6.474   4.319 -0.2355 -0.1834 -0.1738
 3513SOL     OW11348   7.128   5.556   7.773  0.1333  0.2774 -0.0713
 3513SOL    HW111349   7.171   5.496   7.833  0.9998 -0.2542 -1.1767
 3513SOL    HW211350   7.146   5.643   7.808 -0.2075 -0.0501  0.9467
 3514SOL     OW11351   3.321   3.659   4.533  0.5076 -0.0998  0.2755
 3514SOL    HW111352   3.286   3.715   4.463  1.1952  0.6350  0.5022
 3514SOL    HW211353   3.321   3.571   4.496 -0.2544  0.1042 -0.2225
 3515SOL     OW11354   0.478   6.320   2.207  0.2441 -0.5699 -0.2213
 3515SOL    HW111355   0.453   6.266   2.283 -1.0609 -0.7517 -0.7416
 3515SOL    HW211356   0.494   6.407   2.243  0.8703 -0.9486  0.4291
 3516SOL     OW11357   2.931   6.146   7.473 -1.0897  0.1974  0.1770
 3516SOL    HW111358   2.980   6.115   7.397 -0.0312  0.5228  0.7015
 3516SOL    HW211359   2.998   6.157   7.541 -1.6977  1.8750  0.5420
 3517SOL     OW11360   1.999   6.871   4.848  0.0635 -1.3388 -0.2809
 3517SOL    HW111361   1.968   6.810   4.915 -1.9213 -0.5894 -0.4517
 3517SOL    HW211362   1.930   6.872   4.782  0.7902 -0.1033 -1.0776
 3518SOL     OW11363   5.808   4.685   5.232  0.1375  0.2861 -0.2628
 3518SOL    HW111364   5.725   4.646   5.206 -0.8347  2.2814 -0.3088
 3518SOL    HW211365   5.846   4.719   5.151 -0.0093  1.2015  0.0407
 3519SOL     OW11366   5.150   3.851   7.453 -0.1908  0.1241  0.0397
 3519SOL    HW111367   5.206   3.790   7.406  0.5860  0.4546  0.5082
 3519SOL    HW211368   5.210   3.918   7.485 -0.9897  0.9986 -0.2484
 3520SOL     OW11369   0.750   5.625   4.409 -0.2611  0.1181  0.5995
 3520SOL    HW111370   0.670   5.589   4.446  0.3283  0.3137  2.1263
 3520SOL    HW211371   0.720   5.678   4.335 -1.5883  0.5714  1.4265
 3521SOL     OW11372   7.233   6.236   4.565  1.0039  1.1280 -0.3666
 3521SOL    HW111373   7.145   6.199   4.569  0.6641  1.9796  1.5861
 3521SOL    HW211374   7.235   6.287   4.485 -0.2463  1.0039 -0.4904
 3522SOL     OW11375   5.526   0.375   7.478 -0.1532  0.1804 -0.6963
 3522SOL    HW111376   5.591   0.354   7.546  1.0829 -2.0806 -2.4001
 3522SOL    HW211377   5.452   0.411   7.525  1.8089  1.6345  1.5058
 3523SOL     OW11378   0.438   5.428   5.310  0.0191  0.0939 -0.3036
 3523SOL    HW111379   0.346   5.430   5.338 -0.7383 -1.2199 -2.4463
 3523SOL    HW211380   0.442   5.492   5.239  0.6698 -0.1686 -0.5063
 3524SOL     OW11381   0.341   5.616   6.850  0.0298 -0.2104 -0.4419
 3524SOL    HW111382   0.390   5.650   6.925 -1.5355 -2.3510  1.7059
 3524SOL    HW211383   0.408   5.600   6.783  1.9817 -0.9950  1.5830
 3525SOL     OW11384   5.773   0.730   5.257  0.2709  0.2503  0.4066
 3525SOL    HW111385   5.738   0.644   5.236  2.8634 -0.8653  0.2772
 3525SOL    HW211386   5.769   0.736   5.352 -2.8603  1.4190  0.3129
 3526SOL     OW11387   7.787   3.069   4.570  0.0952  0.2511 -0.0997
 3526SOL    HW111388   7.749   3.002   4.514 -0.0256  0.2349  0.0006
 3526SOL    HW211389   7.880   3.044   4.578 -0.3352 -1.0332  1.5159
 3527SOL     OW11390   4.021   3.353   6.363  0.6990  0.1887 -0.1047
 3527SOL    HW111391   4.086   3.420   6.342 -0.7846  1.5041 -0.6837
 3527SOL    HW211392   4.033   3.337   6.457  1.8043  0.4489 -0.1880
 3528SOL     OW11393   2.056   6.521   6.203  0.2226  0.0424  0.0210
 3528SOL    HW111394   2.068   6.442   6.151 -0.5062  1.4468 -2.4242
 3528SOL    HW211395   2.102   6.589   6.155 -0.3380  1.3892  1.3091
 3529SOL     OW11396   0.557   2.436   3.343  0.0186  0.3909  0.3719
 3529SOL    HW111397   0.551   2.489   3.422  1.8189 -0.3866  1.0892
 3529SOL    HW211398   0.650   2.434   3.322 -0.0614 -1.8307 -0.0555
 3530SOL     OW11399   5.787   3.703   4.933 -0.3094 -0.8201 -0.1096
 3530SOL    HW111400   5.693   3.719   4.921  0.1383  3.8144  0.5108
 3530SOL    HW211401   5.829   3.753   4.863  1.7436 -1.2754  0.7141
 3531SOL     OW11402   7.881   2.794   0.930 -0.1817 -0.0588  0.2309
 3531SOL    HW111403   7.920   2.707   0.936  0.8439  0.4083  0.5793
 3531SOL    HW211404   7.834   2.804   1.013  1.9748  0.7504  1.4368
 3532SOL     OW11405   6.692   7.033   6.076 -0.4792 -0.2718  0.5446
 3532SOL    HW111406   6.602   7.064   6.074 -1.1828 -2.1776  0.1116
 3532SOL    HW211407   6.693   6.958   6.017  1.6902  0.3884 -0.3540
 3533SOL     OW11408   0.883   0.893   4.224 -0.2622 -0.1406 -0.2529
 3533SOL    HW111409   0.963   0.844   4.203 -0.6273 -0.5846 -0.6496
 3533SOL    HW211410   0.813   0.839   4.188 -0.7428  0.2271  0.1319
 3534SOL     OW11411   1.633   5.377   6.319  0.5045 -0.7015  0.6844
 3534SOL    HW111412   1.543   5.398   6.344  0.4319 -0.0821 -0.0624
 3534SOL    HW211413   1.663   5.453   6.268  0.8911 -1.5908 -0.4651
 3535SOL     OW11414   3.225   3.122   6.518 -0.2572 -0.7000  0.3504
 3535SOL    HW111415   3.181   3.057   6.572 -1.9935  0.9745  1.0621
 3535SOL    HW211416   3.162   3.143   6.449  0.4265 -0.0788 -0.0990
 3536SOL     OW11417   2.855   6.974   3.670 -0.2813 -0.2492  0.1651
 3536SOL    HW111418   2.879   7.040   3.735  0.5473  0.2585 -0.6404
 3536SOL    HW211419   2.938   6.936   3.642 -0.7757 -2.2556  1.2036
 3537SOL     OW11420   1.833   6.042   7.754 -0.3476 -0.2389  0.1437
 3537SOL    HW111421   1.830   5.946   7.758  0.2573 -0.2148  1.9448
 3537SOL    HW211422   1.765   6.071   7.815  0.1786  0.4550  0.4242
 3538SOL     OW11423   4.538   5.726   0.692  0.1185  0.8957 -0.0828
 3538SOL    HW111424   4.500   5.645   0.660 -0.3078  1.1798 -0.3016
 3538SOL    HW211425   4.467   5.770   0.738  0.1994  1.3873 -0.4123
 3539SOL     OW11426   2.741   2.597   7.365 -0.5112  0.2105  0.1209
 3539SOL    HW111427   2.833   2.585   7.389 -0.3671  2.4115  0.9153
 3539SOL    HW211428   2.696   2.522   7.402  1.1957 -2.1089 -2.1318
 3540SOL     OW11429   5.627   5.863   5.337  0.8099  0.4336 -0.0470
 3540SOL    HW111430   5.613   5.914   5.257  0.7216  0.3145 -0.1071
 3540SOL    HW211431   5.551   5.806   5.343  0.6989  0.6077  0.2489
 3541SOL     OW11432   2.486   7.062   0.885 -0.3720  0.2758  0.1065
 3541SOL    HW111433   2.479   7.010   0.804 -1.8265  2.1593 -1.0523
 3541SOL    HW211434   2.396   7.084   0.908  0.0590  0.3403  1.9132
 3542SOL     OW11435   5.488   7.396   6.561  0.2750 -0.3331 -0.2428
 3542SOL    HW111436   5.402   7.368   6.591  0.6137 -0.5201  0.6064
 3542SOL    HW211437   5.524   7.446   6.635  1.8047 -2.1981  0.3588
 3543SOL     OW11438   4.623   6.672   0.874  0.6914 -0.1702  0.6527
 3543SOL    HW111439   4.628   6.659   0.780  1.1365 -1.2620  0.8158
 3543SOL    HW211440   4.581   6.758   0.884  0.6974 -0.0128 -0.5275
 3544SOL     OW11441   3.632   5.277   4.037 -0.5169  0.1173 -0.3169
 3544SOL    HW111442   3.692   5.240   4.102 -1.2942  0.8610  0.8540
 3544SOL    HW211443   3.626   5.370   4.060 -1.4240  0.2281 -0.9733
 3545SOL     OW11444   5.860   3.325   1.653 -0.0278  0.0133  0.2114
 3545SOL    HW111445   5.794   3.295   1.716 -0.8749  1.6863  0.1776
 3545SOL    HW211446   5.809   3.356   1.578  0.7911  1.1248  0.0845
 3546SOL     OW11447   6.602   6.196   5.433 -0.0754  0.3016  0.4774
 3546SOL    HW111448   6.667   6.129   5.452 -1.8288 -1.7933 -0.4557
 3546SOL    HW211449   6.620   6.221   5.342  0.2931  0.7798  0.6782
 3547SOL     OW11450   5.169   3.848   0.008  0.4483  0.3951  0.0606
 3547SOL    HW111451   5.258   3.849  -0.028  0.9759 -1.4507  1.1784
 3547SOL    HW211452   5.175   3.902   0.088  1.0907 -1.2345  1.1641
 3548SOL     OW11453   6.069   0.912   1.068 -0.7324  0.3188  0.1340
 3548SOL    HW111454   6.064   0.866   0.985 -0.0730  1.2586 -0.4427
 3548SOL    HW211455   6.146   0.877   1.112  0.5771  1.7671 -0.8971
 3549SOL     OW11456   0.288   7.196   6.438 -0.1689  0.0673  0.8793
 3549SOL    HW111457   0.342   7.142   6.381 -0.0092  0.3112  0.7969
 3549SOL    HW211458   0.265   7.139   6.511 -1.1590 -0.5533  0.1152
 3550SOL     OW11459   0.562   6.463   1.341  0.1232  0.3266  0.0795
 3550SOL    HW111460   0.500   6.472   1.413  0.2995  0.2165  0.2464
 3550SOL    HW211461   0.555   6.545   1.293 -0.3324  0.2207 -0.0476
 3551SOL     OW11462   2.121   6.855   5.179 -0.4950  0.5725  0.2825
 3551SOL    HW111463   2.204   6.893   5.150  0.7119  0.1152  2.9027
 3551SOL    HW211464   2.098   6.794   5.109  1.5765  0.4143 -0.3410
 3552SOL     OW11465   6.851   3.372   5.808  0.5018 -0.5616 -0.1014
 3552SOL    HW111466   6.923   3.434   5.817  1.3491 -1.5440  0.0293
 3552SOL    HW211467   6.781   3.424   5.768  1.0793  0.5502  0.2632
 3553SOL     OW11468   7.710   7.492   5.086  0.6699  0.0387  0.0868
 3553SOL    HW111469   7.680   7.412   5.128  0.9688 -0.7771 -1.1993
 3553SOL    HW211470   7.679   7.562   5.143  1.8257 -1.0172  2.1432
 3554SOL     OW11471   7.854   8.003   1.634 -0.3756  0.0338  0.3670
 3554SOL    HW111472   7.940   7.971   1.657  0.0065 -0.5354 -1.6413
 3554SOL    HW211473   7.867   8.096   1.614 -0.1717 -0.0939 -0.1112
 3555SOL     OW11474   2.547   5.142   1.314  0.5019 -0.2019 -0.2293
 3555SOL    HW111475   2.467   5.171   1.271 -0.2147 -0.9653  0.5448
 3555SOL    HW211476   2.522   5.130   1.406  1.7633  0.5313  0.2341
 3556SOL     OW11477   6.816   5.380   2.455 -0.1034 -0.2846  0.0824
 3556SOL    HW111478   6.838   5.460   2.408 -1.8544  0.5437  0.5812
 3556SOL    HW211479   6.740   5.344   2.408  0.7463 -1.7604 -0.2278
 3557SOL     OW11480   2.714   3.583   1.326  1.1140 -0.2703 -0.2756
 3557SOL    HW111481   2.781   3.648   1.304 -0.4170  1.1013 -1.1834
 3557SOL    HW211482   2.760   3.500   1.329  2.3266  0.0394 -4.4014
 3558SOL     OW11483   1.779   0.505   4.171 -0.6857 -0.1651  0.4595
 3558SOL    HW111484   1.815   0.417   4.160 -2.8739 -1.1904  1.1149
 3558SOL    HW211485   1.823   0.539   4.248  0.8923 -0.2637 -0.3524
 3559SOL     OW11486   3.693   3.221   1.986 -0.0319 -0.2758 -0.3393
 3559SOL    HW111487   3.719   3.262   2.069  0.2749 -0.5917 -0.2767
 3559SOL    HW211488   3.694   3.127   2.005  0.0120 -0.3478 -0.6969
 3560SOL     OW11489   4.977   2.359   5.233  0.2528 -0.2556  0.0032
 3560SOL    HW111490   5.048   2.408   5.192 -0.7948 -0.0804 -1.6928
 3560SOL    HW211491   4.991   2.268   5.206  0.0701 -0.2889  0.0165
 3561SOL     OW11492   1.919   7.562   6.551 -0.4248  0.0113 -0.1200
 3561SOL    HW111493   2.002   7.590   6.510 -1.2387  0.2320 -1.6850
 3561SOL    HW211494   1.928   7.468   6.560  0.7933  0.2381  1.6364
 3562SOL     OW11495   1.612   4.086   2.294  0.0713 -0.2899  0.0430
 3562SOL    HW111496   1.631   4.164   2.346 -0.9270  1.0987 -1.5555
 3562SOL    HW211497   1.697   4.043   2.284  0.6050  0.4684  1.1365
 3563SOL     OW11498   5.128   1.439   0.441 -0.3093  0.2111 -0.2628
 3563SOL    HW111499   5.080   1.508   0.487  0.0534 -0.1957  0.7464
 3563SOL    HW211500   5.216   1.473   0.431 -0.6023  0.6639 -1.4808
 3564SOL     OW11501   2.462   5.619   4.573  0.6890  0.1124 -0.4372
 3564SOL    HW111502   2.446   5.698   4.523  2.0942  0.9331  0.3206
 3564SOL    HW211503   2.439   5.547   4.515 -1.3832  1.0708 -0.8500
 3565SOL     OW11504   1.801   0.659   0.019  0.6800 -0.2205 -0.0328
 3565SOL    HW111505   1.748   0.596   0.067  0.3365  0.0121 -0.1005
 3565SOL    HW211506   1.823   0.614  -0.063 -2.9185  1.0782 -1.9386
 3566SOL     OW11507   4.960   6.529   0.109  0.4069  0.2132  0.3756
 3566SOL    HW111508   4.954   6.531   0.014  0.4853  1.2289  0.3835
 3566SOL    HW211509   4.971   6.436   0.130  1.6681  0.0893 -0.6871
 3567SOL     OW11510   4.720   0.344   0.830 -0.1876 -0.6315 -0.5182
 3567SOL    HW111511   4.800   0.339   0.882 -0.7359 -1.3572  0.2846
 3567SOL    HW211512   4.746   0.317   0.743  0.3065 -1.5395 -0.0965
 3568SOL     OW11513   1.627   3.838   1.368 -0.1307 -0.8564  0.3568
 3568SOL    HW111514   1.682   3.888   1.308 -0.8562 -1.9291 -1.2965
 3568SOL    HW211515   1.686   3.777   1.412  0.7455  1.2748  2.3183
 3569SOL     OW11516   4.133   5.594   6.098 -0.2642 -0.2543 -0.5458
 3569SOL    HW111517   4.178   5.518   6.134 -0.3226  0.2661  0.6958
 3569SOL    HW211518   4.201   5.661   6.090 -0.6284  0.2820  0.5830
 3570SOL     OW11519   1.826   6.978   0.550  0.1785  0.6132  0.4036
 3570SOL    HW111520   1.813   7.030   0.629  1.6011  0.9694  0.4204
 3570SOL    HW211521   1.834   6.888   0.581 -1.0452  0.5111  0.4829
 3571SOL     OW11522   1.569   1.407   3.500  0.0620  0.1558  0.1101
 3571SOL    HW111523   1.635   1.390   3.433 -0.8757  0.3293 -0.8808
 3571SOL    HW211524   1.591   1.493   3.534  0.1242  0.3842 -0.4900
 3572SOL     OW11525   4.667   5.217   1.769 -0.1833  0.1529  0.4869
 3572SOL    HW111526   4.756   5.189   1.790 -0.3974 -1.3009 -0.3787
 3572SOL    HW211527   4.643   5.165   1.692 -1.4012  1.2866  0.0556
 3573SOL     OW11528   4.701   7.817   3.614  0.1569  0.3503  0.4039
 3573SOL    HW111529   4.765   7.808   3.543  0.8565  0.0432  1.0592
 3573SOL    HW211530   4.735   7.890   3.667  0.0187  0.1182  0.8120
 3574SOL     OW11531   2.328   0.330   4.214 -0.4567  0.0650  0.1899
 3574SOL    HW111532   2.385   0.263   4.174  0.0123  1.0048 -0.7615
 3574SOL    HW211533   2.317   0.301   4.305 -0.7772 -1.6354 -0.3613
 3575SOL     OW11534   6.936   5.890   0.986  0.4587  0.3106  0.7877
 3575SOL    HW111535   7.022   5.929   1.002  1.0925 -1.7207  2.9189
 3575SOL    HW211536   6.879   5.964   0.968  2.7218  1.6857 -1.3090
 3576SOL     OW11537   3.438   1.985   0.864  0.0635  0.7079  0.1739
 3576SOL    HW111538   3.414   1.895   0.847  2.0357  0.2441 -0.4933
 3576SOL    HW211539   3.488   1.982   0.946 -0.4927  1.3327  0.5543
 3577SOL     OW11540   1.006   7.855   2.266  0.2894 -0.2676 -0.0768
 3577SOL    HW111541   1.092   7.886   2.238 -0.5595 -0.3373 -3.0721
 3577SOL    HW211542   0.945   7.926   2.242 -0.7591 -1.1088  0.0073
 3578SOL     OW11543   1.903   3.797   7.510 -0.3803  0.0200 -0.1669
 3578SOL    HW111544   1.820   3.791   7.462 -0.0417 -2.6577 -0.5489
 3578SOL    HW211545   1.969   3.807   7.442 -0.1329 -1.1980 -0.1325
 3579SOL     OW11546   3.135   1.828   2.461 -0.2379 -0.0860 -0.5582
 3579SOL    HW111547   3.165   1.755   2.516 -1.7737  0.4884  1.1174
 3579SOL    HW211548   3.084   1.786   2.392 -3.0473 -0.5880  1.6559
 3580SOL     OW11549   1.320   7.477   3.792 -0.5194  0.0442 -0.1920
 3580SOL    HW111550   1.407   7.513   3.810 -0.8320  1.9524 -2.0858
 3580SOL    HW211551   1.293   7.438   3.875  2.0696 -0.5044  0.4820
 3581SOL     OW11552   4.136   3.263   1.429 -0.0463 -0.1290  0.6971
 3581SOL    HW111553   4.190   3.304   1.361  1.1313 -0.3919  1.4432
 3581SOL    HW211554   4.059   3.320   1.435  0.0985  0.2266 -0.4358
 3582SOL     OW11555   4.372   2.995   6.275 -0.2716  0.7484 -0.1579
 3582SOL    HW111556   4.282   3.028   6.266  0.1128  2.0129  0.4088
 3582SOL    HW211557   4.423   3.049   6.215  0.1086 -0.0515 -0.5705
 3583SOL     OW11558   0.534   2.967   0.591 -0.0947  0.2407  0.4176
 3583SOL    HW111559   0.495   2.880   0.589  0.4661 -0.0491  1.4853
 3583SOL    HW211560   0.595   2.968   0.517  0.2526 -0.4452  0.6924
 3584SOL     OW11561   2.078   1.075   5.933  0.3747 -0.5281  0.1284
 3584SOL    HW111562   2.150   1.017   5.908  1.7216  0.1724  2.1176
 3584SOL    HW211563   2.005   1.015   5.949  0.9637 -1.4294 -0.4393
 3585SOL     OW11564   1.598   5.669   6.890  0.0212  0.4258  0.3743
 3585SOL    HW111565   1.648   5.741   6.852 -0.6231 -0.2264 -1.8685
 3585SOL    HW211566   1.598   5.601   6.823 -0.9762 -0.9417  1.6740
 3586SOL     OW11567   6.429   1.262   7.081 -0.3591 -1.1146  0.2925
 3586SOL    HW111568   6.371   1.202   7.128 -0.8818 -1.1228 -0.3430
 3586SOL    HW211569   6.379   1.344   7.077 -0.3404 -1.1290 -0.2825
 3587SOL     OW11570   7.317   5.673   6.552 -0.3549 -0.5657  0.1125
 3587SOL    HW111571   7.341   5.603   6.492 -0.4381 -0.9265  0.4943
 3587SOL    HW211572   7.233   5.645   6.589 -0.5637 -0.0917 -0.0008
 3588SOL     OW11573   0.244   6.335   7.015 -0.2878  0.3418 -0.2469
 3588SOL    HW111574   0.163   6.305   7.056  1.1810 -1.3038  1.6656
 3588SOL    HW211575   0.244   6.296   6.928 -1.7236  0.7549 -0.4569
 3589SOL     OW11576   1.464   7.215   6.323  0.3964  0.4848 -0.3455
 3589SOL    HW111577   1.383   7.262   6.338 -0.3945 -0.4018 -1.6304
 3589SOL    HW211578   1.507   7.211   6.409 -0.3339  1.9940  0.1084
 3590SOL     OW11579   0.782   4.875   5.255 -0.3408  0.5425 -0.2988
 3590SOL    HW111580   0.742   4.847   5.173 -0.5167  0.6402 -0.2457
 3590SOL    HW211581   0.856   4.815   5.267 -0.4901  0.3420 -0.3767
 3591SOL     OW11582   1.536   5.139   4.969 -0.5925  0.3439  0.2230
 3591SOL    HW111583   1.567   5.124   5.058  1.8038  2.2736 -0.1941
 3591SOL    HW211584   1.452   5.183   4.979  0.1462  1.5101  1.5762
 3592SOL     OW11585   4.920   7.554   7.765  0.1814 -0.4704  0.2020
 3592SOL    HW111586   4.881   7.609   7.697  1.3035 -0.6465 -0.6023
 3592SOL    HW211587   4.926   7.612   7.841  0.2236  0.1581 -0.2733
 3593SOL     OW11588   5.868   2.516   3.100  0.7954  0.0284 -0.3204
 3593SOL    HW111589   5.925   2.497   3.025  0.1612 -0.7492 -0.6190
 3593SOL    HW211590   5.908   2.593   3.141  2.5418 -0.9919 -0.0103
 3594SOL     OW11591   1.904   3.918   1.509  0.0346 -0.0276 -0.6863
 3594SOL    HW111592   1.864   3.963   1.434 -3.2122 -2.7312 -0.8216
 3594SOL    HW211593   1.934   3.835   1.473 -0.1167 -0.7135  0.7198
 3595SOL     OW11594   1.097   5.674   3.590  0.5325  0.0485 -0.3976
 3595SOL    HW111595   1.083   5.579   3.590 -0.6139  0.1812  1.3393
 3595SOL    HW211596   1.118   5.695   3.680 -1.1559  1.6952 -0.3351
 3596SOL     OW11597   4.755   4.283   3.526 -0.7122 -0.2368  0.1520
 3596SOL    HW111598   4.773   4.199   3.483  0.4037  0.2446 -0.3376
 3596SOL    HW211599   4.693   4.327   3.468 -1.4018 -0.7610  0.4727
 3597SOL     OW11600   1.061   6.531   5.203 -0.0325  0.0971 -0.1822
 3597SOL    HW111601   1.088   6.602   5.261  0.0882 -0.2478  0.1911
 3597SOL    HW211602   0.974   6.506   5.235  0.4918 -0.8432  0.5870
 3598SOL     OW11603   2.227   0.715   6.349 -0.2136 -0.2690  0.1205
 3598SOL    HW111604   2.154   0.772   6.323 -0.2992 -0.5790 -0.3144
 3598SOL    HW211605   2.223   0.641   6.289 -0.5977 -1.1447  1.1817
 3599SOL     OW11606   5.505   2.915   7.681  0.2774 -0.1627  0.0112
 3599SOL    HW111607   5.541   2.875   7.603  0.5496  1.0888 -0.5321
 3599SOL    HW211608   5.569   2.896   7.750  1.1062  0.5162 -0.5489
 3600SOL     OW11609   5.242   7.413   0.623 -0.0161 -0.1846  0.1007
 3600SOL    HW111610   5.309   7.440   0.686  2.2045  0.7542 -2.4497
 3600SOL    HW211611   5.174   7.480   0.630  1.1138  0.9889  0.1750
 3601SOL     OW11612   2.662   2.275   1.557 -0.2067  0.0276  0.1999
 3601SOL    HW111613   2.673   2.206   1.622 -0.4482  0.0496  0.2635
 3601SOL    HW211614   2.567   2.288   1.551 -0.1749  0.1722 -0.0015
 3602SOL     OW11615   4.691   5.943   4.994 -0.1830 -0.0506  0.3654
 3602SOL    HW111616   4.634   5.873   4.962  1.6785 -1.0583 -0.8960
 3602SOL    HW211617   4.646   5.977   5.071 -2.9489 -0.1377 -1.0922
 3603SOL     OW11618   2.640   1.961   5.827  0.5622 -0.0436  0.5291
 3603SOL    HW111619   2.683   2.010   5.897  0.6638 -0.5326  0.8106
 3603SOL    HW211620   2.705   1.895   5.801  0.7384  0.4723 -0.3937
 3604SOL     OW11621   3.034   3.680   3.081 -0.7408 -0.0559 -0.1591
 3604SOL    HW111622   3.077   3.744   3.138 -0.7237  0.0120 -0.2487
 3604SOL    HW211623   2.945   3.715   3.070 -0.5235  0.3159 -0.7767
 3605SOL     OW11624   2.093   5.666   3.274  0.1821 -0.5562  0.1568
 3605SOL    HW111625   2.045   5.702   3.199 -2.4540 -1.5441  1.2319
 3605SOL    HW211626   2.166   5.618   3.236  0.9511  1.8117 -1.5483
 3606SOL     OW11627   2.121   5.223   6.875  0.0908  0.1638  0.7273
 3606SOL    HW111628   2.207   5.219   6.916  0.4284  0.4065  0.0540
 3606SOL    HW211629   2.131   5.176   6.792 -0.5049 -0.0681  0.7802
 3607SOL     OW11630   4.259   4.266   4.912  0.3737 -0.1791 -0.2069
 3607SOL    HW111631   4.239   4.219   4.831  2.0940 -1.6364  0.1449
 3607SOL    HW211632   4.185   4.249   4.969  0.1193 -0.9346 -0.7462
 3608SOL     OW11633   1.760   6.316   5.957 -0.1974 -0.5698  0.0961
 3608SOL    HW111634   1.744   6.394   6.010  0.3190 -1.7760  2.1809
 3608SOL    HW211635   1.850   6.327   5.925 -0.6714  0.3846 -0.9688
 3609SOL     OW11636   0.106   6.695   2.973  0.0345 -0.2778 -0.2513
 3609SOL    HW111637   0.102   6.773   2.918  0.0694 -0.8423 -1.0547
 3609SOL    HW211638   0.089   6.622   2.914  2.7623 -1.1430 -0.0930
 3610SOL     OW11639   0.370   3.399   2.134  0.2546  0.8374 -0.0402
 3610SOL    HW111640   0.307   3.369   2.199 -0.5281  2.6153  0.0926
 3610SOL    HW211641   0.440   3.334   2.136 -0.8147 -0.3453  0.9499
 3611SOL     OW11642   3.883   6.651   7.452  0.7976  0.7730  0.0380
 3611SOL    HW111643   3.965   6.695   7.473  0.7569 -0.0612  2.1316
 3611SOL    HW211644   3.906   6.592   7.380  2.2582 -0.0343  1.1154
 3612SOL     OW11645   5.091   7.391   5.968  0.2467  0.1582  0.2151
 3612SOL    HW111646   5.019   7.349   5.920  1.2177 -0.2305 -0.9454
 3612SOL    HW211647   5.129   7.321   6.020  0.3645  0.1426  0.1095
 3613SOL     OW11648   5.959   0.441   7.639 -0.2941  0.2888 -0.0261
 3613SOL    HW111649   5.977   0.347   7.648  0.9025  0.3121 -1.7020
 3613SOL    HW211650   6.041   0.483   7.665 -0.7101  0.8685  0.3761
 3614SOL     OW11651   5.348   5.095   6.539 -0.6016  0.2796 -0.2291
 3614SOL    HW111652   5.405   5.022   6.562 -0.5197  0.5708  0.5442
 3614SOL    HW211653   5.351   5.100   6.443 -0.8668 -0.9197 -0.3094
 3615SOL     OW11654   3.521   2.559   0.219 -0.0635  0.1003 -0.3223
 3615SOL    HW111655   3.505   2.650   0.194 -0.6925  0.2500  0.5905
 3615SOL    HW211656   3.434   2.520   0.226  0.0152  0.2148  2.1033
 3616SOL     OW11657   0.804   0.312   5.207 -0.2657 -0.4858  0.4546
 3616SOL    HW111658   0.765   0.225   5.197 -1.1139 -0.1055  0.3780
 3616SOL    HW211659   0.845   0.310   5.293  1.4674 -1.6227 -0.3347
 3617SOL     OW11660   1.780   1.779   5.484 -0.5110 -0.3662  0.2709
 3617SOL    HW111661   1.845   1.790   5.414 -2.0441  2.2564 -0.8647
 3617SOL    HW211662   1.802   1.847   5.548 -1.5931 -0.0609  0.3283
 3618SOL     OW11663   6.237   3.381   0.949  0.1691 -0.1190  0.4218
 3618SOL    HW111664   6.180   3.304   0.947 -0.8755  0.6196  0.8830
 3618SOL    HW211665   6.304   3.363   0.883 -1.2419 -0.5106 -0.9479
 3619SOL     OW11666   2.859   4.173   7.328  0.2642 -0.3947  0.2775
 3619SOL    HW111667   2.835   4.247   7.272  2.2833 -1.2236 -1.8521
 3619SOL    HW211668   2.777   4.126   7.342 -0.9214  1.7531  1.0481
 3620SOL     OW11669   7.111   7.560   4.266 -0.3476 -0.2689 -0.0693
 3620SOL    HW111670   7.097   7.575   4.360 -1.0276 -1.9128  0.1209
 3620SOL    HW211671   7.023   7.559   4.229 -0.2623 -1.9459 -0.3125
 3621SOL     OW11672   4.857   5.601   2.512 -0.7764  0.1450  0.0405
 3621SOL    HW111673   4.868   5.588   2.418 -1.7708 -0.2306 -0.0360
 3621SOL    HW211674   4.883   5.692   2.527  2.5576 -0.6363 -0.0417
 3622SOL     OW11675   0.720   2.535   7.588  0.0868  0.6024 -0.3562
 3622SOL    HW111676   0.802   2.575   7.561  0.0607  0.5259 -0.5459
 3622SOL    HW211677   0.734   2.441   7.579 -0.0565  0.5923 -0.4918
 3623SOL     OW11678   3.910   4.610   4.834 -0.6772  0.1969  0.1885
 3623SOL    HW111679   3.816   4.629   4.837 -0.5553  0.8333  0.0325
 3623SOL    HW211680   3.949   4.687   4.793  0.0329  0.3562  1.1444
 3624SOL     OW11681   3.874   7.524   0.421 -0.2310  0.2291 -0.0437
 3624SOL    HW111682   3.780   7.506   0.429 -0.3199  0.6092 -0.2238
 3624SOL    HW211683   3.912   7.440   0.397 -0.4305 -0.0944  0.7301
 3625SOL     OW11684   6.322   1.655   1.269 -0.0068  0.6023 -0.6870
 3625SOL    HW111685   6.280   1.573   1.292  1.1554  0.4044  0.9045
 3625SOL    HW211686   6.383   1.632   1.199  1.8680 -0.4292  1.1391
 3626SOL     OW11687   6.221   1.223   5.369 -0.8991  0.1661 -0.3156
 3626SOL    HW111688   6.273   1.301   5.387  1.1228 -1.0196 -0.7407
 3626SOL    HW211689   6.266   1.181   5.296 -2.2095 -1.1651 -0.3958
 3627SOL     OW11690   4.947   7.793   2.836 -0.1572  0.6615  0.0733
 3627SOL    HW111691   4.952   7.859   2.767 -0.7466 -0.5132 -1.1337
 3627SOL    HW211692   4.863   7.750   2.822  0.2507 -0.4027  0.7904
 3628SOL     OW11693   1.545   7.931   1.925  0.3381  0.1751  0.4499
 3628SOL    HW111694   1.574   7.874   1.853  1.8126  1.8252 -0.3476
 3628SOL    HW211695   1.465   7.973   1.892  0.2316 -0.1219  0.3283
 3629SOL     OW11696   5.925   3.782   3.236  0.2683  0.4958 -0.2819
 3629SOL    HW111697   5.879   3.729   3.301  0.3824 -0.7795 -1.1999
 3629SOL    HW211698   6.016   3.783   3.266  0.0570  1.1680  0.3592
 3630SOL     OW11699   0.164   6.717   0.054 -0.4612 -0.3156 -0.0270
 3630SOL    HW111700   0.106   6.791   0.071  1.0871  1.1227 -0.7654
 3630SOL    HW211701   0.137   6.685  -0.032  1.1653  1.7595 -1.4103
 3631SOL     OW11702   5.900   6.539   2.323 -0.0971 -0.7302 -0.4099
 3631SOL    HW111703   5.824   6.558   2.267 -0.3288 -1.3137 -0.3115
 3631SOL    HW211704   5.861   6.509   2.405  0.1782 -3.5127 -1.1977
 3632SOL     OW11705   2.361   6.991   0.283  0.2633 -0.4143 -0.2759
 3632SOL    HW111706   2.424   6.921   0.303 -0.0360 -0.5128  0.3323
 3632SOL    HW211707   2.298   6.950   0.223  1.0888 -0.1528 -1.3614
 3633SOL     OW11708   4.013   0.559   2.680  0.3767 -0.3712 -0.2781
 3633SOL    HW111709   4.102   0.589   2.699  0.9576 -2.0336 -0.2056
 3633SOL    HW211710   3.985   0.514   2.760 -0.9585  0.9900  0.0799
 3634SOL     OW11711   4.660   0.456   5.425  0.1676  0.1533  0.0894
 3634SOL    HW111712   4.565   0.444   5.418 -0.1205  1.1765  1.7362
 3634SOL    HW211713   4.679   0.440   5.517  1.1753  2.5167  0.3453
 3635SOL     OW11714   0.592   0.778   3.167 -0.3967 -0.0594 -0.4051
 3635SOL    HW111715   0.671   0.725   3.178 -1.1286 -1.0369  0.3323
 3635SOL    HW211716   0.604   0.821   3.082 -0.5508 -2.8317 -1.9547
 3636SOL     OW11717   2.524   2.969   4.132  0.4750 -0.1185 -0.1921
 3636SOL    HW111718   2.514   2.878   4.158  2.0297 -0.5833 -1.0569
 3636SOL    HW211719   2.465   2.979   4.057  1.3584 -0.8478 -1.0084
 3637SOL     OW11720   4.431   1.511   0.468  0.1953  0.3596 -0.0556
 3637SOL    HW111721   4.435   1.510   0.564  2.0002 -0.4491 -0.0932
 3637SOL    HW211722   4.518   1.541   0.441 -0.7546  2.0487 -1.4673
 3638SOL     OW11723   6.893   6.723   2.499  1.0978  0.1076  0.3854
 3638SOL    HW111724   6.835   6.685   2.433  0.5545  0.9464  0.3508
 3638SOL    HW211725   6.963   6.763   2.448  0.2736  1.4331  0.2278
 3639SOL     OW11726   7.866   4.087   2.526 -0.0974 -0.1183 -0.2823
 3639SOL    HW111727   7.798   4.144   2.490 -0.1395 -0.4262 -0.6992
 3639SOL    HW211728   7.866   4.011   2.468  1.2729  0.3077 -0.8688
 3640SOL     OW11729   0.944   0.053   1.605  0.5329 -0.7125 -0.4328
 3640SOL    HW111730   0.979   0.142   1.596 -0.1506 -0.3624  0.3259
 3640SOL    HW211731   0.943   0.036   1.699  2.3101 -2.2079 -0.6249
 3641SOL     OW11732   1.904   2.508   7.201 -0.3252 -0.3828 -0.6996
 3641SOL    HW111733   1.842   2.439   7.180  0.6219 -1.0281 -1.4620
 3641SOL    HW211734   1.974   2.499   7.136 -1.0269  2.4239 -2.0297
 3642SOL     OW11735   0.974   5.670   5.266  0.4828 -0.2731  0.0209
 3642SOL    HW111736   0.987   5.598   5.328 -0.1993  0.4252  0.9977
 3642SOL    HW211737   1.041   5.734   5.290  1.2856 -0.6903 -1.0418
 3643SOL     OW11738   5.416   0.483   3.292 -0.1639 -0.4301  0.6555
 3643SOL    HW111739   5.396   0.522   3.377 -1.1389  1.8272 -0.5124
 3643SOL    HW211740   5.337   0.499   3.239  1.1653  0.1181 -1.2683
 3644SOL     OW11741   1.796   0.255   0.704  0.3108 -0.1267 -0.5019
 3644SOL    HW111742   1.856   0.185   0.677 -1.3657 -1.6005 -0.5277
 3644SOL    HW211743   1.722   0.210   0.744  0.0438  1.7490  1.2779
 3645SOL     OW11744   0.013   7.209   0.054  0.7024 -0.1982  0.2285
 3645SOL    HW111745   0.054   7.286   0.014 -0.7030  0.0510 -0.8014
 3645SOL    HW211746  -0.080   7.231   0.059  0.3343 -1.6702  0.2744
 3646SOL     OW11747   7.821   3.498   0.980  0.3361 -0.9626  0.1959
 3646SOL    HW111748   7.835   3.419   0.928 -1.5012 -1.0801 -0.1661
 3646SOL    HW211749   7.899   3.551   0.964  0.8497 -1.9935 -0.8426
 3647SOL     OW11750   0.153   3.494   0.249 -0.0311 -0.4037 -0.2542
 3647SOL    HW111751   0.169   3.440   0.171  1.5932 -0.0423 -0.2172
 3647SOL    HW211752   0.241   3.521   0.277 -0.8026  2.8793 -0.7139
 3648SOL     OW11753   0.115   3.812   2.009 -0.2512 -0.1585  0.5985
 3648SOL    HW111754   0.037   3.785   1.961 -0.1975  1.2459 -0.3509
 3648SOL    HW211755   0.175   3.738   2.003 -0.8792 -0.6140 -0.1121
 3649SOL     OW11756   6.842   3.184   0.945  0.0496  0.9889 -0.2906
 3649SOL    HW111757   6.883   3.261   0.906 -1.7747  1.7668 -0.7801
 3649SOL    HW211758   6.748   3.201   0.937 -0.4077  0.1445  2.4122
 3650SOL     OW11759   3.775   0.303   3.746  0.7121  0.0532 -0.4473
 3650SOL    HW111760   3.693   0.330   3.704 -0.1370 -1.0813  0.4184
 3650SOL    HW211761   3.760   0.212   3.772  1.5315  0.4018  1.4423
 3651SOL     OW11762   1.539   6.694   4.190  0.2946 -0.3708 -0.3258
 3651SOL    HW111763   1.622   6.682   4.236  1.0214  0.0605 -1.4921
 3651SOL    HW211764   1.518   6.607   4.156  0.8172 -0.2758 -0.9146
 3652SOL     OW11765   0.930   5.232   1.523  0.0974  0.1336 -0.4190
 3652SOL    HW111766   0.864   5.248   1.590  0.4273 -0.2759  0.0153
 3652SOL    HW211767   0.920   5.304   1.461 -1.6542 -0.6342 -1.0980
 3653SOL     OW11768   6.711   4.830   4.901 -0.7614 -0.2817 -0.3280
 3653SOL    HW111769   6.716   4.905   4.960 -0.8732 -0.5092 -0.0261
 3653SOL    HW211770   6.644   4.855   4.837 -0.2095  0.2157 -0.7277
 3654SOL     OW11771   6.335   6.445   0.709  0.2904 -0.2409 -0.3099
 3654SOL    HW111772   6.386   6.392   0.771  1.1703  1.4260  0.4399
 3654SOL    HW211773   6.384   6.440   0.627 -0.8688 -2.4394 -0.9611
 3655SOL     OW11774   3.475   6.049   0.698 -0.0228 -0.5096 -0.4639
 3655SOL    HW111775   3.440   5.972   0.652 -0.5384 -1.3627  1.2587
 3655SOL    HW211776   3.398   6.102   0.718 -0.0142 -0.9291  0.7549
 3656SOL     OW11777   7.711   6.842   2.987 -0.7991 -0.3877  0.2430
 3656SOL    HW111778   7.766   6.918   2.971 -0.1703 -0.7142  0.8058
 3656SOL    HW211779   7.671   6.858   3.073  0.4069 -1.2967  1.0060
 3657SOL     OW11780   0.893   7.702   0.147  0.7345  0.0174  0.3579
 3657SOL    HW111781   0.840   7.756   0.206  1.3694  0.2324  0.7320
 3657SOL    HW211782   0.889   7.747   0.063  1.6238  0.9042  0.7705
 3658SOL     OW11783   5.827   5.070   4.890 -0.2202 -0.5518 -0.2282
 3658SOL    HW111784   5.897   5.010   4.863 -0.5601 -0.9597 -0.2281
 3658SOL    HW211785   5.841   5.149   4.838  0.5080 -0.4519  0.1039
 3659SOL     OW11786   6.014   5.281   1.758  0.2040  0.4123 -0.0764
 3659SOL    HW111787   5.919   5.284   1.766  0.2988  1.3542  1.1532
 3659SOL    HW211788   6.043   5.230   1.834  0.6516 -0.6390 -0.9302
 3660SOL     OW11789   5.691   1.986   5.169 -0.3007 -0.1306 -0.2382
 3660SOL    HW111790   5.739   1.944   5.098  1.4627 -1.8175  1.7966
 3660SOL    HW211791   5.752   2.050   5.205 -1.5006  1.3559 -0.7519
 3661SOL     OW11792   0.171   4.003   7.622 -0.3082  0.1701  0.4238
 3661SOL    HW111793   0.213   4.068   7.678  0.6616 -0.6465  0.6573
 3661SOL    HW211794   0.124   3.946   7.683  1.9143 -1.5899  0.6196
 3662SOL     OW11795   0.770   5.291   7.477 -0.5238  0.6426 -0.4009
 3662SOL    HW111796   0.760   5.295   7.381 -0.7280 -0.8818 -0.4780
 3662SOL    HW211797   0.683   5.269   7.509 -0.3897  0.8600  0.1125
 3663SOL     OW11798   4.988   1.497   5.096  0.2028  0.2292 -0.0829
 3663SOL    HW111799   5.070   1.487   5.145 -1.0456  1.1279  2.3839
 3663SOL    HW211800   4.984   1.589   5.073 -0.7555  0.5299  1.1577
 3664SOL     OW11801   5.312   6.167   2.095  0.1163  0.4476  0.5233
 3664SOL    HW111802   5.227   6.168   2.139 -2.3048 -2.5202 -3.3246
 3664SOL    HW211803   5.354   6.086   2.126 -0.2639 -0.1001 -0.3532
 3665SOL     OW11804   6.417   5.067   7.062  0.1023  0.2706 -0.4781
 3665SOL    HW111805   6.380   5.108   6.984 -1.1083  0.3595  0.1205
 3665SOL    HW211806   6.465   4.991   7.028 -1.6050 -0.5295 -1.2151
 3666SOL     OW11807   1.344   0.270   0.860  0.4397 -0.2851  0.3801
 3666SOL    HW111808   1.396   0.211   0.914 -0.5867 -1.2449  0.3650
 3666SOL    HW211809   1.309   0.214   0.790 -0.3306  0.3945  0.2085
 3667SOL     OW11810   5.106   4.759   0.175  0.0556  0.0008 -0.6524
 3667SOL    HW111811   5.060   4.841   0.189  0.6264  0.4070 -1.0827
 3667SOL    HW211812   5.179   4.782   0.117  0.0013 -0.8753 -1.0959
 3668SOL     OW11813   5.335   5.828   6.960 -0.1937  0.3277  0.1724
 3668SOL    HW111814   5.396   5.795   7.026  0.8480  2.4902  0.3805
 3668SOL    HW211815   5.355   5.778   6.881  0.6893 -0.1419  0.6836
 3669SOL     OW11816   2.796   4.620   3.815 -0.1019 -0.2586  0.4611
 3669SOL    HW111817   2.828   4.710   3.824 -2.1123  0.6689 -0.8805
 3669SOL    HW211818   2.792   4.606   3.720  0.3191 -1.8255  0.6584
 3670SOL     OW11819   7.638   5.718   6.291 -0.2281 -0.5989 -0.1019
 3670SOL    HW111820   7.733   5.725   6.302 -0.3743  0.2526  0.8081
 3670SOL    HW211821   7.605   5.806   6.310 -1.2576 -1.0744  0.4012
 3671SOL     OW11822   4.348   0.712   1.348  0.0585  0.0491 -0.1048
 3671SOL    HW111823   4.371   0.700   1.256 -0.0964 -0.3418 -0.0957
 3671SOL    HW211824   4.423   0.758   1.386  1.5336 -2.4557  0.2491
 3672SOL     OW11825   4.948   2.717   1.389  0.0680  0.7041 -0.0892
 3672SOL    HW111826   4.853   2.730   1.388  0.2000  1.8368 -1.7572
 3672SOL    HW211827   4.981   2.775   1.320  1.8138 -1.0073 -0.7688
 3673SOL     OW11828   3.722   2.196   2.787 -0.4217  0.0524 -0.0938
 3673SOL    HW111829   3.794   2.191   2.849  2.0268  0.1260 -2.7088
 3673SOL    HW211830   3.718   2.289   2.762 -1.4916  0.0575  0.0295
 3674SOL     OW11831   7.025   6.125   2.752  0.1861 -0.0083  0.1116
 3674SOL    HW111832   7.047   6.208   2.794  1.5021  0.2517 -1.0220
 3674SOL    HW211833   6.940   6.141   2.711 -0.5032  0.1301  1.5142
 3675SOL     OW11834   6.383   6.613   3.906  0.5694 -0.2439 -1.0152
 3675SOL    HW111835   6.347   6.701   3.917  2.0246  0.5801 -2.4002
 3675SOL    HW211836   6.468   6.616   3.951  1.5202 -0.2778 -2.7096
 3676SOL     OW11837   0.396   5.670   1.341 -0.1627 -0.1746 -0.3096
 3676SOL    HW111838   0.341   5.724   1.285 -0.7194  0.0961  0.4870
 3676SOL    HW211839   0.466   5.639   1.283  0.7033  2.1087 -0.6182
 3677SOL     OW11840   6.032   5.722   3.547  0.4012  0.2258 -0.3597
 3677SOL    HW111841   5.987   5.710   3.463 -0.9768 -1.9411  0.6254
 3677SOL    HW211842   6.040   5.634   3.583  1.4684  1.0585  1.5587
 3678SOL     OW11843   6.916   1.918   7.273 -0.3025  0.9340  0.8278
 3678SOL    HW111844   6.859   1.939   7.199  1.0400 -0.0105 -0.5362
 3678SOL    HW211845   6.882   1.836   7.307 -0.6184  1.1065  0.9269
 3679SOL     OW11846   2.731   0.303   3.043  0.5907 -0.3940 -0.5976
 3679SOL    HW111847   2.659   0.261   3.090  0.5191 -0.8812 -1.1250
 3679SOL    HW211848   2.753   0.241   2.973  2.3898 -0.8315  0.3267
 3680SOL     OW11849   3.442   7.768   1.687  0.5102  0.2253 -0.1909
 3680SOL    HW111850   3.359   7.721   1.697  1.6565 -2.1550 -1.1438
 3680SOL    HW211851   3.446   7.827   1.762 -2.9696  2.0055 -1.1792
 3681SOL     OW11852   1.111   3.658   4.406 -0.3182  0.2204 -1.1491
 3681SOL    HW111853   1.196   3.647   4.449 -0.2243  0.1456 -1.3527
 3681SOL    HW211854   1.090   3.751   4.416 -0.0418  0.3118 -1.4145
 3682SOL     OW11855   6.990   1.920   5.370 -0.2996  0.4385  0.3754
 3682SOL    HW111856   7.077   1.960   5.375 -0.4035  0.8584 -0.8656
 3682SOL    HW211857   7.001   1.835   5.411  1.3628 -0.5600 -1.9238
 3683SOL     OW11858   3.947   5.550   4.301 -0.3607  1.2734  0.1694
 3683SOL    HW111859   4.021   5.571   4.357  0.4570  2.8561 -1.4273
 3683SOL    HW211860   3.986   5.529   4.216 -1.6227 -0.2085 -0.0970
 3684SOL     OW11861   4.627   5.409   1.971  0.7369 -0.1202 -0.3152
 3684SOL    HW111862   4.627   5.348   1.898  0.4131  1.5739 -1.7940
 3684SOL    HW211863   4.565   5.371   2.034  0.9051 -1.5275 -0.9558
 3685SOL     OW11864   3.284   2.786   2.165 -0.6945 -0.6140  0.2134
 3685SOL    HW111865   3.229   2.809   2.240  0.0699  0.9672  0.3403
 3685SOL    HW211866   3.327   2.869   2.141  1.0171 -1.6262 -0.3638
 3686SOL     OW11867   3.573   1.238   2.944 -0.0643  0.0433 -0.3674
 3686SOL    HW111868   3.553   1.311   2.885  1.3805 -1.4994 -2.9633
 3686SOL    HW211869   3.616   1.279   3.019 -1.1099  2.0157 -0.7773
 3687SOL     OW11870   5.588   0.544   7.058  0.1534 -0.0154 -0.6912
 3687SOL    HW111871   5.628   0.608   6.999  0.4220  0.0980 -0.3885
 3687SOL    HW211872   5.533   0.489   7.001  1.6501 -0.9274 -1.3080
 3688SOL     OW11873   4.709   6.469   7.366  0.0137 -0.1126  0.5531
 3688SOL    HW111874   4.637   6.531   7.377  0.1081  0.0711  0.1685
 3688SOL    HW211875   4.762   6.506   7.295  0.1910 -0.5156  0.4696
 3689SOL     OW11876   1.108   5.960   5.074  0.4456  0.2615 -0.2465
 3689SOL    HW111877   1.180   5.899   5.093  0.1474 -0.2568 -0.7432
 3689SOL    HW211878   1.150   6.045   5.067  1.2815 -0.2569 -2.1370
 3690SOL     OW11879   2.356   6.555   4.920  0.5923 -0.0905 -0.3938
 3690SOL    HW111880   2.283   6.520   4.869  0.0999  1.3197 -0.7032
 3690SOL    HW211881   2.333   6.646   4.937  0.6054 -0.5227  2.6001
 3691SOL     OW11882   2.252   5.071   6.355 -0.0289 -0.2665  0.3054
 3691SOL    HW111883   2.343   5.097   6.369  0.3215  0.6461 -2.8651
 3691SOL    HW211884   2.255   5.012   6.280 -2.0935  0.3459 -0.3429
 3692SOL     OW11885   5.807   7.088   6.543  0.0487 -0.0716 -0.2755
 3692SOL    HW111886   5.863   7.039   6.602  1.0648  0.5675 -0.6841
 3692SOL    HW211887   5.779   7.024   6.477  0.2545 -0.4064 -0.0378
 3693SOL     OW11888   3.818   3.622   2.061  0.1611  0.3747 -0.2006
 3693SOL    HW111889   3.851   3.712   2.058 -0.2310  0.5732  0.8651
 3693SOL    HW211890   3.733   3.625   2.018 -0.4301  0.8037  0.9476
 3694SOL     OW11891   6.629   5.260   6.809  0.5283  0.1652 -0.7138
 3694SOL    HW111892   6.534   5.273   6.815  0.6494  0.6176  0.4304
 3694SOL    HW211893   6.654   5.308   6.730  0.2564  2.9607  0.7541
 3695SOL     OW11894   6.192   5.684   8.003 -0.2840 -0.2309 -0.5129
 3695SOL    HW111895   6.153   5.642   7.927  1.6806 -0.6987 -1.3229
 3695SOL    HW211896   6.262   5.625   8.031  1.0361  1.3560 -0.2649
 3696SOL     OW11897   0.156   1.353   6.555  0.0341 -0.1266 -0.1319
 3696SOL    HW111898   0.249   1.360   6.576  0.2055 -0.3504 -0.7911
 3696SOL    HW211899   0.114   1.421   6.608  0.4132 -0.7997  1.0771
 3697SOL     OW11900   5.983   1.434   3.293 -0.3772  0.5850 -0.2637
 3697SOL    HW111901   5.923   1.475   3.231  0.0523  1.9936  0.2144
 3697SOL    HW211902   6.052   1.395   3.239 -0.2061  1.4736 -0.7011
 3698SOL     OW11903   1.407   5.761   3.033  0.3881  0.1152  0.1335
 3698SOL    HW111904   1.446   5.802   3.110 -0.0757  2.3040 -0.7366
 3698SOL    HW211905   1.391   5.833   2.972 -1.6781 -1.1800 -0.9924
 3699SOL     OW11906   0.203   5.296   4.189 -0.0040  0.1060  0.3891
 3699SOL    HW111907   0.292   5.265   4.175  1.8972  3.7614  2.8505
 3699SOL    HW211908   0.171   5.316   4.101  1.2425 -1.9448 -0.6101
 3700SOL     OW11909   5.906   1.949   0.356  0.6164 -0.0992 -0.4709
 3700SOL    HW111910   5.957   2.031   0.354 -0.0587  0.3179 -1.1811
 3700SOL    HW211911   5.956   1.891   0.412  0.2305  1.3887  1.5030
 3701SOL     OW11912   0.919   4.927   6.582 -0.1606 -0.3438 -0.4100
 3701SOL    HW111913   0.960   4.982   6.515  1.4787 -0.9175  0.0623
 3701SOL    HW211914   0.979   4.932   6.657 -2.0513  0.4651  1.1347
 3702SOL     OW11915   5.127   6.119   5.404 -0.3083  0.4315  0.1620
 3702SOL    HW111916   5.092   6.069   5.478 -0.5935  1.4034  0.6998
 3702SOL    HW211917   5.220   6.096   5.401 -0.7693 -1.4767 -0.7187
 3703SOL     OW11918   7.103   3.637   5.152 -0.1204 -0.1201  0.4278
 3703SOL    HW111919   7.048   3.559   5.150 -0.1474 -0.1672  1.9624
 3703SOL    HW211920   7.088   3.675   5.238  0.5977  1.0850  0.0568
 3704SOL     OW11921   4.101   6.935   4.035  0.9718 -0.4995  0.0848
 3704SOL    HW111922   4.140   6.848   4.033  3.2059  0.4360 -0.5179
 3704SOL    HW211923   4.163   6.988   4.085 -0.7814  0.5865  1.2244
 3705SOL     OW11924   4.865   2.420   0.603  0.3208  0.5385 -0.0752
 3705SOL    HW111925   4.883   2.371   0.684 -0.6223  0.5815  0.1685
 3705SOL    HW211926   4.874   2.512   0.629 -0.7086  0.5832  0.1855
 3706SOL     OW11927   5.308   7.605   4.913 -0.1249 -0.4754 -0.2551
 3706SOL    HW111928   5.312   7.651   4.997 -1.1186 -1.2622  0.2377
 3706SOL    HW211929   5.229   7.552   4.918  0.2785 -1.2182 -1.3506
 3707SOL     OW11930   5.471   2.274   2.628  0.7195  0.0496 -0.1663
 3707SOL    HW111931   5.415   2.197   2.635 -0.3733  0.6425 -1.8863
 3707SOL    HW211932   5.467   2.299   2.536 -1.4043  3.9183  0.7718
 3708SOL     OW11933   5.006   7.841   6.352  0.4172 -0.0645  0.1955
 3708SOL    HW111934   4.934   7.864   6.411 -1.5831 -0.5641 -1.9249
 3708SOL    HW211935   5.072   7.801   6.409 -2.1113 -2.1380  1.8954
 3709SOL     OW11936   4.780   6.708   6.924  0.1581  0.0141  0.2694
 3709SOL    HW111937   4.843   6.722   6.994  1.4019 -0.2815 -0.7464
 3709SOL    HW211938   4.825   6.651   6.862 -1.9409 -2.1678  0.5916
 3710SOL     OW11939   6.573   0.553   2.324  0.5172 -0.2036 -0.1524
 3710SOL    HW111940   6.493   0.604   2.329 -0.5239 -1.7564 -0.3091
 3710SOL    HW211941   6.626   0.596   2.257  0.5417  1.7611  1.0587
 3711SOL     OW11942   3.540   4.990   5.868 -0.1391  0.0986 -0.2384
 3711SOL    HW111943   3.466   4.933   5.844  1.6256 -1.9923 -1.0199
 3711SOL    HW211944   3.578   4.950   5.946  0.7566  0.5764 -0.4124
 3712SOL     OW11945   1.994   6.123   1.770 -0.3955 -0.3480 -0.1780
 3712SOL    HW111946   1.912   6.079   1.748 -1.3277  1.6314 -0.9253
 3712SOL    HW211947   1.987   6.209   1.729  1.9713 -0.0135 -0.0568
 3713SOL     OW11948   0.643   1.911   0.569 -0.0104 -0.0999 -0.7120
 3713SOL    HW111949   0.628   1.817   0.564 -1.3324  0.0857 -0.4378
 3713SOL    HW211950   0.556   1.950   0.562  0.5368  1.1084 -0.9596
 3714SOL     OW11951   7.676   7.281   5.970 -0.4366 -0.0971  0.8778
 3714SOL    HW111952   7.692   7.366   5.930  0.6293 -0.3022  0.8354
 3714SOL    HW211953   7.743   7.273   6.038  0.2351 -1.3766  0.1035
 3715SOL     OW11954   5.940   3.259   5.766 -0.1946 -0.2809 -0.2297
 3715SOL    HW111955   5.947   3.177   5.718  0.1706 -1.3214  1.5497
 3715SOL    HW211956   5.971   3.325   5.704 -0.1400 -1.5146 -1.5612
 3716SOL     OW11957   4.145   5.309   2.508 -0.0519  0.7513 -0.0877
 3716SOL    HW111958   4.068   5.252   2.513 -0.1395  0.9172  0.4959
 3716SOL    HW211959   4.158   5.324   2.414 -0.5204  0.4377 -0.2034
 3717SOL     OW11960   2.030   0.911   3.172  0.5536  0.3517  0.7622
 3717SOL    HW111961   1.979   0.880   3.097  0.4351  1.5536  0.3210
 3717SOL    HW211962   2.053   0.832   3.220  1.5912 -0.5670 -1.1337
 3718SOL     OW11963   3.679   7.191   7.292  0.1488  0.3840 -1.5633
 3718SOL    HW111964   3.652   7.115   7.343  3.4708 -0.0990 -0.3210
 3718SOL    HW211965   3.611   7.257   7.309 -0.9062 -1.0843  0.2590
 3719SOL     OW11966   3.495   2.848   6.208  0.2023  0.6358  0.2321
 3719SOL    HW111967   3.469   2.851   6.116 -1.8315  0.9564  0.7659
 3719SOL    HW211968   3.589   2.862   6.207  0.7743 -2.3883 -2.0035
 3720SOL     OW11969   6.231   2.993   2.185  0.2424 -1.0506  0.1058
 3720SOL    HW111970   6.283   3.073   2.195 -0.9072  0.1470 -2.6452
 3720SOL    HW211971   6.277   2.944   2.117  0.3109 -2.2667  0.9916
 3721SOL     OW11972   5.353   7.564   0.964 -0.2282  0.2452 -0.3110
 3721SOL    HW111973   5.433   7.590   1.010 -0.0231 -1.0267  0.0754
 3721SOL    HW211974   5.290   7.632   0.986 -0.6963 -1.1890  3.3870
 3722SOL     OW11975   2.514   1.522   2.404 -0.0910  0.9689  0.2361
 3722SOL    HW111976   2.581   1.504   2.339 -1.6395  0.5686 -1.3277
 3722SOL    HW211977   2.497   1.437   2.446 -0.4327  0.8240 -0.1903
 3723SOL     OW11978   5.583   1.912   2.335 -0.2097  0.0858  0.0264
 3723SOL    HW111979   5.633   1.979   2.382  0.3078 -0.1543 -0.1793
 3723SOL    HW211980   5.492   1.934   2.353 -0.1064  1.5784 -1.0247
 3724SOL     OW11981   4.863   6.001   3.332  0.3213  0.0545  0.1183
 3724SOL    HW111982   4.868   5.919   3.282 -0.1216  0.4503 -0.6006
 3724SOL    HW211983   4.942   6.049   3.306  0.3982  0.0121  0.2687
 3725SOL     OW11984   0.852   6.691   0.892  0.4413  0.1446 -0.4181
 3725SOL    HW111985   0.904   6.616   0.921 -0.0031 -0.7033 -1.7374
 3725SOL    HW211986   0.913   6.745   0.842  0.2154 -0.5565 -1.4753
 3726SOL     OW11987   7.093   1.601   5.128  0.0733  0.0474 -0.5306
 3726SOL    HW111988   7.093   1.580   5.221  1.3609  0.1039 -0.4979
 3726SOL    HW211989   7.079   1.696   5.124  2.8703  0.5734 -0.1868
 3727SOL     OW11990   1.985   7.288   2.646 -0.4639 -0.4691 -0.0539
 3727SOL    HW111991   1.889   7.284   2.655 -0.4401 -1.9480 -0.2966
 3727SOL    HW211992   2.008   7.210   2.597  0.8799 -0.0697 -0.0985
 3728SOL     OW11993   2.336   6.183   4.630 -0.4090 -0.0522 -0.1500
 3728SOL    HW111994   2.304   6.106   4.583  0.8382 -0.6034 -0.1229
 3728SOL    HW211995   2.371   6.240   4.562 -0.0653 -0.1352 -0.0455
 3729SOL     OW11996   2.398   1.851   2.359 -0.4827  0.2080 -0.0937
 3729SOL    HW111997   2.361   1.766   2.334 -1.0735  0.4177  0.0420
 3729SOL    HW211998   2.401   1.848   2.455 -2.1802  0.9987  0.0275
 3730SOL     OW11999   4.627   1.382   3.807  0.1667 -0.8080  0.4136
 3730SOL    HW112000   4.671   1.343   3.732  0.3038 -0.3355  0.2467
 3730SOL    HW212001   4.667   1.468   3.817 -1.0891 -0.1220 -0.0960
 3731SOL     OW12002   3.597   1.999   6.024  0.4847  0.1508 -0.0227
 3731SOL    HW112003   3.644   2.025   6.104 -0.6338 -1.1193  1.1004
 3731SOL    HW212004   3.529   2.065   6.013  0.7296  0.4069  0.0027
 3732SOL     OW12005   3.351   6.162   4.155 -0.2915  0.2171 -0.2822
 3732SOL    HW112006   3.376   6.159   4.247 -0.7992 -0.9575 -0.1596
 3732SOL    HW212007   3.391   6.242   4.121 -0.9291  1.2164  1.2017
 3733SOL     OW12008   0.091   0.647   4.804  0.2436  0.2301 -0.0699
 3733SOL    HW112009   0.086   0.714   4.873  3.0460  0.5558 -0.0408
 3733SOL    HW212010   0.051   0.688   4.728  1.8099  2.0092 -0.0253
 3734SOL     OW12011   7.509   7.604   3.405 -0.2066  0.3071  0.3856
 3734SOL    HW112012   7.582   7.556   3.365 -0.4493 -1.0559  1.5067
 3734SOL    HW212013   7.431   7.563   3.368 -0.4604  2.0684 -1.1681
 3735SOL     OW12014   4.663   3.437   6.302  0.0789 -0.3956 -0.5689
 3735SOL    HW112015   4.579   3.410   6.339 -0.0992  0.7111 -0.1054
 3735SOL    HW212016   4.727   3.381   6.346 -0.3252 -0.5181 -0.1173
 3736SOL     OW12017   3.812   5.829   4.843 -0.0776 -0.1205 -0.6246
 3736SOL    HW112018   3.845   5.848   4.755 -0.3699 -1.0857 -0.9478
 3736SOL    HW212019   3.730   5.782   4.828 -0.1514 -0.2510  0.1733
 3737SOL     OW12020   0.705   6.816   3.355 -0.2439 -0.3268  0.2944
 3737SOL    HW112021   0.754   6.898   3.355 -1.6464  0.5370  0.2756
 3737SOL    HW212022   0.768   6.750   3.325  1.3024  0.4810  1.6224
 3738SOL     OW12023   5.130   5.937   7.128  0.3728  0.4595  0.0302
 3738SOL    HW112024   5.060   5.933   7.062 -1.1646 -2.1732  1.6589
 3738SOL    HW212025   5.204   5.892   7.087 -0.2339 -0.2882 -0.2715
 3739SOL     OW12026   6.785   4.202   5.005 -0.3724  0.5499 -0.0219
 3739SOL    HW112027   6.854   4.266   4.989 -1.7984  1.8232 -1.5182
 3739SOL    HW212028   6.831   4.118   5.011  1.2517  1.2052 -1.9272
 3740SOL     OW12029   0.047   0.863   5.343  0.3070  0.0434 -0.2083
 3740SOL    HW112030   0.046   0.784   5.289  0.7849  0.8922 -1.4952
 3740SOL    HW212031   0.121   0.914   5.311 -0.4194  1.3575  0.1003
 3741SOL     OW12032   5.501   4.890   4.881 -0.0253  0.1294 -0.0616
 3741SOL    HW112033   5.434   4.932   4.934  0.1637  0.1265  0.1815
 3741SOL    HW212034   5.495   4.797   4.903  1.1970  0.3270  1.2666
 3742SOL     OW12035   5.587   2.844   4.618  0.1475  0.3360  0.5346
 3742SOL    HW112036   5.674   2.876   4.594  0.2951 -0.9034 -0.7270
 3742SOL    HW212037   5.539   2.922   4.643  1.5374  1.0793  1.0069
 3743SOL     OW12038   1.073   6.261   6.758  0.2157  0.1302  0.0305
 3743SOL    HW112039   1.004   6.292   6.700 -1.7487  2.5597  3.3068
 3743SOL    HW212040   1.026   6.215   6.828  2.3401 -1.5162  0.4830
 3744SOL     OW12041   2.677   3.866   1.177 -0.6063  0.8452 -0.3235
 3744SOL    HW112042   2.648   3.956   1.169 -1.9671  0.8885  3.1707
 3744SOL    HW212043   2.771   3.872   1.194 -0.3228  1.4062 -1.9160
 3745SOL     OW12044   1.124   7.961   4.433 -0.4960 -0.0731 -0.6337
 3745SOL    HW112045   1.110   8.054   4.450  0.1049 -0.0041 -0.4940
 3745SOL    HW212046   1.038   7.928   4.410 -0.9034  0.3089  0.3038
 3746SOL     OW12047   3.569   5.407   3.384  0.3095 -0.3672 -0.1716
 3746SOL    HW112048   3.547   5.355   3.307 -2.8699  0.3021  0.1405
 3746SOL    HW212049   3.531   5.358   3.457  1.5110  0.0285  0.7541
 3747SOL     OW12050   4.555   4.664   4.266  0.4841  0.0759 -0.5810
 3747SOL    HW112051   4.516   4.584   4.301  0.0735 -0.1299 -1.4863
 3747SOL    HW212052   4.594   4.707   4.343  1.5239 -1.4282 -0.2320
 3748SOL     OW12053   1.453   6.801   4.425  0.6151 -0.1726 -0.2864
 3748SOL    HW112054   1.455   6.754   4.342 -0.1478 -1.3174  0.3233
 3748SOL    HW212055   1.390   6.872   4.411 -1.3998 -1.8158  0.0259
 3749SOL     OW12056   2.855   0.863   6.972  0.0663  0.3940  0.0049
 3749SOL    HW112057   2.877   0.938   7.026  0.1820  0.4739 -0.1529
 3749SOL    HW212058   2.927   0.801   6.985 -1.2528 -0.8123  2.1734
 3750SOL     OW12059   4.799   1.467   2.710  0.5120 -0.5344 -0.1366
 3750SOL    HW112060   4.838   1.504   2.631 -0.1980 -0.0381 -0.2702
 3750SOL    HW212061   4.838   1.380   2.718  2.1733  0.1884  0.1368
 3751SOL     OW12062   5.204   1.017   2.544 -0.2286 -0.1186 -0.0816
 3751SOL    HW112063   5.267   1.017   2.472 -0.9120  1.7289 -0.7432
 3751SOL    HW212064   5.158   1.100   2.535 -0.3888  0.1462  2.4585
 3752SOL     OW12065   6.912   0.464   2.809 -0.5747  0.5663  0.1307
 3752SOL    HW112066   6.886   0.550   2.775  0.2222  1.0574  0.7052
 3752SOL    HW212067   6.980   0.484   2.874 -2.1500 -0.2890  2.1721
 3753SOL     OW12068   3.918   0.952   5.555  0.3135  0.0659  0.0474
 3753SOL    HW112069   3.910   0.863   5.590  1.2880  0.5858  1.6757
 3753SOL    HW212070   4.011   0.960   5.532  0.0556  0.3813 -0.9247
 3754SOL     OW12071   1.750   2.136   7.538 -0.7524  0.1401 -0.1350
 3754SOL    HW112072   1.688   2.192   7.585 -1.2607  0.4644 -1.1627
 3754SOL    HW212073   1.732   2.048   7.570 -0.2899  0.4843  1.1287
 3755SOL     OW12074   4.720   3.940   0.389 -0.1004 -0.0302 -0.4186
 3755SOL    HW112075   4.682   4.027   0.397  0.2952  0.3488 -2.3047
 3755SOL    HW212076   4.659   3.892   0.332 -0.2732 -0.9933  0.5276
 3756SOL     OW12077   0.770   2.303   7.218 -0.0976  0.2105 -0.3051
 3756SOL    HW112078   0.845   2.360   7.234  1.6966 -1.7755 -1.1640
 3756SOL    HW212079   0.697   2.363   7.202  1.1933  2.2142  0.9564
 3757SOL     OW12080   4.319   7.987   2.447 -0.0745  0.1701  0.4891
 3757SOL    HW112081   4.397   8.026   2.487  0.1750 -1.5996  1.8897
 3757SOL    HW212082   4.247   8.043   2.475  0.5883  1.3701 -0.1479
 3758SOL     OW12083   2.227   1.494   6.407  0.4802 -0.4934 -0.2316
 3758SOL    HW112084   2.293   1.453   6.352 -0.1046 -0.6429 -0.8354
 3758SOL    HW212085   2.170   1.540   6.345 -0.2416 -0.7446  0.2350
 3759SOL     OW12086   1.380   6.379   2.790  0.0706 -0.2558 -0.2400
 3759SOL    HW112087   1.296   6.335   2.802 -0.6055  1.0801  0.0989
 3759SOL    HW212088   1.367   6.436   2.715 -0.2012  1.8938  1.3514
 3760SOL     OW12089   4.097   7.769   3.891 -0.5915  0.2929  0.2466
 3760SOL    HW112090   4.181   7.773   3.937 -0.4077 -2.2274  0.2392
 3760SOL    HW212091   4.031   7.773   3.961 -0.4016 -0.0821  0.4488
 3761SOL     OW12092   3.229   6.729   2.965 -0.5880  0.0385 -0.0428
 3761SOL    HW112093   3.315   6.717   3.005 -0.5551 -1.5088 -0.5291
 3761SOL    HW212094   3.170   6.743   3.040  0.0415  0.9920  0.2987
 3762SOL     OW12095   3.083   3.624   1.879  0.1437  0.2050  0.2428
 3762SOL    HW112096   3.025   3.560   1.839  1.9457 -1.7998  0.6563
 3762SOL    HW212097   3.094   3.692   1.812  0.8288 -1.6344 -1.6323
 3763SOL     OW12098   1.887   5.074   7.836  0.0075  0.1702  0.0579
 3763SOL    HW112099   1.853   5.139   7.775  0.3239  0.7813  0.5198
 3763SOL    HW212100   1.951   5.122   7.890  1.8662 -0.9928 -0.9816
 3764SOL     OW12101   1.329   5.131   2.669  0.2360  0.3860 -0.8031
 3764SOL    HW112102   1.392   5.078   2.717  1.4861  2.2687 -0.2316
 3764SOL    HW212103   1.360   5.128   2.578  1.2777  1.3858 -0.5113
 3765SOL     OW12104   3.035   1.344   5.129  0.1418 -0.0890  0.3851
 3765SOL    HW112105   3.105   1.329   5.066 -1.8391  0.4473 -2.1131
 3765SOL    HW212106   2.955   1.328   5.080 -1.5340 -0.6068  3.0986
 3766SOL     OW12107   1.720   0.654   1.411  0.0963 -0.3982 -0.0251
 3766SOL    HW112108   1.740   0.645   1.318 -1.7206  1.6361 -0.6987
 3766SOL    HW212109   1.669   0.576   1.433 -0.0969 -0.5386 -0.9475
 3767SOL     OW12110   4.398   1.012   0.159 -0.5179 -0.0237  0.2096
 3767SOL    HW112111   4.352   1.047   0.235 -0.0205 -1.2475  1.1036
 3767SOL    HW212112   4.329   0.969   0.108 -0.9520  1.3034 -0.3705
 3768SOL     OW12113   1.605   4.301   2.936  0.5663 -0.0346 -0.0501
 3768SOL    HW112114   1.625   4.347   2.854  0.6293 -0.1064 -0.0751
 3768SOL    HW212115   1.653   4.350   3.003 -0.9432  1.1443  0.2215
 3769SOL     OW12116   0.417   1.236   1.599  0.4159 -1.0231  0.0880
 3769SOL    HW112117   0.480   1.194   1.658  0.9788 -0.5492 -0.1663
 3769SOL    HW212118   0.339   1.181   1.605  1.3949 -2.5864 -0.8488
 3770SOL     OW12119   3.921   0.497   4.845 -0.2586 -0.0400 -0.1186
 3770SOL    HW112120   3.843   0.464   4.890 -0.1562 -1.0245 -0.6378
 3770SOL    HW212121   3.993   0.444   4.880  0.3735  1.5647  1.1431
 3771SOL     OW12122   3.948   5.192   3.442 -0.4027  0.4924  0.0691
 3771SOL    HW112123   3.955   5.271   3.496  1.0898  0.0117  0.6457
 3771SOL    HW212124   3.907   5.221   3.361 -0.8601  1.6291  0.6880
 3772SOL     OW12125   4.179   7.123   6.736 -0.3542 -0.6429 -0.2004
 3772SOL    HW112126   4.243   7.095   6.671 -1.0091  0.3603 -1.3209
 3772SOL    HW212127   4.139   7.201   6.698  0.1804  0.7995  2.0302
 3773SOL     OW12128   0.571   1.394   7.097  0.5398 -0.3956  0.0287
 3773SOL    HW112129   0.526   1.317   7.134 -1.7722  0.5871 -0.5361
 3773SOL    HW212130   0.540   1.467   7.151 -0.2802  0.6049 -1.7172
 3774SOL     OW12131   2.580   4.625   3.317  0.2814  0.1172  0.1893
 3774SOL    HW112132   2.669   4.661   3.326  0.1525  0.4806  0.0141
 3774SOL    HW212133   2.528   4.698   3.284  0.6637 -0.9816 -3.2776
 3775SOL     OW12134   6.086   4.752   0.815 -0.6099  0.4695 -0.3189
 3775SOL    HW112135   6.064   4.823   0.876 -1.4661  0.5517 -0.7104
 3775SOL    HW212136   6.029   4.767   0.740 -1.7074 -1.3401  0.0929
 3776SOL     OW12137   7.054   1.884   7.723  0.0509  0.3422  0.1523
 3776SOL    HW112138   7.039   1.792   7.702  1.9045  0.2225 -0.7974
 3776SOL    HW212139   6.975   1.929   7.692 -0.4755 -0.7975 -0.2022
 3777SOL     OW12140   3.339   4.139   7.226 -0.1638  0.2503 -0.1543
 3777SOL    HW112141   3.431   4.129   7.253 -0.3115 -0.4710  0.1037
 3777SOL    HW212142   3.343   4.182   7.141  0.4666 -0.8441 -0.6963
 3778SOL     OW12143   7.447   2.759   2.308  0.1975  0.2331  0.2898
 3778SOL    HW112144   7.364   2.716   2.289  0.6949 -0.9049  0.6525
 3778SOL    HW212145   7.434   2.797   2.395  0.4072 -0.8801  0.8250
 3779SOL     OW12146   0.282   1.507   5.740 -0.5809  0.2005  0.4152
 3779SOL    HW112147   0.298   1.421   5.779  2.4797  0.5542  0.1315
 3779SOL    HW212148   0.349   1.564   5.777 -1.2315  1.9765 -0.9722
 3780SOL     OW12149   4.127   3.885   6.905  0.1559 -0.2871  0.0482
 3780SOL    HW112150   4.220   3.868   6.918  0.7559  1.3117 -1.6492
 3780SOL    HW212151   4.107   3.846   6.820 -1.2555 -2.2994  1.2328
 3781SOL     OW12152   6.776   3.497   4.827 -0.0437 -0.2856 -0.8171
 3781SOL    HW112153   6.720   3.489   4.750 -2.5740 -1.3082  0.9766
 3781SOL    HW212154   6.805   3.408   4.845  0.0926 -0.1438 -0.3101
 3782SOL     OW12155   4.934   2.551   1.755  0.1941 -0.6624  0.0804
 3782SOL    HW112156   4.954   2.458   1.741 -0.0254 -0.8272  0.8356
 3782SOL    HW212157   4.925   2.560   1.850 -0.8477 -0.0923 -0.0557
 3783SOL     OW12158   7.372   1.676   6.313  0.1528 -0.4290 -0.5183
 3783SOL    HW112159   7.280   1.667   6.287  0.0974 -3.1121  0.2870
 3783SOL    HW212160   7.406   1.586   6.311  2.9045  0.5294 -1.1744
 3784SOL     OW12161   6.556   0.650   0.167  0.0734  0.0159 -0.1027
 3784SOL    HW112162   6.532   0.677   0.255  1.0184 -1.2349  0.5631
 3784SOL    HW212163   6.645   0.617   0.175 -0.5058 -1.9271 -1.1439
 3785SOL     OW12164   2.384   7.045   7.692  0.2979 -0.1743 -0.0440
 3785SOL    HW112165   2.380   7.051   7.788 -0.2331 -0.3836 -0.0553
 3785SOL    HW212166   2.478   7.049   7.673  0.3934  0.2214  0.4610
 3786SOL     OW12167   2.486   0.113   2.518 -0.1763  0.4045  0.0941
 3786SOL    HW112168   2.577   0.088   2.505 -0.0416  0.9527 -0.0803
 3786SOL    HW212169   2.444   0.036   2.555  0.2181 -0.0590 -0.4022
 3787SOL     OW12170   3.798   7.633   0.881 -0.0775 -0.5352 -0.5379
 3787SOL    HW112171   3.832   7.721   0.894 -1.3497 -0.1112  0.0824
 3787SOL    HW212172   3.826   7.610   0.792 -0.8329  1.0267 -1.2182
 3788SOL     OW12173   6.943   1.281   1.031 -0.9581  0.5173 -0.2955
 3788SOL    HW112174   6.964   1.226   0.956 -0.2760  0.6903 -0.2317
 3788SOL    HW212175   6.923   1.219   1.101  2.5873  0.2245  0.6181
 3789SOL     OW12176   7.822   0.657   6.849 -0.0292  0.3872  0.5901
 3789SOL    HW112177   7.744   0.713   6.852 -0.1218  0.2821  0.2374
 3789SOL    HW212178   7.887   0.702   6.903 -0.5105  0.2109  1.3323
 3790SOL     OW12179   3.623   5.610   5.185  0.0693 -0.4813 -0.2672
 3790SOL    HW112180   3.557   5.642   5.247  0.5462 -3.5442  2.0831
 3790SOL    HW212181   3.594   5.642   5.100 -2.8618  0.6691  1.0311
 3791SOL     OW12182   3.707   5.144   2.375 -0.0651  0.2842  0.2769
 3791SOL    HW112183   3.653   5.209   2.419 -0.0926  0.3051  0.2112
 3791SOL    HW212184   3.724   5.077   2.442 -1.2477 -0.3769 -0.0595
 3792SOL     OW12185   5.617   7.728   0.552 -0.0889  0.0183  0.3301
 3792SOL    HW112186   5.549   7.665   0.578 -0.7295  0.7576  0.4672
 3792SOL    HW212187   5.637   7.705   0.461 -0.6231 -0.1209  0.2424
 3793SOL     OW12188   6.971   2.382   4.896 -0.1907  0.0195  0.3844
 3793SOL    HW112189   6.921   2.306   4.927 -0.0084  0.5506  2.0957
 3793SOL    HW212190   6.925   2.410   4.817 -1.8473 -0.2913  1.1830
 3794SOL     OW12191   4.834   1.305   0.393  0.3972  0.0958 -0.3692
 3794SOL    HW112192   4.926   1.283   0.375  0.6190  0.5656  0.1542
 3794SOL    HW212193   4.795   1.223   0.423  0.3117 -0.4236 -1.8221
 3795SOL     OW12194   6.371   0.091   3.520  0.2560 -0.8190 -0.1331
 3795SOL    HW112195   6.422   0.153   3.469  1.9289 -0.7832  1.4813
 3795SOL    HW212196   6.303   0.061   3.460  1.3367  0.1726 -1.9457
 3796SOL     OW12197   6.682   4.416   5.812 -0.4169 -0.1230  0.5433
 3796SOL    HW112198   6.594   4.401   5.778  0.5277 -0.7409 -1.7999
 3796SOL    HW212199   6.710   4.330   5.844  0.8388 -1.0659 -2.6734
 3797SOL     OW12200   7.205   5.116   0.119 -0.5718  0.2789 -0.1760
 3797SOL    HW112201   7.179   5.087   0.032  0.7289 -0.3278 -0.3863
 3797SOL    HW212202   7.199   5.037   0.173  0.0676  0.2939 -0.0701
 3798SOL     OW12203   1.293   5.095   5.793 -0.5966 -0.1463 -0.0425
 3798SOL    HW112204   1.354   5.048   5.737  0.7674 -0.2897  1.4805
 3798SOL    HW212205   1.299   5.186   5.765  0.0303 -0.2237 -0.1719
 3799SOL     OW12206   6.644   4.560   7.609 -0.2606 -0.0180 -0.3385
 3799SOL    HW112207   6.580   4.528   7.546 -1.3239 -0.2889  0.8329
 3799SOL    HW212208   6.593   4.613   7.670  0.8016  0.5667  0.0666
 3800SOL     OW12209   1.659   1.777   1.407  0.1130 -0.1686 -0.2044
 3800SOL    HW112210   1.724   1.846   1.393  0.0622 -0.4703 -2.1186
 3800SOL    HW212211   1.592   1.817   1.462  0.9536  0.7341  0.1885
 3801SOL     OW12212   2.871   2.369   0.950 -0.0032  0.2595 -0.2015
 3801SOL    HW112213   2.871   2.312   0.873  2.0154  3.0881 -2.4801
 3801SOL    HW212214   2.792   2.423   0.941 -0.1819  0.0720  0.1868
 3802SOL     OW12215   0.299   1.144   3.976  0.2123  0.4230  0.4532
 3802SOL    HW112216   0.347   1.180   3.902 -2.3485  1.5114 -0.8114
 3802SOL    HW212217   0.317   1.205   4.048  0.9623  0.6268  0.0959
 3803SOL     OW12218   0.216   4.707   6.516 -0.1033 -0.2964  0.2283
 3803SOL    HW112219   0.218   4.613   6.498 -0.1930 -0.6086  1.6667
 3803SOL    HW212220   0.164   4.744   6.446  0.0617 -1.3005 -0.4473
 3804SOL     OW12221   7.243   7.849   1.613  0.4264 -0.0162  0.2008
 3804SOL    HW112222   7.275   7.759   1.617  1.3919  0.3131  0.1701
 3804SOL    HW212223   7.243   7.878   1.704  0.3564  0.0374  0.1839
 3805SOL     OW12224   2.042   7.819   2.802 -0.6810  0.0816  0.4761
 3805SOL    HW112225   2.054   7.910   2.773  1.4814 -0.6180 -1.1305
 3805SOL    HW212226   2.099   7.811   2.879 -0.4732 -0.0464  0.3089
 3806SOL     OW12227   4.480   4.539   4.508  0.1075 -0.1103  0.5948
 3806SOL    HW112228   4.409   4.519   4.447  1.5403  1.3503 -1.7168
 3806SOL    HW212229   4.438   4.544   4.593 -2.0945 -1.7939 -0.2808
 3807SOL     OW12230   6.251   2.330   6.503 -0.5054  0.2558 -0.7605
 3807SOL    HW112231   6.298   2.340   6.420 -0.1772 -0.1398 -0.6267
 3807SOL    HW212232   6.314   2.357   6.570 -0.3681 -0.5514 -0.5590
 3808SOL     OW12233   3.786   3.729   3.377  0.3820 -0.3214 -0.1322
 3808SOL    HW112234   3.704   3.679   3.373 -0.8126  1.4247  0.9556
 3808SOL    HW212235   3.845   3.683   3.317 -1.1543 -2.0516 -0.4129
 3809SOL     OW12236   2.065   3.642   7.689 -0.3666 -0.0995 -0.0191
 3809SOL    HW112237   2.035   3.659   7.600  2.0542 -1.0920 -1.0926
 3809SOL    HW212238   2.093   3.550   7.688  2.8934  0.7858  0.7354
 3810SOL     OW12239   1.370   0.434   3.278  0.1713  0.2730  0.6813
 3810SOL    HW112240   1.402   0.524   3.265  1.8721 -0.4151 -0.1615
 3810SOL    HW212241   1.330   0.410   3.194 -0.5617  0.3181  1.0031
 3811SOL     OW12242   6.726   3.816   2.534  0.4926  0.4901  0.0228
 3811SOL    HW112243   6.660   3.760   2.492  0.5650  0.0994  0.4254
 3811SOL    HW212244   6.755   3.766   2.610  0.6710  1.0144  0.3003
 3812SOL     OW12245   1.017   2.796   2.018  0.2374 -0.2467  0.0052
 3812SOL    HW112246   1.074   2.793   2.094  0.8609  0.1815 -0.4356
 3812SOL    HW212247   0.964   2.875   2.031 -0.1419 -0.5475  0.3256
 3813SOL     OW12248   6.453   6.584   1.480  0.0851 -0.0744  0.0536
 3813SOL    HW112249   6.362   6.562   1.459 -0.1695  1.7974 -1.0685
 3813SOL    HW212250   6.448   6.629   1.564 -0.3626  1.8814 -0.9628
 3814SOL     OW12251   2.943   5.903   3.619  0.1216 -0.1811  0.8667
 3814SOL    HW112252   3.002   5.829   3.633 -0.5709 -1.2656 -1.4677
 3814SOL    HW212253   2.991   5.961   3.561 -0.6758 -0.6044 -0.2590
 3815SOL     OW12254   7.627   6.370   0.794 -0.1424 -0.0632 -0.3112
 3815SOL    HW112255   7.600   6.439   0.854 -1.3004  0.0860 -0.9588
 3815SOL    HW212256   7.644   6.415   0.711 -0.1359 -0.4504 -0.5246
 3816SOL     OW12257   1.351   0.621   5.327 -0.2448  0.3875 -0.2255
 3816SOL    HW112258   1.288   0.565   5.373 -0.8620 -0.3676 -1.9009
 3816SOL    HW212259   1.437   0.590   5.356 -0.5639 -1.5936 -1.2226
 3817SOL     OW12260   2.756   0.836   6.295 -0.6501 -0.7748 -0.7119
 3817SOL    HW112261   2.811   0.907   6.329 -0.8719 -1.1964  0.5925
 3817SOL    HW212262   2.805   0.756   6.313 -1.0214 -1.0520 -0.9180
 3818SOL     OW12263   2.040   6.036   3.790 -0.2616  0.3467 -0.6486
 3818SOL    HW112264   2.058   6.032   3.696  0.1567  0.4865 -0.5773
 3818SOL    HW212265   2.123   6.062   3.829 -0.9390  2.3882 -0.4358
 3819SOL     OW12266   3.911   0.467   4.399  0.3296  0.3865  0.1292
 3819SOL    HW112267   3.911   0.518   4.480  0.1586 -0.0896  0.4313
 3819SOL    HW212268   3.878   0.528   4.333 -2.7146 -0.1509  1.0212
 3820SOL     OW12269   7.980   2.199   0.786 -0.2976 -0.0970 -0.2979
 3820SOL    HW112270   7.940   2.198   0.699 -2.9901 -1.2679  0.8498
 3820SOL    HW212271   7.994   2.107   0.807  0.0870  0.1653  0.6295
 3821SOL     OW12272   6.268   5.904   1.614  0.2553  0.2257 -0.0079
 3821SOL    HW112273   6.300   5.936   1.530 -0.4950  0.1349 -0.3376
 3821SOL    HW212274   6.277   5.809   1.608  0.3641  0.2297  0.0858
 3822SOL     OW12275   4.862   4.973   5.267 -0.2232  0.8470 -0.0988
 3822SOL    HW112276   4.873   5.068   5.275  0.3331  0.7521  0.2797
 3822SOL    HW212277   4.927   4.946   5.202 -0.4485  0.7395 -0.2803
 3823SOL     OW12278   2.102   4.201   2.001  0.6046 -0.0958 -0.2070
 3823SOL    HW112279   2.196   4.186   2.013  0.6807  0.8164  0.3816
 3823SOL    HW212280   2.068   4.115   1.976  1.4077 -0.7048  0.6952
 3824SOL     OW12281   2.654   2.076   1.981 -0.5942  0.5998 -0.2133
 3824SOL    HW112282   2.636   2.170   1.979  1.6676  1.0759 -0.2274
 3824SOL    HW212283   2.700   2.063   2.064  0.0240 -0.3217 -0.6931
 3825SOL     OW12284   4.952   7.768   3.799  0.5482  0.0118 -0.2828
 3825SOL    HW112285   4.987   7.822   3.870 -0.3177 -0.1419  0.2726
 3825SOL    HW212286   4.946   7.828   3.724  0.4363  0.4627  0.0826
 3826SOL     OW12287   5.520   4.561   7.472  0.4415  0.3363 -0.1675
 3826SOL    HW112288   5.477   4.524   7.395 -0.4610  0.4358  0.2823
 3826SOL    HW212289   5.504   4.655   7.465 -2.2497  0.1277  1.6424
 3827SOL     OW12290   3.352   1.951   4.348 -1.0079  0.6307 -0.2167
 3827SOL    HW112291   3.341   1.920   4.258  1.7017 -0.8001 -0.1420
 3827SOL    HW212292   3.410   2.026   4.341 -0.6406  0.4044  0.3477
 3828SOL     OW12293   6.683   1.234   4.666 -0.3675  0.0278  0.2051
 3828SOL    HW112294   6.708   1.169   4.732 -0.1852 -0.5049 -0.3866
 3828SOL    HW212295   6.759   1.242   4.609 -1.2559 -1.0978 -1.2057
 3829SOL     OW12296   0.067   2.795   5.525  0.2219  0.0456 -0.5702
 3829SOL    HW112297   0.158   2.802   5.497  0.8999  1.4986  1.7225
 3829SOL    HW212298   0.036   2.713   5.487  1.6318  0.7790 -3.6038
 3830SOL     OW12299   5.185   2.540   3.418 -0.7294 -0.0357  0.0896
 3830SOL    HW112300   5.187   2.463   3.360 -0.2098  0.1364 -0.1324
 3830SOL    HW212301   5.092   2.558   3.431 -0.8608 -0.8997  0.4101
 3831SOL     OW12302   3.441   3.802   2.654 -0.0052  0.1697 -0.1344
 3831SOL    HW112303   3.534   3.788   2.637 -0.1771 -1.0891 -0.0896
 3831SOL    HW212304   3.421   3.884   2.608  1.2601  0.8064  0.4039
 3832SOL     OW12305   3.792   5.985   6.115  0.5811 -0.2037  0.0216
 3832SOL    HW112306   3.849   5.910   6.096  0.1772  0.0589 -2.6297
 3832SOL    HW212307   3.774   6.023   6.029 -2.1859  0.7552  0.9368
 3833SOL     OW12308   5.146   1.046   6.832  0.7809 -0.3684  0.1056
 3833SOL    HW112309   5.135   0.974   6.770  2.3112  0.1658 -0.8421
 3833SOL    HW212310   5.148   1.124   6.777 -1.6248  0.5370  1.1791
 3834SOL     OW12311   7.366   5.064   0.712 -0.1039 -0.2038  0.4164
 3834SOL    HW112312   7.326   5.034   0.794 -1.4343 -0.0639 -0.1488
 3834SOL    HW212313   7.292   5.095   0.660  0.4648 -1.9608 -1.5705
 3835SOL     OW12314   0.944   7.432   1.997  0.3240 -0.1424  0.1432
 3835SOL    HW112315   0.909   7.370   1.934  0.5124 -1.1290  0.9845
 3835SOL    HW212316   1.016   7.385   2.040  1.7502  1.3245 -0.5366
 3836SOL     OW12317   7.561   5.514   4.251  0.1284 -0.2952  0.5626
 3836SOL    HW112318   7.543   5.479   4.164 -0.2715 -0.0420  0.5357
 3836SOL    HW212319   7.655   5.501   4.264  0.5302  1.0892 -0.5697
 3837SOL     OW12320   0.003   6.856   7.160  0.7473  0.3566  0.1114
 3837SOL    HW112321  -0.068   6.919   7.149 -0.3301 -0.9358 -0.7581
 3837SOL    HW212322  -0.009   6.794   7.088  0.1215 -2.3171  2.3505
 3838SOL     OW12323   6.614   2.717   3.067 -0.0713 -0.3096 -0.5508
 3838SOL    HW112324   6.626   2.802   3.024  2.6771 -0.1047  0.4358
 3838SOL    HW212325   6.614   2.654   2.995  2.1383  0.2231 -1.0883
 3839SOL     OW12326   5.172   5.518   7.424  0.3838 -0.3445 -0.3615
 3839SOL    HW112327   5.107   5.487   7.486 -0.3376  1.0674 -0.3682
 3839SOL    HW212328   5.256   5.512   7.471 -0.0747  0.1322  0.5364
 3840SOL     OW12329   7.811   7.284   7.305 -0.4208  0.1653  0.3930
 3840SOL    HW112330   7.878   7.323   7.248  0.3666 -1.8920 -0.1706
 3840SOL    HW212331   7.805   7.344   7.379 -0.1452  1.9658 -0.9738
 3841SOL     OW12332   4.675   2.739   6.877  0.4303 -0.3427  0.1150
 3841SOL    HW112333   4.731   2.806   6.917  0.7662 -1.2145  1.1253
 3841SOL    HW212334   4.609   2.789   6.829  0.4974  0.7232  1.0889
 3842SOL     OW12335   4.104   1.087   3.712  0.2041 -0.4181 -0.2001
 3842SOL    HW112336   4.140   1.003   3.682 -1.8803 -1.9353  1.2510
 3842SOL    HW212337   4.046   1.114   3.640  1.8220  0.4781 -1.2162
 3843SOL     OW12338   1.916   5.124   0.587  0.6955  0.3131 -0.2983
 3843SOL    HW112339   1.848   5.188   0.609  1.6776  0.7209  1.8405
 3843SOL    HW212340   1.996   5.176   0.578  1.0027 -0.3207 -1.3759
 3844SOL     OW12341   7.176   7.631   4.529  0.2955  0.0159 -0.5764
 3844SOL    HW112342   7.197   7.597   4.616 -1.9439  3.5568  1.6322
 3844SOL    HW212343   7.259   7.664   4.495  0.8765  0.6711  1.3295
 3845SOL     OW12344   1.107   5.881   0.990  0.2014 -0.2511 -0.4653
 3845SOL    HW112345   1.100   5.947   0.920  0.7804  0.0259 -0.2732
 3845SOL    HW212346   1.026   5.891   1.040  1.9512  3.3477  2.1497
 3846SOL     OW12347   3.601   7.514   4.493  0.4203 -0.0126  0.7212
 3846SOL    HW112348   3.514   7.554   4.492  0.3891 -0.0658 -0.2904
 3846SOL    HW212349   3.586   7.426   4.529 -0.3618 -0.8232 -1.3849
 3847SOL     OW12350   7.501   4.296   4.028  0.0720 -0.6243  0.1989
 3847SOL    HW112351   7.419   4.287   3.979  0.7738 -1.6058 -0.8606
 3847SOL    HW212352   7.562   4.335   3.965  1.5185 -3.5885 -0.4131
 3848SOL     OW12353   7.453   4.175   0.877  0.1155 -0.0241  0.1698
 3848SOL    HW112354   7.433   4.136   0.792 -1.4877 -2.8037  1.6740
 3848SOL    HW212355   7.547   4.161   0.888  0.4107  0.6918 -1.2593
 3849SOL     OW12356   2.053   2.531   2.288 -0.1504 -0.5073 -0.2863
 3849SOL    HW112357   2.016   2.588   2.355  0.1691  0.2315 -0.7230
 3849SOL    HW212358   2.091   2.458   2.337 -0.7822 -0.4732  0.2659
 3850SOL     OW12359   6.165   5.339   1.063  0.3004  0.3606 -0.0309
 3850SOL    HW112360   6.169   5.312   0.971  1.2044 -0.8478  0.3383
 3850SOL    HW212361   6.079   5.309   1.093 -0.4302  1.6610 -0.7153
 3851SOL     OW12362   2.491   0.762   6.032  0.2245 -0.9988  0.7004
 3851SOL    HW112363   2.580   0.750   5.999  0.2519 -2.7128  1.3300
 3851SOL    HW212364   2.476   0.687   6.089 -0.8088  0.4669  2.4513
 3852SOL     OW12365   1.430   1.665   1.307  0.2723 -0.3594 -0.1595
 3852SOL    HW112366   1.519   1.698   1.318  0.8811 -1.8311 -0.4311
 3852SOL    HW212367   1.410   1.622   1.390 -1.6887  3.1286  1.3978
 3853SOL     OW12368   3.515   6.509   6.834  0.0089  0.1958 -0.0825
 3853SOL    HW112369   3.475   6.425   6.857  0.6140 -0.3221 -0.8894
 3853SOL    HW212370   3.545   6.545   6.917 -0.8735 -0.0608  0.3580
 3854SOL     OW12371   3.365   4.285   3.093 -0.9682  0.4054  0.3394
 3854SOL    HW112372   3.375   4.337   3.014  0.1607  0.6502  0.6188
 3854SOL    HW212373   3.323   4.344   3.156 -0.0661  0.8632  0.5272
 3855SOL     OW12374   4.130   6.806   5.459 -0.2095 -0.9070  0.0766
 3855SOL    HW112375   4.080   6.882   5.488 -1.9515 -1.8948 -0.1659
 3855SOL    HW212376   4.120   6.743   5.531 -0.8206 -1.7561 -0.7310
 3856SOL     OW12377   7.816   0.179   6.386 -0.0719  0.4472 -0.1029
 3856SOL    HW112378   7.857   0.092   6.386 -0.0203  0.4172 -2.2924
 3856SOL    HW212379   7.889   0.240   6.392 -0.0042  0.3600 -0.0224
 3857SOL     OW12380   6.940   2.950   4.311 -0.3193 -0.5377  0.0136
 3857SOL    HW112381   6.881   2.962   4.236  0.5145 -0.7223 -0.6885
 3857SOL    HW212382   6.894   2.991   4.384  0.1187  2.3739 -1.2078
 3858SOL     OW12383   5.084   6.829   6.964 -0.0299  0.0735  0.2710
 3858SOL    HW112384   5.126   6.743   6.972 -1.9565 -0.9974 -0.5850
 3858SOL    HW212385   5.128   6.870   6.890  0.6874 -0.2902  0.4790
 3859SOL     OW12386   5.516   4.778   2.456 -0.6002 -0.1577  0.5143
 3859SOL    HW112387   5.480   4.738   2.377 -0.8150  0.3337  0.3572
 3859SOL    HW212388   5.469   4.737   2.528 -1.3418  0.3333  0.3208
 3860SOL     OW12389   5.793   5.940   1.262 -0.1787 -0.3365  0.5001
 3860SOL    HW112390   5.872   5.937   1.317  0.6441  1.5355 -0.4781
 3860SOL    HW212391   5.821   5.986   1.182 -2.1183 -0.1601 -0.1323
 3861SOL     OW12392   4.961   6.465   3.930 -0.8828  0.3437  0.3786
 3861SOL    HW112393   4.946   6.465   4.024  0.4039  0.0742  0.6092
 3861SOL    HW212394   5.045   6.420   3.919 -0.2548  1.7073 -0.7484
 3862SOL     OW12395   4.673   2.946   5.433  0.1922  0.1218  0.2438
 3862SOL    HW112396   4.735   2.970   5.363 -1.3851  0.9957 -0.9238
 3862SOL    HW212397   4.723   2.888   5.490  1.7854 -0.0009 -1.1827
 3863SOL     OW12398   7.191   7.343   1.857 -0.1610 -0.1920 -0.4489
 3863SOL    HW112399   7.246   7.272   1.890 -0.3947  0.4340  1.4358
 3863SOL    HW212400   7.109   7.334   1.905  0.3333  2.2030  1.0708
 3864SOL     OW12401   1.555   0.273   0.437  0.9247 -0.0060 -0.3477
 3864SOL    HW112402   1.508   0.324   0.503  0.0671 -0.9498 -0.2073
 3864SOL    HW212403   1.495   0.202   0.415  2.4875 -1.5837  0.2376
 3865SOL     OW12404   4.030   2.992   7.274 -0.4031  0.2719  0.2898
 3865SOL    HW112405   4.114   2.982   7.229  0.5535  1.4042  1.7269
 3865SOL    HW212406   4.052   2.984   7.367 -1.7551  1.3759  0.7380
 3866SOL     OW12407   6.426   5.857   5.751  0.1142 -0.1347  0.3586
 3866SOL    HW112408   6.414   5.949   5.774  0.7538 -0.0783  0.4861
 3866SOL    HW212409   6.340   5.816   5.766 -0.8402  0.8874 -1.8712
 3867SOL     OW12410   6.464   4.318   1.338  0.5555  0.0317  0.0553
 3867SOL    HW112411   6.549   4.317   1.381  0.4078  3.0131  0.6162
 3867SOL    HW212412   6.404   4.353   1.405 -0.2776  1.8385 -1.5357
 3868SOL     OW12413   0.462   4.499   2.341 -0.0734 -0.0278  0.0855
 3868SOL    HW112414   0.520   4.423   2.338  0.6591  0.5361 -0.7877
 3868SOL    HW212415   0.462   4.533   2.251 -0.0143  1.2583  0.5408
 3869SOL     OW12416   5.032   0.884   3.646  0.2195 -0.2193 -0.1812
 3869SOL    HW112417   4.984   0.819   3.697 -0.5017 -0.7090 -1.4380
 3869SOL    HW212418   5.114   0.841   3.622  0.3915 -0.1240  0.2268
 3870SOL     OW12419   5.186   7.618   3.774 -0.1814  0.2788 -0.2838
 3870SOL    HW112420   5.099   7.657   3.775 -0.6166 -0.6955  0.1281
 3870SOL    HW212421   5.246   7.693   3.781 -0.9887  0.9076  0.0046
 3871SOL     OW12422   6.517   0.321   5.843 -0.3592  0.1388 -0.2044
 3871SOL    HW112423   6.440   0.333   5.788 -0.2533  0.2788 -0.3219
 3871SOL    HW212424   6.494   0.248   5.900 -0.3540 -0.1988 -0.6327
 3872SOL     OW12425   4.613   1.178   0.020 -0.1274  0.0622  1.1369
 3872SOL    HW112426   4.525   1.172   0.056  0.6246 -0.4536  2.9768
 3872SOL    HW212427   4.663   1.109   0.064  1.5243  1.1775  1.1153
 3873SOL     OW12428   0.357   6.892   7.474  0.1397 -0.1145  0.2650
 3873SOL    HW112429   0.421   6.869   7.542  0.7175 -0.2068 -0.3102
 3873SOL    HW212430   0.298   6.954   7.518  0.8041  0.2203  0.7081
 3874SOL     OW12431   0.359   0.415   0.524 -0.4800 -0.4452  0.1872
 3874SOL    HW112432   0.384   0.408   0.432  3.8356  0.2819  1.0893
 3874SOL    HW212433   0.356   0.324   0.555 -0.3330 -0.6363 -0.3400
 3875SOL     OW12434   3.089   3.068   2.752  0.4681 -0.5920  0.2980
 3875SOL    HW112435   3.170   3.017   2.757  0.3515 -0.7183  0.9988
 3875SOL    HW212436   3.038   3.025   2.683  1.3376 -0.0048 -0.7436
 3876SOL     OW12437   2.615   0.305   0.406 -0.1355 -0.2857  0.3965
 3876SOL    HW112438   2.669   0.257   0.343  0.0074 -0.0192  0.3123
 3876SOL    HW212439   2.601   0.243   0.477  0.7523 -0.1876  0.6776
 3877SOL     OW12440   0.937   5.092   2.091  0.1773 -0.4455  0.4446
 3877SOL    HW112441   0.885   5.045   2.156 -0.9587 -1.2480 -0.9865
 3877SOL    HW212442   0.891   5.175   2.077  1.0951  0.2709  1.5232
 3878SOL     OW12443   3.715   1.337   7.578  0.4520 -0.3515  0.3783
 3878SOL    HW112444   3.689   1.354   7.668 -0.5055 -0.1015  0.0637
 3878SOL    HW212445   3.720   1.241   7.572  0.0062 -0.3853  0.5494
 3879SOL     OW12446   2.341   1.561   2.018  0.1330  0.5363 -0.1687
 3879SOL    HW112447   2.306   1.648   2.041 -1.3140  0.1829 -0.9062
 3879SOL    HW212448   2.436   1.574   2.016 -0.0077  1.9337  0.3998
 3880SOL     OW12449   1.967   3.052   3.830  0.0997 -0.0851  0.0459
 3880SOL    HW112450   2.001   3.105   3.902  0.1501 -2.4069  1.8795
 3880SOL    HW212451   1.885   3.094   3.805  0.0175  0.7246  1.5716
 3881SOL     OW12452   7.739   5.083   4.814  0.2169 -0.0922  0.4240
 3881SOL    HW112453   7.820   5.131   4.795 -0.5887  0.8616 -0.7196
 3881SOL    HW212454   7.720   5.037   4.732  0.3410 -1.4619  1.1353
 3882SOL     OW12455   7.088   3.771   6.622  0.0497  0.2576  0.5861
 3882SOL    HW112456   7.032   3.726   6.686  0.9808 -1.5007  0.2198
 3882SOL    HW212457   7.095   3.860   6.656 -3.8110  0.9268  0.1147
 3883SOL     OW12458   3.422   3.183   7.817 -0.5844 -0.4645  0.0734
 3883SOL    HW112459   3.469   3.267   7.814 -0.5745 -0.4356  0.7980
 3883SOL    HW212460   3.454   3.135   7.742  0.5288 -0.3959  0.4859
 3884SOL     OW12461   6.860   4.301   4.309 -0.5458  0.0727  0.1959
 3884SOL    HW112462   6.821   4.217   4.287 -1.4472  0.5209  0.0148
 3884SOL    HW212463   6.819   4.363   4.248 -0.1317  0.6913  0.5301
 3885SOL     OW12464   2.895   0.536   0.915  0.1850 -0.1898  0.5243
 3885SOL    HW112465   2.824   0.599   0.901  1.6645  1.7232  1.0734
 3885SOL    HW212466   2.861   0.474   0.978 -0.7451  1.1760  1.4170
 3886SOL     OW12467   0.854   0.505   6.787 -0.3033 -0.2635 -0.2542
 3886SOL    HW112468   0.830   0.566   6.857 -1.6932  0.4157 -1.2896
 3886SOL    HW212469   0.926   0.548   6.742 -1.1385  0.5370 -0.8483
 3887SOL     OW12470   0.944   4.972   0.713  0.4275  0.1027 -0.4261
 3887SOL    HW112471   0.914   5.061   0.693  0.6019  0.0979 -0.7086
 3887SOL    HW212472   0.864   4.919   0.712  0.2370  0.3594  0.3439
 3888SOL     OW12473   1.676   2.643   3.094  0.4883 -0.4303  0.4288
 3888SOL    HW112474   1.756   2.604   3.059 -0.2847 -1.4580 -0.2429
 3888SOL    HW212475   1.632   2.680   3.018  0.0851 -0.3039  0.7191
 3889SOL     OW12476   2.024   7.284   5.053  0.0785  0.0079 -0.1240
 3889SOL    HW112477   2.112   7.269   5.018 -0.1107 -1.2762 -0.1241
 3889SOL    HW212478   1.968   7.230   4.997 -0.6908  0.7085 -0.0313
 3890SOL     OW12479   7.215   3.980   0.928  0.4109  0.3318  0.0998
 3890SOL    HW112480   7.281   3.919   0.894  1.1594  0.4876  1.2237
 3890SOL    HW212481   7.198   4.039   0.855 -0.8363 -1.5707 -1.2540
 3891SOL     OW12482   5.083   5.117   5.510  0.7304 -0.2803 -0.0093
 3891SOL    HW112483   5.019   5.186   5.496  0.3109 -0.8057 -0.7667
 3891SOL    HW212484   5.089   5.108   5.606 -0.0771  0.0011  0.0697
 3892SOL     OW12485   1.433   2.977   2.551 -0.1555  0.0839  0.2197
 3892SOL    HW112486   1.459   3.047   2.610 -0.2510 -0.8645  1.4182
 3892SOL    HW212487   1.355   2.940   2.590 -0.9024  0.1634 -1.1226
 3893SOL     OW12488   6.110   7.949   4.857  0.1286 -0.8069  0.1147
 3893SOL    HW112489   6.104   7.876   4.796 -0.2541 -0.5967 -0.0969
 3893SOL    HW212490   6.143   8.022   4.804  0.0718 -0.7016  0.2247
 3894SOL     OW12491   0.756   1.569   4.979  0.5168  0.3247  0.2318
 3894SOL    HW112492   0.822   1.513   5.019  0.9802  1.5527  1.2499
 3894SOL    HW212493   0.798   1.603   4.900  0.8148  0.4436  0.4372
 3895SOL     OW12494   0.845   7.033   6.270  0.5277 -0.0941  0.6859
 3895SOL    HW112495   0.795   6.981   6.334 -0.2450  0.0829  0.2359
 3895SOL    HW212496   0.935   7.028   6.301  0.2635 -0.5838  1.4092
 3896SOL     OW12497   0.421   4.582   4.767  0.0536 -0.3330 -0.7482
 3896SOL    HW112498   0.469   4.537   4.699 -0.0515 -2.3758  0.4657
 3896SOL    HW212499   0.331   4.587   4.734 -0.0372 -1.4812 -0.7040
 3897SOL     OW12500   6.546   1.749   7.329  0.1074  0.2182  0.1086
 3897SOL    HW112501   6.631   1.714   7.354  0.3190  1.0528  0.6020
 3897SOL    HW212502   6.517   1.692   7.257 -0.2429 -1.8609  1.7996
 3898SOL     OW12503   5.358   6.518   0.385 -0.5900  0.0274 -0.1200
 3898SOL    HW112504   5.366   6.423   0.391 -0.3437  0.1029  0.9129
 3898SOL    HW212505   5.430   6.545   0.327  0.5837 -0.2530  1.1429
 3899SOL     OW12506   6.927   0.991   5.345 -0.0244 -0.8584  0.0090
 3899SOL    HW112507   6.969   1.052   5.285  1.5857  0.2348  2.1220
 3899SOL    HW212508   6.847   1.036   5.373  0.7302 -0.0287  0.9065
 3900SOL     OW12509   0.042   2.607   1.102  0.9008 -0.5181  0.1203
 3900SOL    HW112510  -0.042   2.626   1.143  0.4252 -1.6867 -0.2603
 3900SOL    HW212511   0.101   2.587   1.175  0.6318 -0.5038  0.3409
 3901SOL     OW12512   3.200   3.611   7.536 -0.1522  0.0101  0.4059
 3901SOL    HW112513   3.173   3.695   7.576 -1.0146 -0.1260  0.1382
 3901SOL    HW212514   3.142   3.546   7.576  0.2407 -0.4053  0.3102
 3902SOL     OW12515   6.586   2.195   1.310  0.0906  0.6849  0.3064
 3902SOL    HW112516   6.546   2.129   1.367  2.1740 -1.1221 -0.1577
 3902SOL    HW212517   6.645   2.243   1.367 -0.5825  1.4070  0.4058
 3903SOL     OW12518   4.436   7.984   1.141  0.2730 -0.3249  0.0048
 3903SOL    HW112519   4.365   8.008   1.081  0.1643  0.6070  0.4911
 3903SOL    HW212520   4.511   7.970   1.084 -1.0804 -5.4007 -1.0808
 3904SOL     OW12521   1.983   0.779   1.257  0.3749 -0.1322  0.5587
 3904SOL    HW112522   2.073   0.784   1.225 -0.0655 -0.9417 -0.9213
 3904SOL    HW212523   1.929   0.804   1.182 -0.6415  0.8954  1.5891
 3905SOL     OW12524   3.223   7.412   3.751 -0.3015 -0.5150  0.1480
 3905SOL    HW112525   3.159   7.465   3.800 -1.1719 -1.5546  0.1844
 3905SOL    HW212526   3.272   7.366   3.819 -1.5416 -1.9953  0.1032
 3906SOL     OW12527   3.640   4.367   6.445 -0.4475 -0.0183  0.6024
 3906SOL    HW112528   3.565   4.329   6.491 -1.2941  0.9762  0.0787
 3906SOL    HW212529   3.622   4.461   6.443  0.5292  0.1661 -0.0522
 3907SOL     OW12530   2.008   2.482   2.028 -0.3684 -0.7388  0.0149
 3907SOL    HW112531   2.007   2.502   2.122  0.0670 -1.5289  0.2028
 3907SOL    HW212532   2.006   2.386   2.025  0.3462 -0.7386 -0.7599
 3908SOL     OW12533   7.868   2.605   4.187  0.0846 -0.0348  0.3682
 3908SOL    HW112534   7.778   2.637   4.187 -0.5849 -1.7653 -0.6557
 3908SOL    HW212535   7.870   2.538   4.255  1.0008  0.9621  1.3459
 3909SOL     OW12536   6.393   7.676   1.505 -0.3371 -0.4293  0.2163
 3909SOL    HW112537   6.306   7.696   1.539 -1.0902 -0.7936 -1.4183
 3909SOL    HW212538   6.394   7.715   1.418  0.7555 -1.3249 -0.1945
 3910SOL     OW12539   1.128   2.284   7.989 -0.3299 -0.4976 -0.1138
 3910SOL    HW112540   1.080   2.350   8.038  0.4902  1.9331 -2.3761
 3910SOL    HW212541   1.060   2.232   7.946 -0.9878  0.9595 -0.8817
 3911SOL     OW12542   1.616   6.152   1.772 -0.1646 -0.3875 -0.3165
 3911SOL    HW112543   1.655   6.065   1.778 -0.5098 -0.6935 -2.0952
 3911SOL    HW212544   1.627   6.177   1.680  0.3878  1.6817  0.2660
 3912SOL     OW12545   0.327   5.580   7.391 -0.4093  1.1545 -0.7630
 3912SOL    HW112546   0.394   5.624   7.442  1.1405 -0.8685 -0.9144
 3912SOL    HW212547   0.368   5.565   7.306 -1.1165  0.0725 -0.9383
 3913SOL     OW12548   5.272   3.002   2.055  0.2303 -0.4793 -0.3525
 3913SOL    HW112549   5.176   2.999   2.061  0.1056  3.0215  1.7088
 3913SOL    HW212550   5.302   2.938   2.120 -0.6850 -1.0183 -0.4355
 3914SOL     OW12551   1.689   1.650   7.020  0.4618  0.2632  0.0137
 3914SOL    HW112552   1.619   1.713   7.038 -0.4434 -0.4025 -1.0052
 3914SOL    HW212553   1.670   1.576   7.078 -0.2292 -0.2825 -0.8659
 3915SOL     OW12554   5.011   5.353   4.338  0.2610 -0.7941 -0.0718
 3915SOL    HW112555   5.067   5.317   4.406  1.2225 -1.9722 -1.4001
 3915SOL    HW212556   5.065   5.351   4.259 -1.2876 -0.9454 -1.1877
 3916SOL     OW12557   4.357   1.668   6.003  0.0142  0.2562 -0.4232
 3916SOL    HW112558   4.436   1.683   6.055 -0.4348  0.2058  0.2898
 3916SOL    HW212559   4.322   1.756   5.988  0.9129  0.3931 -1.8976
 3917SOL     OW12560   5.194   0.394   0.577 -0.5121  0.1621 -0.6989
 3917SOL    HW112561   5.276   0.426   0.541 -1.5871  1.5314 -2.0462
 3917SOL    HW212562   5.157   0.338   0.509  0.1419 -2.0221  0.6475
 3918SOL     OW12563   2.888   6.672   2.732  0.4696 -0.1500 -0.4107
 3918SOL    HW112564   2.860   6.694   2.821  0.1744 -0.9369 -0.3033
 3918SOL    HW212565   2.964   6.615   2.744  0.9252  0.3877 -0.6809
 3919SOL     OW12566   0.768   0.817   2.100 -0.3453 -0.2693  0.3807
 3919SOL    HW112567   0.818   0.735   2.092 -0.6841 -0.7717  2.5961
 3919SOL    HW212568   0.700   0.810   2.033 -1.1925 -2.4876  1.3434
 3920SOL     OW12569   4.143   2.582   7.168 -0.0250  0.2015 -0.0849
 3920SOL    HW112570   4.159   2.488   7.168 -0.6934  0.0794  0.2479
 3920SOL    HW212571   4.048   2.590   7.160 -0.0136  0.8333  0.3283
 3921SOL     OW12572   4.182   4.811   1.661 -0.6058 -0.1404 -0.0105
 3921SOL    HW112573   4.116   4.871   1.626  0.9892  0.6148 -1.9146
 3921SOL    HW212574   4.131   4.740   1.700 -2.5678  0.1226 -1.8726
 3922SOL     OW12575   0.286   0.421   1.171 -0.3117 -0.1814  0.2023
 3922SOL    HW112576   0.200   0.414   1.129  0.1967  1.6370 -1.2568
 3922SOL    HW212577   0.348   0.414   1.098  0.8479 -1.8156  1.2713
 3923SOL     OW12578   4.013   3.679   3.937  0.3897  0.5160 -0.3141
 3923SOL    HW112579   4.006   3.702   4.029  0.1707 -0.7221 -0.0074
 3923SOL    HW212580   4.097   3.715   3.909  0.8946  0.0941  0.6231
 3924SOL     OW12581   6.679   2.095   1.790  1.0508 -0.0516  0.0575
 3924SOL    HW112582   6.618   2.111   1.862  0.7550  0.4389 -0.2908
 3924SOL    HW212583   6.759   2.141   1.816  0.5154  1.2607 -0.5057
 3925SOL     OW12584   1.900   0.892   1.997 -0.3788 -0.7835 -0.0083
 3925SOL    HW112585   1.988   0.885   2.034 -0.0791  2.7902  0.3400
 3925SOL    HW212586   1.842   0.860   2.066  0.4855  0.8046  1.5347
 3926SOL     OW12587   3.744   7.521   1.732  0.0255 -0.0288 -0.0084
 3926SOL    HW112588   3.731   7.613   1.753 -2.1837 -0.0905 -0.7244
 3926SOL    HW212589   3.664   7.497   1.684  1.6956 -1.6244 -2.1839
 3927SOL     OW12590   1.382   3.679   4.891  0.3308  0.5434 -0.4805
 3927SOL    HW112591   1.321   3.615   4.853 -1.0113  1.0404  0.7226
 3927SOL    HW212592   1.328   3.756   4.909  1.1203  0.7252  1.3466
 3928SOL     OW12593   1.513   3.430   6.411 -0.6601 -0.0273  0.5324
 3928SOL    HW112594   1.551   3.354   6.457  0.2544 -0.2924 -0.5991
 3928SOL    HW212595   1.486   3.395   6.326 -0.2965  0.8875  0.0249
 3929SOL     OW12596   0.399   0.499   3.485 -0.3543 -0.2044 -0.4636
 3929SOL    HW112597   0.324   0.448   3.515 -0.0094  0.6008  1.9455
 3929SOL    HW212598   0.360   0.574   3.439 -1.0793  0.3861  1.0624
 3930SOL     OW12599   4.681   4.147   5.602 -0.2503  0.4376 -0.2795
 3930SOL    HW112600   4.720   4.064   5.629  0.8974  1.4559  1.3705
 3930SOL    HW212601   4.752   4.211   5.611 -1.3989  1.7830 -0.4476
 3931SOL     OW12602   5.932   2.998   5.109  0.2675  0.1578  0.3578
 3931SOL    HW112603   5.839   3.010   5.129  0.1878 -0.2839  0.2668
 3931SOL    HW212604   5.933   2.928   5.044  0.7840 -1.1353  1.7069
 3932SOL     OW12605   6.916   7.674   1.185  0.3021 -0.0097  0.3505
 3932SOL    HW112606   6.830   7.668   1.227 -0.0139 -1.9920 -0.4566
 3932SOL    HW212607   6.975   7.704   1.254 -0.7017 -0.4422  1.4256
 3933SOL     OW12608   5.222   1.569   5.765 -0.4864  0.1034 -0.5030
 3933SOL    HW112609   5.238   1.476   5.753 -0.1858  0.0642  0.1740
 3933SOL    HW212610   5.151   1.589   5.703 -2.2454 -1.0965  0.9983
 3934SOL     OW12611   3.067   0.892   5.368 -0.6167 -0.0973  0.4904
 3934SOL    HW112612   3.157   0.921   5.356 -1.0769  0.3898 -2.5831
 3934SOL    HW212613   3.058   0.816   5.310 -2.0566 -0.4515  1.1189
 3935SOL     OW12614   7.550   1.956   2.073  0.1180  0.2078 -0.6865
 3935SOL    HW112615   7.519   2.003   2.150 -2.2571 -2.2225 -0.0313
 3935SOL    HW212616   7.538   2.019   2.001 -0.4933  1.4926  0.4899
 3936SOL     OW12617   6.227   0.208   0.275 -0.2880  0.2263 -0.3470
 3936SOL    HW112618   6.139   0.243   0.285 -0.8207 -0.8165 -1.1120
 3936SOL    HW212619   6.270   0.268   0.213 -0.6079  0.4758 -0.3293
 3937SOL     OW12620   6.910   3.421   3.444  0.0242 -0.3370  0.0513
 3937SOL    HW112621   6.957   3.356   3.392  0.8300  0.4782 -0.2701
 3937SOL    HW212622   6.834   3.445   3.391 -0.4391 -1.2121  0.3010
 3938SOL     OW12623   2.518   0.321   6.109 -0.4707  0.0195 -0.1250
 3938SOL    HW112624   2.571   0.378   6.053  0.1842 -0.5102 -0.0557
 3938SOL    HW212625   2.539   0.233   6.079  1.7337 -0.4689  2.4910
 3939SOL     OW12626   0.446   2.656   2.139  0.2071 -0.3198 -0.4817
 3939SOL    HW112627   0.411   2.618   2.058  0.2230 -0.7798 -0.2762
 3939SOL    HW212628   0.384   2.628   2.207 -1.5375  2.5363 -0.7157
 3940SOL     OW12629   6.144   2.549   1.434  0.1692 -0.3709 -0.4994
 3940SOL    HW112630   6.077   2.537   1.501  0.1548 -2.7694 -0.8579
 3940SOL    HW212631   6.227   2.537   1.480  0.1934 -1.1032 -0.7242
 3941SOL     OW12632   6.717   4.995   6.801 -0.5026  0.3436  0.5801
 3941SOL    HW112633   6.808   4.988   6.770  0.4561 -0.6586  3.3299
 3941SOL    HW212634   6.694   5.087   6.787  1.1256  0.7363  0.2847
 3942SOL     OW12635   5.636   7.764   2.515 -0.3740 -0.3622 -0.3315
 3942SOL    HW112636   5.647   7.705   2.440 -0.0057  0.4276 -0.9117
 3942SOL    HW212637   5.704   7.830   2.505 -0.7604  0.1546  0.3194
 3943SOL     OW12638   6.342   6.539   5.467  0.2625 -0.0204  0.2264
 3943SOL    HW112639   6.358   6.445   5.461  1.5123  0.1872  0.0187
 3943SOL    HW212640   6.386   6.575   5.390 -1.0966  0.6466 -0.2738
 3944SOL     OW12641   2.201   5.296   4.703  0.1440  0.1458  0.3141
 3944SOL    HW112642   2.178   5.300   4.796  0.3877  1.5490  0.3296
 3944SOL    HW212643   2.149   5.365   4.663 -0.2720 -0.7240 -0.6737
 3945SOL     OW12644   6.018   7.988   7.282 -0.0778 -0.2705 -0.2791
 3945SOL    HW112645   6.067   7.990   7.201  1.0389  0.3448  0.3895
 3945SOL    HW212646   6.044   7.907   7.325  2.2217  1.1017  1.1410
 3946SOL     OW12647   3.045   3.695   6.798  0.1630  0.0437 -0.0426
 3946SOL    HW112648   2.986   3.668   6.869  0.5704  0.2640  0.3868
 3946SOL    HW212649   3.059   3.616   6.747 -1.7171  0.3095 -1.0643
 3947SOL     OW12650   2.448   2.116   6.189  0.0640  0.1452  0.2503
 3947SOL    HW112651   2.422   2.034   6.231  0.5102 -0.1711 -0.0861
 3947SOL    HW212652   2.487   2.089   6.105 -0.7108  0.7622 -0.3192
 3948SOL     OW12653   0.019   5.699   3.076 -0.1538  0.2695 -0.4331
 3948SOL    HW112654  -0.010   5.634   3.139  0.0037  0.7991  0.1962
 3948SOL    HW212655  -0.060   5.719   3.025 -0.1011 -0.7246 -0.9293
 3949SOL     OW12656   3.750   0.999   3.029  0.3141  0.2012 -0.4141
 3949SOL    HW112657   3.730   1.061   3.100  2.5982 -1.4371  1.8362
 3949SOL    HW212658   3.668   0.951   3.016  0.1547 -0.3732  2.1626
 3950SOL     OW12659   7.427   6.996   7.639 -0.1495 -0.7053 -0.1468
 3950SOL    HW112660   7.469   6.988   7.724  0.5562 -0.7239 -0.4883
 3950SOL    HW212661   7.352   6.936   7.643  0.8354 -1.9780 -0.1023
 3951SOL     OW12662   4.808   7.935   4.738  0.5741  0.0374 -0.0473
 3951SOL    HW112663   4.838   7.976   4.819  0.4426 -1.8030  0.9788
 3951SOL    HW212664   4.713   7.929   4.748  0.5696 -0.2958 -0.2972
 3952SOL     OW12665   5.797   6.829   1.774  0.1817  0.4963  0.1732
 3952SOL    HW112666   5.761   6.918   1.775  0.3695  0.6289 -1.8018
 3952SOL    HW212667   5.726   6.774   1.741 -0.1378 -0.2317  1.9414
 3953SOL     OW12668   3.950   5.829   5.066 -0.5322 -0.3279 -0.0364
 3953SOL    HW112669   3.903   5.883   5.129 -0.8465 -1.2647  0.5461
 3953SOL    HW212670   3.909   5.848   4.982  0.3108  1.4240 -0.1032
 3954SOL     OW12671   5.477   5.642   1.993  0.0258 -0.3136  0.2961
 3954SOL    HW112672   5.514   5.721   1.952  1.9808 -0.1648  2.1623
 3954SOL    HW212673   5.403   5.619   1.937 -0.1712  2.4039 -0.7488
 3955SOL     OW12674   2.873   4.426   4.524  0.0619 -0.3778 -0.1450
 3955SOL    HW112675   2.913   4.340   4.507  1.5313  0.2972 -0.3005
 3955SOL    HW212676   2.866   4.467   4.438  0.1102 -0.0346  0.0120
 3956SOL     OW12677   4.152   6.258   0.546  0.0876 -0.0053  0.1465
 3956SOL    HW112678   4.112   6.340   0.519  2.3700  0.8757 -0.8829
 3956SOL    HW212679   4.164   6.209   0.464  0.1168 -0.7114  0.5605
 3957SOL     OW12680   7.705   2.588   6.477 -0.2306  0.3123  0.0816
 3957SOL    HW112681   7.758   2.655   6.520 -0.5475 -0.5231  1.8372
 3957SOL    HW212682   7.615   2.614   6.494 -0.3555 -0.7908  1.1954
 3958SOL     OW12683   3.022   7.004   1.328  0.7961  0.0331 -0.4894
 3958SOL    HW112684   2.931   7.031   1.334  0.8863  0.1385  0.7021
 3958SOL    HW212685   3.026   6.921   1.375  1.4771  0.5148  0.3451
 3959SOL     OW12686   0.159   1.132   4.821 -0.2436  0.5976 -0.0101
 3959SOL    HW112687   0.208   1.065   4.772 -0.7073  1.1667 -1.3042
 3959SOL    HW212688   0.201   1.214   4.798  1.1553  0.7113  2.5977
 3960SOL     OW12689   7.656   0.012   5.620 -0.5014 -0.0303  0.3823
 3960SOL    HW112690   7.579   0.068   5.631  0.7718  1.9398 -0.2125
 3960SOL    HW212691   7.698   0.012   5.705 -0.8192 -0.6133  0.5455
 3961SOL     OW12692   2.330   0.627   1.322 -0.4611 -0.5821 -0.4186
 3961SOL    HW112693   2.396   0.582   1.377 -2.4489 -2.4118  0.6154
 3961SOL    HW212694   2.305   0.704   1.374 -0.4293 -0.8653  0.0260
 3962SOL     OW12695   2.035   1.411   1.206 -0.3171  0.0688  0.2863
 3962SOL    HW112696   2.115   1.459   1.226  0.0156 -0.6987  0.8273
 3962SOL    HW212697   1.969   1.480   1.193 -0.0896  0.6693  2.0277
 3963SOL     OW12698   0.677   0.970   7.173  0.1411 -0.3062  0.2730
 3963SOL    HW112699   0.739   0.909   7.213  0.0297 -0.5379  0.0906
 3963SOL    HW212700   0.667   0.939   7.083  0.7802  0.5013 -0.0937
 3964SOL     OW12701   2.549   5.866   4.121 -0.6824 -0.1993 -0.5871
 3964SOL    HW112702   2.587   5.810   4.054 -1.0875  1.4312 -2.2715
 3964SOL    HW212703   2.460   5.884   4.089 -0.6712  1.0968  0.0669
 3965SOL     OW12704   0.046   6.929   6.051 -0.2813  0.0579  0.2941
 3965SOL    HW112705   0.005   6.875   5.983  0.9604 -0.5171 -0.0291
 3965SOL    HW212706  -0.023   6.944   6.115 -0.9514 -0.9872 -0.1635
 3966SOL     OW12707   4.227   5.039   6.629  0.1276 -0.1388  0.3129
 3966SOL    HW112708   4.299   5.067   6.684  0.4118 -0.7109  0.2420
 3966SOL    HW212709   4.156   5.100   6.649  0.4334  0.0515  0.8297
 3967SOL     OW12710   4.718   6.201   1.186 -0.1044 -0.3508  0.4125
 3967SOL    HW112711   4.740   6.108   1.185 -0.2242 -0.4017 -2.0425
 3967SOL    HW212712   4.741   6.232   1.099 -0.5144  1.8423  1.0276
 3968SOL     OW12713   3.062   6.222   3.091 -0.4080 -0.0066  0.1331
 3968SOL    HW112714   3.149   6.224   3.131 -0.6406 -2.1350  0.8377
 3968SOL    HW212715   3.049   6.131   3.064 -3.0479 -0.1326  1.5084
 3969SOL     OW12716   7.023   5.986   4.282 -0.3695 -0.3917 -0.1205
 3969SOL    HW112717   7.015   6.079   4.301  0.2552 -0.3994  0.2035
 3969SOL    HW212718   6.940   5.948   4.312 -0.5827  0.0417 -0.1564
 3970SOL     OW12719   5.246   4.456   4.876  0.0683 -0.6507  0.3071
 3970SOL    HW112720   5.321   4.431   4.822  0.7218 -0.3291  1.0492
 3970SOL    HW212721   5.242   4.389   4.944  1.0327  0.4890  1.5398
 3971SOL     OW12722   4.563   5.076   5.011 -0.8471 -0.3811  0.3521
 3971SOL    HW112723   4.652   5.109   5.024 -1.8064  1.6608  2.5964
 3971SOL    HW212724   4.562   4.993   5.057 -0.3898  0.1793  1.4178
 3972SOL     OW12725   7.399   3.399   0.554  0.2572 -0.3174 -0.4093
 3972SOL    HW112726   7.416   3.382   0.461 -0.0857 -1.3589 -0.2936
 3972SOL    HW212727   7.321   3.347   0.573  2.1278 -2.7222  1.2413
 3973SOL     OW12728   0.455   7.957   7.263  0.0396 -0.4811 -0.0862
 3973SOL    HW112729   0.547   7.977   7.280  0.0775 -1.8693  1.5714
 3973SOL    HW212730   0.406   8.020   7.317  0.0149 -0.2476 -0.3758
 3974SOL     OW12731   0.408   7.664   1.723 -0.5847  0.2180 -0.1801
 3974SOL    HW112732   0.426   7.711   1.642 -2.1476 -0.0138 -0.7028
 3974SOL    HW212733   0.474   7.594   1.725 -1.1163 -0.3907 -1.7825
 3975SOL     OW12734   6.366   6.973   5.187 -0.1144 -0.2523 -0.6600
 3975SOL    HW112735   6.371   6.923   5.269  1.7789 -0.2619 -0.7430
 3975SOL    HW212736   6.406   7.058   5.208  0.4383 -0.2726 -1.5757
 3976SOL     OW12737   0.690   4.465   7.484 -0.4495  0.3012  0.1771
 3976SOL    HW112738   0.730   4.483   7.569 -1.6532  2.7300  0.3128
 3976SOL    HW212739   0.607   4.424   7.504 -0.5030  0.3967  0.1512
 3977SOL     OW12740   3.801   6.335   6.955  0.4131 -0.1529  0.2519
 3977SOL    HW112741   3.893   6.310   6.964  0.5534  0.8266  1.9510
 3977SOL    HW212742   3.803   6.422   6.916  0.1189 -0.6735 -0.9875
 3978SOL     OW12743   0.243   4.775   4.056 -0.1360  0.3782  0.2438
 3978SOL    HW112744   0.200   4.842   4.109 -0.6696 -0.5793  1.0345
 3978SOL    HW212745   0.243   4.696   4.110 -0.0721 -0.4457 -0.9122
 3979SOL     OW12746   6.439   5.381   7.407 -0.0131  0.0642  0.4345
 3979SOL    HW112747   6.372   5.366   7.340  1.5016  0.4772 -1.2599
 3979SOL    HW212748   6.434   5.474   7.425 -0.6629 -0.1070  1.2137
 3980SOL     OW12749   1.168   4.614   7.062  0.0518 -0.2879 -0.5573
 3980SOL    HW112750   1.254   4.635   7.025  0.9484 -2.4465  0.1481
 3980SOL    HW212751   1.161   4.670   7.139  1.1460 -0.5721 -0.2304
 3981SOL     OW12752   3.028   3.044   3.410 -0.0025  0.1699 -0.0598
 3981SOL    HW112753   3.087   3.038   3.485  0.3768  1.7511 -0.2065
 3981SOL    HW212754   2.946   3.077   3.447 -0.5206 -1.0887 -0.0203
 3982SOL     OW12755   0.833   0.266   5.747  0.2986  0.3902  0.3387
 3982SOL    HW112756   0.794   0.340   5.699  0.6361  0.4400  0.1388
 3982SOL    HW212757   0.866   0.208   5.679  1.8771  1.0413  0.5011
 3983SOL     OW12758   4.235   1.239   0.764  0.0616  0.5889  0.4195
 3983SOL    HW112759   4.199   1.328   0.768 -0.5824  0.3435  0.3310
 3983SOL    HW212760   4.326   1.250   0.739  0.0293  1.2347  0.5803
 3984SOL     OW12761   1.008   4.425   5.778  0.3373  1.0622  0.7403
 3984SOL    HW112762   1.017   4.520   5.769  0.4537  1.0260  0.4570
 3984SOL    HW212763   0.918   4.412   5.807  0.4883  1.2914  1.3287
 3985SOL     OW12764   5.858   5.537   3.061 -0.0444  0.3151  0.2680
 3985SOL    HW112765   5.938   5.487   3.041 -0.8135 -0.8599  0.0243
 3985SOL    HW212766   5.795   5.470   3.088 -1.4263  1.0374 -1.0359
 3986SOL     OW12767   2.836   0.735   4.309 -0.4169 -0.3398 -0.7428
 3986SOL    HW112768   2.857   0.728   4.216  1.4783  1.5855 -0.5532
 3986SOL    HW212769   2.740   0.739   4.312 -0.6083 -2.1737 -2.4045
 3987SOL     OW12770   0.043   6.880   4.053 -0.5798 -0.2432  0.0685
 3987SOL    HW112771   0.105   6.809   4.038 -2.2670 -1.4135 -1.8265
 3987SOL    HW212772   0.063   6.910   4.141  2.2379 -0.9592 -0.2168
 3988SOL     OW12773   7.448   2.324   0.612 -0.0358  0.0186 -0.3189
 3988SOL    HW112774   7.502   2.342   0.689  0.9017 -1.8728 -0.4794
 3988SOL    HW212775   7.375   2.386   0.619  1.9044  2.4126  0.1020
 3989SOL     OW12776   2.484   1.015   5.627  0.7393  0.1686  0.2625
 3989SOL    HW112777   2.537   1.092   5.644  0.7952 -0.0538  1.1622
 3989SOL    HW212778   2.453   1.026   5.537  0.9315  1.1200  0.3055
 3990SOL     OW12779   4.000   7.486   1.615  0.2179  0.1088 -0.2440
 3990SOL    HW112780   4.022   7.395   1.632 -0.1144 -0.1309 -1.0503
 3990SOL    HW212781   3.932   7.507   1.679 -1.0575 -0.7934 -1.2440
 3991SOL     OW12782   2.564   4.080   3.993  0.2459 -0.3250 -0.1964
 3991SOL    HW112783   2.609   4.026   4.058  0.4865 -0.1223 -0.1877
 3991SOL    HW212784   2.620   4.158   3.985  0.2476 -0.3732 -0.6874
 3992SOL     OW12785   0.857   6.039   1.775  0.1179 -0.5419  0.0410
 3992SOL    HW112786   0.897   6.123   1.754 -0.4656  0.3730  2.2486
 3992SOL    HW212787   0.786   6.030   1.712 -1.1728  1.7332  1.0259
 3993SOL     OW12788   0.294   0.116   1.582  0.3318  0.3837 -0.1987
 3993SOL    HW112789   0.388   0.111   1.601  0.5372  0.9650 -1.0340
 3993SOL    HW212790   0.289   0.129   1.488 -0.5850  0.7082 -0.1132
 3994SOL     OW12791   4.540   5.853   7.237 -0.3732  0.1642 -0.1458
 3994SOL    HW112792   4.581   5.876   7.320 -0.5381 -0.7505  0.2079
 3994SOL    HW212793   4.487   5.929   7.214  1.1312  1.1881 -0.3780
 3995SOL     OW12794   4.860   1.763   7.388  0.0242 -0.5980 -0.2605
 3995SOL    HW112795   4.913   1.688   7.413 -0.1312 -0.3746  0.7935
 3995SOL    HW212796   4.774   1.746   7.427 -0.1559 -0.1123 -0.4375
 3996SOL     OW12797   2.268   2.654   3.376 -0.3296 -0.0991 -0.4373
 3996SOL    HW112798   2.215   2.617   3.305 -0.5571 -2.3827  0.8349
 3996SOL    HW212799   2.354   2.671   3.336  0.0467 -2.8529 -0.9597
 3997SOL     OW12800   0.282   7.380   5.864  0.1259  0.3296 -0.5338
 3997SOL    HW112801   0.211   7.342   5.914 -0.0971  0.8562 -0.4465
 3997SOL    HW212802   0.332   7.305   5.832  0.1626 -0.0172  0.3151
 3998SOL     OW12803   0.477   0.302   5.739 -0.3619  0.3549 -0.0151
 3998SOL    HW112804   0.512   0.246   5.808 -0.3085  0.1787 -0.1849
 3998SOL    HW212805   0.383   0.301   5.752 -0.4512 -0.6441 -0.6757
 3999SOL     OW12806   3.370   0.976   5.839 -0.5695  0.0568 -0.8872
 3999SOL    HW112807   3.322   0.928   5.771 -1.3866 -0.0391 -0.2626
 3999SOL    HW212808   3.436   1.026   5.791 -1.8473  0.8596 -1.8719
 4000SOL     OW12809   7.549   6.295   7.348 -0.0937 -0.1472  0.3322
 4000SOL    HW112810   7.550   6.320   7.256  2.2410 -1.5165 -0.0857
 4000SOL    HW212811   7.510   6.370   7.393 -0.1742  1.0451 -1.6174
 4001SOL     OW12812   6.912   0.121   4.405 -0.4767  0.5239  0.3776
 4001SOL    HW112813   6.958   0.051   4.358 -3.0602 -1.9801  1.2349
 4001SOL    HW212814   6.980   0.163   4.458  1.4304 -0.4685 -1.1424
 4002SOL     OW12815   1.525   2.618   3.332 -0.4333  0.1411 -0.1924
 4002SOL    HW112816   1.569   2.678   3.392 -1.1772  0.1577  0.3515
 4002SOL    HW212817   1.578   2.620   3.252  0.7218 -0.0675  0.5359
 4003SOL     OW12818   6.041   2.995   0.584 -0.2639  0.5206  0.3402
 4003SOL    HW112819   6.129   2.987   0.621 -0.1600 -2.2245 -0.3091
 4003SOL    HW212820   6.033   2.922   0.523 -2.7771  1.0793 -0.1255
 4004SOL     OW12821   3.722   6.035   0.073 -0.2269 -1.0304  0.0817
 4004SOL    HW112822   3.755   6.037   0.163  1.1482  0.3557 -0.4383
 4004SOL    HW212823   3.800   6.034   0.018 -1.0330 -0.0216 -1.1326
 4005SOL     OW12824   7.859   3.717   3.065 -0.5379 -0.0424  0.7607
 4005SOL    HW112825   7.778   3.756   3.032  0.8071  2.6140  0.3200
 4005SOL    HW212826   7.928   3.777   3.035  1.3731 -0.9806  3.0233
 4006SOL     OW12827   5.376   6.006   5.447 -0.1650 -0.3037 -0.3592
 4006SOL    HW112828   5.405   5.939   5.385 -1.9999  0.0902 -1.7012
 4006SOL    HW212829   5.339   5.957   5.520 -1.2993 -0.7844 -1.2357
 4007SOL     OW12830   7.708   2.693   1.797 -0.1917  0.0072 -0.3088
 4007SOL    HW112831   7.626   2.707   1.845  0.8150  0.3878  1.3723
 4007SOL    HW212832   7.721   2.598   1.799 -0.1335  0.0245  0.2219
 4008SOL     OW12833   0.276   0.937   1.320  0.5975  0.3089 -0.1247
 4008SOL    HW112834   0.242   0.969   1.237 -0.8195 -0.1453  0.2396
 4008SOL    HW212835   0.254   0.843   1.320 -0.4199  0.5135  1.1927
 4009SOL     OW12836   7.205   8.000   4.630 -0.4264  0.0060 -0.4068
 4009SOL    HW112837   7.283   7.963   4.587  0.8996  0.2725  1.6127
 4009SOL    HW212838   7.134   7.942   4.604  0.3183 -0.0422 -2.6335
 4010SOL     OW12839   5.472   0.920   7.983  0.0247  0.4633  0.0684
 4010SOL    HW112840   5.425   0.869   8.050 -1.1388  1.4935  0.0881
 4010SOL    HW212841   5.421   1.001   7.975 -0.1563  0.1818 -2.4134
 4011SOL     OW12842   4.753   1.160   7.104  0.1027  0.7034  0.4727
 4011SOL    HW112843   4.846   1.138   7.098  0.3592  1.4870  1.3692
 4011SOL    HW212844   4.733   1.206   7.023  0.0841 -0.8740 -0.4557
 4012SOL     OW12845   0.561   6.731   2.505  0.1694 -0.2274  0.7331
 4012SOL    HW112846   0.627   6.738   2.574 -0.9478 -2.3024  2.1435
 4012SOL    HW212847   0.484   6.775   2.541 -0.2839 -0.9182  0.6211
 4013SOL     OW12848   5.119   2.382   4.513 -0.5088  0.2685  0.2525
 4013SOL    HW112849   5.166   2.302   4.487 -0.8394  0.4314 -0.8980
 4013SOL    HW212850   5.117   2.436   4.435  0.3765  1.7733  1.2151
 4014SOL     OW12851   3.151   2.181   1.338  0.1612 -0.1803  0.1826
 4014SOL    HW112852   3.084   2.249   1.350  0.0223 -0.2034 -0.4372
 4014SOL    HW212853   3.216   2.221   1.280 -1.2976 -1.4652 -2.5401
 4015SOL     OW12854   0.879   4.069   7.968  0.6483 -0.0794 -0.2765
 4015SOL    HW112855   0.843   4.077   8.056  0.5781  0.2604 -0.3363
 4015SOL    HW212856   0.854   3.981   7.940  2.6391 -1.1031  0.9203
 4016SOL     OW12857   5.271   6.274   6.908  0.1475  0.1566 -0.2084
 4016SOL    HW112858   5.332   6.266   6.982  3.4759  1.3172 -2.6151
 4016SOL    HW212859   5.270   6.188   6.868  0.1257  0.1067 -0.0996
 4017SOL     OW12860   2.987   6.373   0.321 -0.1759  0.2496  0.1000
 4017SOL    HW112861   2.972   6.351   0.229  0.5403 -2.5844  0.5750
 4017SOL    HW212862   3.068   6.424   0.320  0.9486 -1.4517 -0.7176
 4018SOL     OW12863   6.126   7.575   0.874  0.4546  0.1716 -0.1389
 4018SOL    HW112864   6.087   7.662   0.890 -1.0297 -0.7018  1.4097
 4018SOL    HW212865   6.093   7.550   0.788 -0.4715  0.4866  0.1061
 4019SOL     OW12866   4.260   4.682   0.132 -0.1571  0.1166 -0.3894
 4019SOL    HW112867   4.298   4.725   0.208 -1.5011  1.5035 -0.4409
 4019SOL    HW212868   4.323   4.695   0.061  0.0545  0.8472 -0.0640
 4020SOL     OW12869   4.110   2.395   0.315 -0.0182 -0.2140  0.1694
 4020SOL    HW112870   4.033   2.451   0.311 -0.9536 -1.4735  0.0040
 4020SOL    HW212871   4.169   2.433   0.249 -1.3459 -0.4323 -1.2173
 4021SOL     OW12872   1.434   1.629   6.560  0.1219 -0.0311  0.0017
 4021SOL    HW112873   1.473   1.701   6.609  1.0671 -3.1573  4.5220
 4021SOL    HW212874   1.509   1.577   6.530 -0.5371 -0.5748 -0.7449
 4022SOL     OW12875   7.234   6.594   4.169 -0.4167 -0.2592 -0.1402
 4022SOL    HW112876   7.329   6.585   4.175 -0.5740 -1.8057  0.4627
 4022SOL    HW212877   7.207   6.528   4.105 -1.0988  0.1088 -0.2419
 4023SOL     OW12878   6.769   0.100   5.798 -0.3004 -0.4364 -0.7363
 4023SOL    HW112879   6.767   0.071   5.707 -0.1826  0.0866 -0.9075
 4023SOL    HW212880   6.678   0.089   5.828 -0.4526 -0.1337 -1.0713
 4024SOL     OW12881   5.341   4.828   7.497  0.3041 -0.2217 -0.4294
 4024SOL    HW112882   5.414   4.828   7.560  0.2390 -0.1124 -0.3542
 4024SOL    HW212883   5.304   4.740   7.504 -1.3972  0.5708  1.6377
 4025SOL     OW12884   3.753   6.710   1.037  0.1847  0.6970  0.2555
 4025SOL    HW112885   3.824   6.661   1.078  0.8415  2.2664  1.0811
 4025SOL    HW212886   3.795   6.789   1.003 -1.1563  1.6561  0.7448
 4026SOL     OW12887   6.275   4.726   2.765  0.1046 -0.2050 -0.2301
 4026SOL    HW112888   6.235   4.723   2.678 -0.9226  1.9877  0.0946
 4026SOL    HW212889   6.215   4.675   2.820 -1.7672  2.1269  0.0246
 4027SOL     OW12890   1.688   1.668   0.244 -0.3093  0.2368 -0.0654
 4027SOL    HW112891   1.769   1.717   0.258 -0.2928  0.3123 -0.4192
 4027SOL    HW212892   1.716   1.577   0.236 -0.1154  0.4039 -1.4673
 4028SOL     OW12893   3.532   5.765   0.867 -0.4688 -0.0123  0.4442
 4028SOL    HW112894   3.438   5.785   0.863 -0.3026  0.9439  0.8542
 4028SOL    HW212895   3.537   5.684   0.919 -1.0176  0.4785  1.2960
 4029SOL     OW12896   7.678   7.815   1.523 -0.3074 -0.5038  0.0706
 4029SOL    HW112897   7.733   7.892   1.540  0.6442 -1.7301  3.2697
 4029SOL    HW212898   7.739   7.745   1.503 -1.0278 -0.9196 -0.7277
 4030SOL     OW12899   7.406   3.653   0.942 -0.3392 -0.0849 -0.0262
 4030SOL    HW112900   7.435   3.564   0.925 -1.1578 -0.3029 -0.3151
 4030SOL    HW212901   7.486   3.699   0.969  0.2900 -0.6430 -0.8657
 4031SOL     OW12902   5.583   0.779   2.941  0.6670  0.4485 -0.0509
 4031SOL    HW112903   5.574   0.694   2.986  1.2319 -0.2760 -1.2564
 4031SOL    HW212904   5.493   0.806   2.922  0.5016 -1.3438 -2.2401
 4032SOL     OW12905   5.231   2.962   3.111 -0.1277  0.2304  0.3229
 4032SOL    HW112906   5.170   2.898   3.074  1.3681 -0.8442 -0.3799
 4032SOL    HW212907   5.272   2.916   3.184  0.1305  0.7951  0.5346
 4033SOL     OW12908   6.547   4.046   1.731 -0.5795 -0.1348  0.3426
 4033SOL    HW112909   6.456   4.045   1.703 -0.1638 -1.3565 -1.1150
 4033SOL    HW212910   6.582   3.960   1.704  0.6157 -0.3044  2.2161
 4034SOL     OW12911   7.940   5.583   2.507 -0.2769 -0.0537  0.0980
 4034SOL    HW112912   8.022   5.630   2.524  0.1290 -0.4312 -0.7639
 4034SOL    HW212913   7.950   5.500   2.553  0.9758 -1.2301 -2.1060
 4035SOL     OW12914   4.502   4.835   0.003  0.6213  0.8121  0.1775
 4035SOL    HW112915   4.501   4.866  -0.087  2.4207  2.1737  0.5629
 4035SOL    HW212916   4.448   4.897   0.051 -0.6508 -0.1303  0.0122
 4036SOL     OW12917   6.699   0.617   5.434 -0.0610  0.4380  0.5239
 4036SOL    HW112918   6.696   0.535   5.483 -2.1737  1.3223  2.0010
 4036SOL    HW212919   6.750   0.676   5.490  0.4311  0.5033  0.0181
 4037SOL     OW12920   7.895   3.489   2.628  0.4490 -0.0762 -0.1706
 4037SOL    HW112921   7.884   3.394   2.636  0.7932 -0.1262 -0.3084
 4037SOL    HW212922   7.931   3.502   2.541  2.4677  0.0022  0.6278
 4038SOL     OW12923   6.530   4.658   4.260 -0.6521  0.8192  0.0155
 4038SOL    HW112924   6.558   4.746   4.235  2.4531 -0.0739  0.0081
 4038SOL    HW212925   6.544   4.654   4.354  0.5763 -0.0732 -0.1867
 4039SOL     OW12926   5.295   6.200   6.112 -0.2863  0.4625  0.1098
 4039SOL    HW112927   5.204   6.230   6.123 -0.7052 -1.2430  1.7991
 4039SOL    HW212928   5.287   6.107   6.091  1.0809  0.3974 -0.1794
 4040SOL     OW12929   3.026   5.693   4.358  0.1652 -0.3326 -0.0461
 4040SOL    HW112930   3.063   5.757   4.419 -3.2493 -0.5203  2.5303
 4040SOL    HW212931   2.944   5.733   4.329 -0.3330 -2.0856 -1.2079
 4041SOL     OW12932   3.157   7.131   5.501 -0.2832 -0.0859  0.1822
 4041SOL    HW112933   3.209   7.211   5.498  0.4799 -0.4967  1.5822
 4041SOL    HW212934   3.193   7.082   5.574 -1.1597 -1.4319 -0.2542
 4042SOL     OW12935   5.394   4.884   3.818 -0.0793  0.0411 -0.6913
 4042SOL    HW112936   5.449   4.953   3.780  2.1292 -0.9846  0.4739
 4042SOL    HW212937   5.442   4.803   3.803 -1.8758 -1.0916 -0.6597
 4043SOL     OW12938   5.636   6.361   3.086 -0.5695  0.6230 -0.1055
 4043SOL    HW112939   5.715   6.358   3.140 -0.6894 -1.4033  0.0400
 4043SOL    HW212940   5.624   6.453   3.067  2.6808  0.9300 -1.3864
 4044SOL     OW12941   6.584   4.180   5.644  0.1067  0.4348  0.5227
 4044SOL    HW112942   6.593   4.088   5.669  0.1175  0.7071  1.5558
 4044SOL    HW212943   6.587   4.179   5.548  0.0373 -0.6449  0.5184
 4045SOL     OW12944   0.858   4.106   4.376  0.0963 -0.1940  0.2866
 4045SOL    HW112945   0.879   4.018   4.343 -0.3277  0.2299 -1.1580
 4045SOL    HW212946   0.798   4.089   4.449  0.6349 -1.1256  0.5433
 4046SOL     OW12947   3.391   7.936   5.171  0.0873 -0.0913  0.0980
 4046SOL    HW112948   3.458   7.983   5.121 -0.1744 -0.4210 -0.5733
 4046SOL    HW212949   3.419   7.945   5.263 -1.0773  3.1946  0.2491
 4047SOL     OW12950   4.633   2.527   3.088  0.6001  0.1227 -0.4396
 4047SOL    HW112951   4.614   2.441   3.049 -1.6411  1.1550 -1.8653
 4047SOL    HW212952   4.581   2.528   3.168 -0.2043  0.4883 -0.9498
 4048SOL     OW12953   2.604   4.037   1.893  0.4443 -0.1321 -0.7045
 4048SOL    HW112954   2.671   4.038   1.961  0.5872 -2.9144 -0.7298
 4048SOL    HW212955   2.582   3.945   1.881 -1.8106  0.5174 -2.2695
 4049SOL     OW12956   3.412   6.277   6.899  0.0479 -0.0203  0.1083
 4049SOL    HW112957   3.388   6.279   6.807  0.3774  1.4105  0.0260
 4049SOL    HW212958   3.463   6.197   6.909  0.2360 -0.0559 -1.0110
 4050SOL     OW12959   6.563   3.012   0.024  0.1071 -0.1006 -0.3132
 4050SOL    HW112960   6.577   3.052   0.109  0.2406  1.3890 -1.0126
 4050SOL    HW212961   6.645   3.026  -0.024 -0.3054 -0.0519 -1.0247
 4051SOL     OW12962   5.181   6.266   5.700 -0.5101  0.3545 -0.3838
 4051SOL    HW112963   5.180   6.319   5.620  0.4829 -2.1752 -2.2453
 4051SOL    HW212964   5.126   6.191   5.679 -0.0030 -0.5029  1.2060
 4052SOL     OW12965   5.211   6.881   6.287 -0.4547 -0.6116 -0.4574
 4052SOL    HW112966   5.139   6.904   6.229 -0.2971 -0.9171 -0.7793
 4052SOL    HW212967   5.173   6.884   6.375 -0.4350  0.9067 -0.4641
 4053SOL     OW12968   7.399   4.468   4.727  0.3827  0.6516  0.1319
 4053SOL    HW112969   7.306   4.491   4.726  0.3714  0.5972 -0.0584
 4053SOL    HW212970   7.438   4.520   4.656  0.7521  1.7442  1.0975
 4054SOL     OW12971   5.766   2.564   1.820 -0.0319 -0.3479 -0.1598
 4054SOL    HW112972   5.837   2.608   1.868 -1.1504 -1.0014  2.2640
 4054SOL    HW212973   5.739   2.493   1.878 -3.2859  0.4565 -0.5241
 4055SOL     OW12974   2.192   1.559   5.095  0.4913 -0.0089  0.0669
 4055SOL    HW112975   2.188   1.606   5.178 -2.8244  0.6755 -0.3509
 4055SOL    HW212976   2.222   1.624   5.031  0.4276  0.2047  0.2559
 4056SOL     OW12977   4.746   6.535   4.521  1.1996  0.3939 -0.7170
 4056SOL    HW112978   4.750   6.480   4.443  2.5440 -0.0710 -0.3357
 4056SOL    HW212979   4.680   6.493   4.577 -0.0573  0.9462 -1.7371
 4057SOL     OW12980   3.362   4.160   6.069  0.0842  0.4602  0.2130
 4057SOL    HW112981   3.434   4.104   6.099  1.1288  0.8909 -1.3810
 4057SOL    HW212982   3.284   4.117   6.103  1.0260 -0.4231  1.3862
 4058SOL     OW12983   1.763   4.795   1.922  0.9658  0.0938 -0.4994
 4058SOL    HW112984   1.855   4.798   1.893  0.7652  0.7958 -1.1210
 4058SOL    HW212985   1.714   4.771   1.843  0.7686 -2.2336  0.2773
 4059SOL     OW12986   6.730   4.297   2.028  0.4011  0.0358 -0.8459
 4059SOL    HW112987   6.665   4.367   2.025  1.2940  0.8794 -1.7136
 4059SOL    HW212988   6.742   4.278   2.121  0.1684  1.0788 -0.5916
 4060SOL     OW12989   7.252   3.739   3.391  0.7130  0.7291  0.0026
 4060SOL    HW112990   7.301   3.799   3.447 -0.4412  0.8778  0.9062
 4060SOL    HW212991   7.193   3.796   3.341  1.2857  0.5381 -0.9157
 4061SOL     OW12992   1.786   2.043   3.037  0.2944  0.1546  0.2731
 4061SOL    HW112993   1.693   2.065   3.032  0.1894 -0.5177 -1.7574
 4061SOL    HW212994   1.824   2.110   3.095 -1.2543  1.1034  0.2388
 4062SOL     OW12995   4.535   0.900   1.470  0.1077 -0.4996 -0.1907
 4062SOL    HW112996   4.525   0.990   1.502 -1.3839 -0.3925 -0.8537
 4062SOL    HW212997   4.594   0.859   1.532  3.0088  1.6363 -1.3105
 4063SOL     OW12998   6.962   4.812   4.813  0.3514  0.3458 -0.0633
 4063SOL    HW112999   6.952   4.844   4.723 -0.3211  0.1079 -0.0761
 4063SOL    HW213000   6.873   4.809   4.848  0.6296  0.6214  0.6802
 4064SOL     OW13001   1.196   3.336   3.276 -0.4248 -0.7388 -0.7085
 4064SOL    HW113002   1.109   3.377   3.280 -0.7898 -1.4981 -0.6990
 4064SOL    HW213003   1.227   3.354   3.188  0.7834  2.2652  0.2090
 4065SOL     OW13004   0.359   0.104   0.711  0.3031  0.1701 -0.2538
 4065SOL    HW113005   0.339   0.046   0.785  0.2918  1.3744  0.7134
 4065SOL    HW213006   0.305   0.070   0.640 -1.0168  0.0108  0.7750
 4066SOL     OW13007   0.580   5.979   0.253  0.7277 -0.2531  0.0511
 4066SOL    HW113008   0.521   5.918   0.209 -0.2500  2.1764 -2.3001
 4066SOL    HW213009   0.642   6.006   0.185  1.7310  0.6398  1.2804
 4067SOL     OW13010   6.394   0.349   1.094  0.5941  0.1698  0.1199
 4067SOL    HW113011   6.405   0.254   1.086 -0.1900  0.1182 -0.5917
 4067SOL    HW213012   6.482   0.382   1.109  0.9565 -0.6300 -0.1428
 4068SOL     OW13013   1.502   4.096   3.089  0.4414 -0.1787 -0.3559
 4068SOL    HW113014   1.407   4.085   3.084  0.1786  1.3311  0.6533
 4068SOL    HW213015   1.523   4.154   3.017  0.1955  1.5514  0.9073
 4069SOL     OW13016   2.686   3.813   3.443  0.5908  0.7308 -0.3643
 4069SOL    HW113017   2.619   3.780   3.503  0.9794 -0.4741 -0.5671
 4069SOL    HW213018   2.649   3.893   3.407 -1.1413 -0.3354 -1.1030
 4070SOL     OW13019   3.220   7.684   1.434 -0.1936 -0.1826 -0.4147
 4070SOL    HW113020   3.235   7.700   1.341  2.1782  0.2427 -0.0230
 4070SOL    HW213021   3.266   7.602   1.453 -2.4766 -1.4715  0.0045
 4071SOL     OW13022   0.234   0.901   3.224  0.2585  0.2628  0.2859
 4071SOL    HW113023   0.263   0.817   3.259 -1.0328  0.1008  1.0134
 4071SOL    HW213024   0.183   0.878   3.146  0.3199  0.4078  0.2024
 4072SOL     OW13025   7.177   5.876   3.431 -1.1881 -0.6134 -1.1551
 4072SOL    HW113026   7.136   5.815   3.370 -0.0238  0.3148 -2.9562
 4072SOL    HW213027   7.148   5.962   3.402 -0.0730 -0.1060 -0.8238
 4073SOL     OW13028   5.365   7.015   6.558 -0.1383  0.4086 -0.0382
 4073SOL    HW113029   5.332   6.929   6.584  1.1444  0.0154  0.3689
 4073SOL    HW213030   5.452   6.997   6.520  0.3789  1.5708  0.5376
 4074SOL     OW13031   1.461   0.540   6.355 -0.3911 -0.1097  0.2717
 4074SOL    HW113032   1.490   0.463   6.403  0.4947 -0.1089 -0.2243
 4074SOL    HW213033   1.500   0.530   6.268 -0.7470  0.6070  0.0190
 4075SOL     OW13034   1.018   3.036   7.155  0.2909 -0.2985 -0.4116
 4075SOL    HW113035   0.951   3.103   7.144  0.6546  0.0911 -0.2720
 4075SOL    HW213036   1.076   3.048   7.079 -0.1425 -1.0436 -0.8732
 4076SOL     OW13037   0.856   7.534   0.774  0.1786 -0.0954  0.3866
 4076SOL    HW113038   0.885   7.606   0.830  0.9906 -0.3331  0.2874
 4076SOL    HW213039   0.937   7.497   0.739 -0.2246 -1.0721  0.4534
 4077SOL     OW13040   2.119   3.850   7.048 -0.3642 -0.5285  0.0140
 4077SOL    HW113041   2.083   3.787   6.985 -0.0889 -1.1016  0.4222
 4077SOL    HW213042   2.046   3.871   7.105 -0.0056 -1.9443  1.0442
 4078SOL     OW13043   5.151   1.287   7.884  0.7453 -0.1584  0.3197
 4078SOL    HW113044   5.192   1.252   7.963  0.4469  2.0330  1.5152
 4078SOL    HW213045   5.128   1.377   7.906 -1.3066 -0.1257 -1.5744
 4079SOL     OW13046   1.203   7.633   7.571 -0.6646  0.1674  0.1899
 4079SOL    HW113047   1.208   7.622   7.666 -1.1573  1.5025  0.3940
 4079SOL    HW213048   1.109   7.633   7.552 -0.7660  3.3202  0.2025
 4080SOL     OW13049   6.899   2.816   1.226 -0.1637 -0.0217 -0.1797
 4080SOL    HW113050   6.833   2.881   1.202 -0.9178 -0.5996  0.2633
 4080SOL    HW213051   6.913   2.765   1.146  1.8636  1.8355 -1.1124
 4081SOL     OW13052   1.485   3.482   1.591 -0.5734  0.2561 -0.2295
 4081SOL    HW113053   1.560   3.541   1.576  1.1181 -1.8491 -0.4781
 4081SOL    HW213054   1.488   3.464   1.685 -0.7476  0.1298 -0.2483
 4082SOL     OW13055   4.770   7.788   1.551  0.5898  0.5749  0.0103
 4082SOL    HW113056   4.780   7.802   1.457 -0.3160  1.3090  0.0025
 4082SOL    HW213057   4.676   7.802   1.567  0.3234 -1.6715  0.6890
 4083SOL     OW13058   4.285   7.904   6.220  0.7040 -0.2361 -0.0125
 4083SOL    HW113059   4.337   7.927   6.143  2.0211  3.5376  1.7615
 4083SOL    HW213060   4.350   7.871   6.283  0.3072  0.4598  0.7782
 4084SOL     OW13061   3.061   0.754   5.653  0.0062 -0.7596  0.2107
 4084SOL    HW113062   3.074   0.785   5.742  1.6214 -2.1881  0.5248
 4084SOL    HW213063   2.966   0.744   5.644 -0.2412  0.2647  1.4334
 4085SOL     OW13064   4.806   5.104   5.838 -0.3663 -0.1357  1.1948
 4085SOL    HW113065   4.829   5.111   5.746 -0.7806  1.9063  1.1904
 4085SOL    HW213066   4.731   5.044   5.840  0.0299 -0.6783  0.2901
 4086SOL     OW13067   7.824   6.050   6.272 -1.0038  0.0754  0.4554
 4086SOL    HW113068   7.829   6.005   6.356 -1.8389  1.5531  1.3435
 4086SOL    HW213069   7.738   6.092   6.273 -0.0884  2.0473 -0.1192
 4087SOL     OW13070   5.069   1.084   7.479  0.1787 -0.0734  0.4462
 4087SOL    HW113071   4.982   1.109   7.448  0.4254 -2.1311 -2.3671
 4087SOL    HW213072   5.127   1.103   7.405  0.8644 -5.2018 -0.7122
 4088SOL     OW13073   7.352   7.919   0.717 -0.2786 -0.0949  0.2415
 4088SOL    HW113074   7.304   7.837   0.719  2.0489 -1.5578  0.1510
 4088SOL    HW213075   7.396   7.924   0.802  1.1072  0.0777 -0.4596
 4089SOL     OW13076   4.875   6.967   3.591 -0.1087 -0.4994 -0.3159
 4089SOL    HW113077   4.831   6.904   3.649  0.9498 -0.1155  0.9623
 4089SOL    HW213078   4.819   7.044   3.593 -0.9604 -1.0721 -1.1956
 4090SOL     OW13079   7.434   1.410   2.282 -0.2011  0.2516 -0.2929
 4090SOL    HW113080   7.410   1.359   2.359  0.6191 -0.5606 -0.5491
 4090SOL    HW213081   7.379   1.374   2.212  2.7524 -2.9021 -1.3118
 4091SOL     OW13082   2.606   1.620   3.962 -0.2269  0.9930 -0.4340
 4091SOL    HW113083   2.649   1.664   4.035  0.3710 -1.4245  0.7978
 4091SOL    HW213084   2.649   1.654   3.884  0.5586  2.1615  0.4782
 4092SOL     OW13085   6.210   0.528   0.972  0.3933 -0.7604 -0.3221
 4092SOL    HW113086   6.259   0.473   1.034  0.8919  0.0936  0.0745
 4092SOL    HW213087   6.120   0.526   1.004  0.3552 -1.5538 -0.4685
 4093SOL     OW13088   5.787   3.417   4.393  0.0870 -0.1932  0.2621
 4093SOL    HW113089   5.833   3.415   4.477 -0.9105  0.9786  0.8745
 4093SOL    HW213090   5.729   3.342   4.395  0.4452 -0.4716  0.3844
 4094SOL     OW13091   0.323   5.355   2.523 -0.3497 -0.0122 -0.5035
 4094SOL    HW113092   0.257   5.393   2.581 -1.0008  0.5328 -1.5830
 4094SOL    HW213093   0.398   5.414   2.530 -0.7285  0.5146 -0.8431
 4095SOL     OW13094   1.870   7.624   3.847  0.1714 -0.4869  0.1409
 4095SOL    HW113095   1.819   7.549   3.878 -0.0641  0.0234  1.0275
 4095SOL    HW213096   1.806   7.679   3.801  0.4722 -1.1254 -1.0802
 4096SOL     OW13097   4.674   1.490   7.410  0.3735  0.2804  0.3114
 4096SOL    HW113098   4.676   1.566   7.468  2.4971  0.9068 -0.5061
 4096SOL    HW213099   4.750   1.438   7.434  0.9787  0.2556 -1.4606
 4097SOL     OW13100   5.646   5.992   6.975 -0.6429 -0.1130  0.4212
 4097SOL    HW113101   5.721   5.941   6.943 -0.2995 -0.0944  1.1800
 4097SOL    HW213102   5.582   5.927   7.004 -0.7878 -0.1246  0.0782
 4098SOL     OW13103   3.176   7.451   5.012 -0.0556  0.6067  0.0638
 4098SOL    HW113104   3.252   7.430   4.958 -0.5031 -0.4358 -0.1750
 4098SOL    HW213105   3.204   7.430   5.101 -0.3489 -0.6071 -0.1231
 4099SOL     OW13106   3.603   2.188   6.852 -0.6220 -0.0158  0.3683
 4099SOL    HW113107   3.688   2.185   6.896 -0.2547 -0.6375 -0.3666
 4099SOL    HW213108   3.614   2.134   6.774 -1.4742  0.4941 -0.1242
 4100SOL     OW13109   3.071   1.082   2.034  0.1144 -0.4154  0.1458
 4100SOL    HW113110   3.153   1.093   1.986 -0.2185 -1.8690 -0.8168
 4100SOL    HW213111   3.040   0.996   2.008 -3.1465  1.1606 -1.7407
 4101SOL     OW13112   7.287   7.248   3.065 -1.0335  0.0637 -0.4787
 4101SOL    HW113113   7.193   7.254   3.050 -1.4514  0.6071  1.9483
 4101SOL    HW213114   7.295   7.223   3.158  1.1942 -1.8715 -1.0798
 4102SOL     OW13115   6.680   0.032   4.503 -0.2472 -0.3007 -0.7954
 4102SOL    HW113116   6.700   0.014   4.595 -0.9929 -2.7038 -1.0298
 4102SOL    HW213117   6.763   0.060   4.465  0.8732 -2.3653 -0.0261
 4103SOL     OW13118   4.421   6.547   6.119 -0.3794  0.5448 -0.1637
 4103SOL    HW113119   4.382   6.566   6.034  1.8976 -0.1850 -1.4531
 4103SOL    HW213120   4.511   6.577   6.111  0.7513 -2.2848  0.9061
 4104SOL     OW13121   2.926   6.733   4.230  0.2333 -0.1204  0.0940
 4104SOL    HW113122   2.872   6.658   4.256 -0.6132  0.0839 -0.9891
 4104SOL    HW213123   2.907   6.800   4.295 -1.1822  0.0865 -0.4916
 4105SOL     OW13124   5.605   6.535   6.453  0.6443  0.2150  0.3886
 4105SOL    HW113125   5.623   6.524   6.360 -0.0428  0.0901  0.2667
 4105SOL    HW213126   5.573   6.449   6.482 -1.6400  0.9300  0.1542
 4106SOL     OW13127   0.253   3.246   2.333  0.0357  0.2904  0.4531
 4106SOL    HW113128   0.217   3.164   2.299  1.3992  0.5381 -1.7904
 4106SOL    HW213129   0.343   3.225   2.355 -0.0820  0.8073  1.4748
 4107SOL     OW13130   4.080   6.744   0.063 -0.1211 -0.5438 -0.0219
 4107SOL    HW113131   4.115   6.677   0.122 -2.0875 -0.8625  0.8438
 4107SOL    HW213132   4.018   6.697   0.007 -0.8163  0.3731 -0.0476
 4108SOL     OW13133   3.671   2.254   1.289  0.0216 -0.1148 -0.5425
 4108SOL    HW113134   3.703   2.265   1.378 -0.6002  0.7214 -0.4030
 4108SOL    HW213135   3.620   2.173   1.291  2.4313 -1.7400 -0.8935
 4109SOL     OW13136   0.680   2.651   1.368  0.6461  0.3497  0.2302
 4109SOL    HW113137   0.639   2.566   1.385 -0.9456  0.8935 -0.6021
 4109SOL    HW213138   0.726   2.672   1.449 -0.0906 -0.6834  0.9439
 4110SOL     OW13139   1.832   7.762   0.007  0.5065 -0.0077  0.7345
 4110SOL    HW113140   1.801   7.672   0.018 -1.8473  0.5973 -0.2787
 4110SOL    HW213141   1.814   7.805   0.090 -2.3636  0.5342 -0.0704
 4111SOL     OW13142   1.802   7.316   2.383  0.6674  0.4365  0.2609
 4111SOL    HW113143   1.766   7.317   2.472 -2.4198  1.2606 -0.8769
 4111SOL    HW213144   1.750   7.250   2.337  1.9758  0.2622 -1.0259
 4112SOL     OW13145   0.603   0.062   5.554 -0.1165  0.2291 -0.0998
 4112SOL    HW113146   0.560   0.138   5.515 -0.0947  0.4145  0.2410
 4112SOL    HW213147   0.599   0.077   5.648 -0.3149 -0.3047 -0.0226
 4113SOL     OW13148   3.324   0.922   1.909  0.4131  0.3864 -0.0050
 4113SOL    HW113149   3.323   0.928   2.005  0.9284 -0.0833  0.0404
 4113SOL    HW213150   3.413   0.892   1.889  0.1075 -0.1460 -0.5908
 4114SOL     OW13151   4.389   3.110   4.331 -0.2216 -0.5394 -0.3845
 4114SOL    HW113152   4.332   3.033   4.338 -1.0680  0.0077 -1.1056
 4114SOL    HW213153   4.343   3.169   4.272 -0.4120  1.2410  1.4172
 4115SOL     OW13154   4.512   3.651   6.590 -0.3926  0.2242  0.1799
 4115SOL    HW113155   4.488   3.689   6.505  0.7975 -0.0966 -0.3214
 4115SOL    HW213156   4.459   3.572   6.596  0.2302 -0.2953 -0.7526
 4116SOL     OW13157   0.547   5.046   2.018 -0.4198 -0.0911  0.1987
 4116SOL    HW113158   0.474   4.985   2.014 -0.7406  0.2442  0.8451
 4116SOL    HW213159   0.606   5.008   2.084 -0.5577  0.2223  0.5058
 4117SOL     OW13160   7.320   1.282   7.993  0.2189 -0.1428 -0.1895
 4117SOL    HW113161   7.288   1.297   7.904 -1.6535 -0.0822  0.4416
 4117SOL    HW213162   7.386   1.214   7.983  0.4936  0.2967 -1.6945
 4118SOL     OW13163   0.168   7.216   4.605 -0.0115 -0.3531 -0.1950
 4118SOL    HW113164   0.217   7.254   4.679 -3.3432  3.4370  0.4078
 4118SOL    HW213165   0.184   7.276   4.532 -2.4204  0.1591 -0.3754
 4119SOL     OW13166   1.073   0.782   0.483 -0.0512  0.4668  0.0196
 4119SOL    HW113167   1.142   0.839   0.517 -1.2289  1.3758  0.9935
 4119SOL    HW213168   1.103   0.693   0.503  1.3904  0.7640 -0.6883
 4120SOL     OW13169   0.682   1.097   3.703 -0.5022  0.0299  0.2133
 4120SOL    HW113170   0.668   1.045   3.624  0.1434 -0.1063  0.1810
 4120SOL    HW213171   0.773   1.126   3.697 -0.4785  0.1041  0.8560
 4121SOL     OW13172   0.119   2.848   6.155 -0.3265 -0.4421  0.3463
 4121SOL    HW113173   0.059   2.862   6.082 -0.2462  0.4611  0.4366
 4121SOL    HW213174   0.202   2.823   6.114  0.3557  2.1500 -0.0672
 4122SOL     OW13175   1.761   0.185   6.100  0.7298 -0.9140 -0.9547
 4122SOL    HW113176   1.723   0.202   6.013 -1.0176 -0.3096 -0.1291
 4122SOL    HW213177   1.716   0.105   6.130  1.2947 -1.0964 -0.5871
 4123SOL     OW13178   4.800   1.272   3.617 -0.0175  0.4190  0.2964
 4123SOL    HW113179   4.811   1.177   3.627 -1.9279 -0.1968 -2.3967
 4123SOL    HW213180   4.886   1.302   3.587  0.7050 -0.3457  1.4854
 4124SOL     OW13181   1.385   6.201   3.717 -0.3805 -0.0283 -0.1606
 4124SOL    HW113182   1.412   6.229   3.805  0.0882  0.8037 -0.5611
 4124SOL    HW213183   1.460   6.152   3.684  0.1448  1.1536 -0.7622
 4125SOL     OW13184   0.983   6.766   2.121 -0.5554 -0.0740  0.2788
 4125SOL    HW113185   0.952   6.776   2.211 -1.6773  2.3307 -0.2822
 4125SOL    HW213186   0.920   6.817   2.069  1.3877  0.5469 -1.5885
 4126SOL     OW13187   7.154   4.444   0.261 -0.0629 -0.1116 -0.2760
 4126SOL    HW113188   7.156   4.353   0.292 -1.7369 -0.3943 -0.9344
 4126SOL    HW213189   7.242   4.477   0.279 -0.3076 -0.8828  2.8923
 4127SOL     OW13190   7.092   7.562   7.890  0.2616 -0.4316 -0.2167
 4127SOL    HW113191   7.062   7.624   7.957  0.0194  0.8881 -1.4793
 4127SOL    HW213192   7.113   7.617   7.815 -1.2804 -1.9799 -1.8973
 4128SOL     OW13193   3.420   2.798   3.891 -0.2514 -0.3321 -0.3160
 4128SOL    HW113194   3.493   2.760   3.940  0.4270  1.3362  0.0431
 4128SOL    HW213195   3.461   2.842   3.817 -1.1416 -1.4440 -1.5122
 4129SOL     OW13196   3.178   7.657   5.236 -0.4205 -0.4819  1.1456
 4129SOL    HW113197   3.175   7.689   5.146  0.2938 -1.2448  0.8358
 4129SOL    HW213198   3.093   7.614   5.249 -1.0308  0.7133  1.2734
 4130SOL     OW13199   0.375   1.455   4.274 -0.1993  0.2120  0.0973
 4130SOL    HW113200   0.427   1.407   4.338 -0.1816  1.8953  1.4109
 4130SOL    HW213201   0.293   1.474   4.319 -1.0196 -0.3270 -1.1149
 4131SOL     OW13202   3.873   4.596   6.425  0.3066  0.0093 -0.3564
 4131SOL    HW113203   3.778   4.598   6.429  0.2894  0.4807 -0.9145
 4131SOL    HW213204   3.894   4.507   6.395  0.0904 -0.4019  0.6589
 4132SOL     OW13205   2.767   1.362   7.626  0.0660  0.1217  0.0183
 4132SOL    HW113206   2.823   1.330   7.695  1.1842  1.6510 -0.1284
 4132SOL    HW213207   2.825   1.372   7.550 -0.5050  1.1661 -0.3037
 4133SOL     OW13208   1.371   0.637   4.254  0.1676  0.5113 -0.5580
 4133SOL    HW113209   1.422   0.608   4.179 -0.9198  0.2430 -1.2254
 4133SOL    HW213210   1.292   0.676   4.216  0.3387  1.8638  0.4145
 4134SOL     OW13211   2.587   7.173   4.320 -0.0931  0.1047 -0.1863
 4134SOL    HW113212   2.495   7.185   4.343 -0.2356 -0.1741 -0.5954
 4134SOL    HW213213   2.585   7.117   4.242  0.4089  0.3143 -0.3543
 4135SOL     OW13214   2.739   5.372   2.628 -0.9653  0.4532 -0.0277
 4135SOL    HW113215   2.650   5.340   2.614 -0.7145 -0.0143 -0.5875
 4135SOL    HW213216   2.786   5.298   2.665 -0.5455  0.3664 -0.7162
 4136SOL     OW13217   3.815   1.862   6.984 -0.0123  0.4673 -0.1862
 4136SOL    HW113218   3.872   1.939   6.987  2.3674 -1.1612 -0.5522
 4136SOL    HW213219   3.846   1.806   7.055 -1.6045 -0.2446  0.0001
 4137SOL     OW13220   3.517   7.314   2.820  0.1727 -0.4478 -0.1066
 4137SOL    HW113221   3.590   7.306   2.882 -1.5599  0.3644  2.1608
 4137SOL    HW213222   3.513   7.407   2.800 -0.4712 -0.4356  0.0725
 4138SOL     OW13223   5.704   6.418   5.384 -0.4203 -0.0428 -0.1381
 4138SOL    HW113224   5.765   6.438   5.455  0.3264 -0.9859 -0.4956
 4138SOL    HW213225   5.641   6.358   5.423 -0.5406  0.1528 -0.0307
 4139SOL     OW13226   5.076   7.398   6.629  0.2422 -0.1085  0.1077
 4139SOL    HW113227   4.998   7.344   6.624  0.6441 -0.8467  1.5151
 4139SOL    HW213228   5.146   7.339   6.656  0.7442  1.0329  1.4580
 4140SOL     OW13229   4.127   2.924   0.812  0.6637 -0.2297 -0.4323
 4140SOL    HW113230   4.065   2.936   0.740 -0.3428 -0.0973  0.4383
 4140SOL    HW213231   4.213   2.919   0.769 -0.1321 -3.5790 -2.0073
 4141SOL     OW13232   3.509   3.824   7.728 -0.0276 -0.2666 -0.0625
 4141SOL    HW113233   3.440   3.879   7.765 -0.4931 -1.7008  1.3018
 4141SOL    HW213234   3.548   3.781   7.804  1.2085 -0.8147 -0.9782
 4142SOL     OW13235   0.073   1.772   3.581  0.7495 -0.6746 -0.0591
 4142SOL    HW113236   0.050   1.828   3.506  0.3230 -1.6202 -0.6557
 4142SOL    HW213237  -0.003   1.775   3.638  0.7248 -0.6496 -0.0933
 4143SOL     OW13238   2.241   6.004   4.427  0.0457  0.5254  0.1337
 4143SOL    HW113239   2.223   6.055   4.348 -0.0608  1.8389  0.9719
 4143SOL    HW213240   2.303   5.937   4.399  0.7925  1.5898 -0.8662
 4144SOL     OW13241   5.359   0.954   6.394 -0.0492 -0.1171  0.0282
 4144SOL    HW113242   5.372   0.944   6.488  0.5117 -0.8589 -0.1196
 4144SOL    HW213243   5.333   1.045   6.383 -0.6476 -0.1619  0.9561
 4145SOL     OW13244   7.317   1.792   7.675  0.1613  0.2037 -0.4226
 4145SOL    HW113245   7.371   1.869   7.693 -0.8787  0.5321  1.6856
 4145SOL    HW213246   7.228   1.827   7.666 -0.1016 -0.6021 -1.0912
 4146SOL     OW13247   6.081   6.720   1.842  0.2698  0.7483  0.2470
 4146SOL    HW113248   5.985   6.712   1.847  0.2648 -1.2246 -1.4935
 4146SOL    HW213249   6.112   6.680   1.922 -0.3446 -0.0645  0.0929
 4147SOL     OW13250   2.217   3.980   4.264 -0.6789  0.3373 -0.2127
 4147SOL    HW113251   2.225   4.050   4.199 -0.5238 -0.0099 -0.5749
 4147SOL    HW213252   2.126   3.985   4.293 -1.0340 -0.1157 -1.1776
 4148SOL     OW13253   4.860   6.835   2.793  0.2506 -0.0224 -0.3513
 4148SOL    HW113254   4.880   6.925   2.818 -0.7211  0.1817 -0.2638
 4148SOL    HW213255   4.890   6.782   2.867  1.7256  0.1208 -0.8200
 4149SOL     OW13256   3.556   0.289   1.909  0.5733 -0.2968 -0.5257
 4149SOL    HW113257   3.508   0.280   1.826 -3.8374 -1.0764  1.7701
 4149SOL    HW213258   3.588   0.379   1.909  2.2428 -0.7781 -3.6894
 4150SOL     OW13259   3.467   7.046   4.195  0.6471  0.1735 -0.2860
 4150SOL    HW113260   3.500   6.987   4.264 -0.2381  0.1502  0.1278
 4150SOL    HW213261   3.374   7.056   4.215  0.7440  1.5727 -0.4536
 4151SOL     OW13262   1.978   6.013   7.343 -0.2770  0.5557  0.1182
 4151SOL    HW113263   1.915   5.951   7.379  0.3062  0.3984  0.9024
 4151SOL    HW213264   1.956   6.018   7.250 -0.0409 -1.2054 -0.0737
 4152SOL     OW13265   0.559   1.200   4.037 -0.5101  0.1161  0.2114
 4152SOL    HW113266   0.551   1.111   4.074  0.1813  0.6415  1.7100
 4152SOL    HW213267   0.653   1.214   4.029 -0.6210  0.6937 -0.0991
 4153SOL     OW13268   5.472   7.457   0.120 -0.4078  0.4337 -0.0302
 4153SOL    HW113269   5.462   7.499   0.206  0.2751  2.3996 -0.8551
 4153SOL    HW213270   5.517   7.523   0.067 -0.1091 -1.0474 -1.6787
 4154SOL     OW13271   0.199   2.358   5.398  0.3733  0.2183  0.5617
 4154SOL    HW113272   0.185   2.422   5.468 -0.9421  0.4853  0.0896
 4154SOL    HW213273   0.133   2.290   5.414  0.9712 -0.4202  0.3653
 4155SOL     OW13274   6.371   7.201   4.207 -0.0507 -0.5301  0.7299
 4155SOL    HW113275   6.286   7.245   4.199  1.1232  1.5484 -2.0709
 4155SOL    HW213276   6.384   7.159   4.122  2.4851  0.7612  0.3952
 4156SOL     OW13277   1.874   1.461   6.344  0.4892 -0.0684  0.3811
 4156SOL    HW113278   1.924   1.507   6.276 -1.8848 -0.5446 -1.8544
 4156SOL    HW213279   1.892   1.368   6.328 -0.8015 -0.2307 -0.2845
 4157SOL     OW13280   3.231   2.059   2.368 -0.1536 -0.3089  0.6569
 4157SOL    HW113281   3.200   1.970   2.387 -0.2621 -0.4087  0.0216
 4157SOL    HW213282   3.236   2.063   2.272  1.4498 -0.1922  0.7052
 4158SOL     OW13283   4.481   7.985   7.502 -0.3772  0.3473 -0.0269
 4158SOL    HW113284   4.462   8.066   7.550 -1.9930 -0.1098  0.1517
 4158SOL    HW213285   4.419   7.987   7.428 -0.5674 -0.8207  0.0943
 4159SOL     OW13286   5.568   6.251   7.060  0.1034 -0.2537  0.2849
 4159SOL    HW113287   5.643   6.297   7.022 -1.4140  1.7327 -0.4965
 4159SOL    HW213288   5.578   6.160   7.032  1.8148  0.1141 -0.4074
 4160SOL     OW13289   6.555   0.646   6.360 -0.2417  0.1274 -0.2364
 4160SOL    HW113290   6.539   0.552   6.356  1.2431 -0.1257 -1.1692
 4160SOL    HW213291   6.476   0.686   6.325  0.9856 -1.0255 -4.9802
 4161SOL     OW13292   0.372   6.462   1.040 -0.1337 -0.4239 -0.3665
 4161SOL    HW113293   0.434   6.531   1.016 -0.1444  0.0051  0.7755
 4161SOL    HW213294   0.317   6.502   1.109 -2.8165 -0.1739 -2.4710
 4162SOL     OW13295   4.036   5.646   0.069  0.4301  0.6594  0.8180
 4162SOL    HW113296   3.972   5.715   0.052 -2.2011 -0.8857  3.5350
 4162SOL    HW213297   4.040   5.597  -0.013 -1.6646  1.0235  0.4334
 4163SOL     OW13298   5.146   2.255   6.641  0.0388 -0.4421  0.5221
 4163SOL    HW113299   5.193   2.216   6.568  0.4115 -1.2051  1.1520
 4163SOL    HW213300   5.211   2.310   6.685  0.1753 -0.9935  1.0197
 4164SOL     OW13301   5.183   4.506   1.197 -0.0948 -0.4118  0.2782
 4164SOL    HW113302   5.148   4.557   1.270 -0.8010 -1.7736  0.9525
 4164SOL    HW213303   5.265   4.548   1.174  1.8187 -1.6871  3.9869
 4165SOL     OW13304   1.092   4.688   3.993 -0.1149 -0.5378 -0.0886
 4165SOL    HW113305   1.133   4.753   4.050 -0.3781 -1.7438  1.5731
 4165SOL    HW213306   1.100   4.723   3.905  1.1437  0.9831  0.6004
 4166SOL     OW13307   6.160   3.337   0.312 -0.6373  0.2354  0.1815
 4166SOL    HW113308   6.178   3.431   0.314  0.4359  0.0503  0.0541
 4166SOL    HW213309   6.092   3.324   0.378 -0.3633  1.0254  0.6293
 4167SOL     OW13310   7.725   4.970   2.465  0.6647  0.1175 -0.2612
 4167SOL    HW113311   7.635   4.994   2.485  0.7448  0.2035  0.0101
 4167SOL    HW213312   7.725   4.875   2.459  0.1883  0.2118 -2.1334
 4168SOL     OW13313   5.648   3.994   5.188 -0.8929 -0.1453  0.3236
 4168SOL    HW113314   5.726   3.959   5.146 -1.8062 -0.3482 -1.2860
 4168SOL    HW213315   5.680   4.032   5.270  0.8392 -0.4510 -0.1650
 4169SOL     OW13316   2.596   7.568   3.621 -0.2366  0.4991  0.3463
 4169SOL    HW113317   2.622   7.658   3.605  0.5482  0.3826  0.9365
 4169SOL    HW213318   2.528   7.550   3.555  0.1652  1.2557 -0.2810
 4170SOL     OW13319   6.064   5.491   7.866  0.2354  0.1481 -0.1206
 4170SOL    HW113320   6.019   5.440   7.932  1.6981 -0.4293  0.4858
 4170SOL    HW213321   6.137   5.435   7.837  0.6818  1.0878 -0.9181
 4171SOL     OW13322   2.335   2.844   0.165 -0.6410  0.0456  0.2195
 4171SOL    HW113323   2.295   2.921   0.124 -1.0076  0.5536  1.4764
 4171SOL    HW213324   2.429   2.860   0.160 -0.7285  0.9090  1.0470
 4172SOL     OW13325   3.164   3.427   7.201 -0.2449  0.3140 -0.2057
 4172SOL    HW113326   3.243   3.476   7.225  0.7238 -1.5938  0.6962
 4172SOL    HW213327   3.143   3.457   7.113  2.3901 -0.2248 -1.1012
 4173SOL     OW13328   3.980   2.806   0.230 -0.9132 -0.0372  0.1623
 4173SOL    HW113329   4.054   2.854   0.268  0.0568 -1.3977  0.0548
 4173SOL    HW213330   3.910   2.871   0.224 -0.5414  0.6815  2.5935
 4174SOL     OW13331   1.022   7.246   7.772  0.6382 -0.2839 -0.4061
 4174SOL    HW113332   0.966   7.320   7.794 -2.3432 -2.2155 -0.9411
 4174SOL    HW213333   1.063   7.271   7.689  0.6126  1.1870  0.0009
 4175SOL     OW13334   0.091   2.611   6.710 -0.0986  0.3703  0.1407
 4175SOL    HW113335   0.055   2.523   6.700  0.4930 -0.0667  1.6464
 4175SOL    HW213336   0.022   2.668   6.676 -1.1726 -0.5913  0.6037
 4176SOL     OW13337   7.414   0.733   2.051 -0.1419 -0.4565 -0.4326
 4176SOL    HW113338   7.498   0.774   2.071 -1.2478  2.0233 -0.5527
 4176SOL    HW213339   7.386   0.774   1.969 -3.4195  2.1790  1.7286
 4177SOL     OW13340   2.940   5.340   0.240 -0.2115  0.3644 -0.5625
 4177SOL    HW113341   2.861   5.333   0.187  1.0016 -1.8621 -2.2535
 4177SOL    HW213342   2.983   5.255   0.231  1.6689  0.9991  1.4703
 4178SOL     OW13343   6.429   0.120   2.419 -0.6904 -0.0624  0.0957
 4178SOL    HW113344   6.334   0.117   2.414 -0.7790  0.3904  1.3155
 4178SOL    HW213345   6.448   0.141   2.510  0.5791 -0.1442 -0.1330
 4179SOL     OW13346   4.097   7.387   0.325  0.5736  0.2812 -0.4182
 4179SOL    HW113347   4.119   7.451   0.393  0.2638 -0.3315  0.2781
 4179SOL    HW213348   4.142   7.419   0.247  0.5619  1.2568 -0.0475
 4180SOL     OW13349   3.479   4.232   7.847  0.0121  0.1101  0.1906
 4180SOL    HW113350   3.551   4.293   7.827 -0.0375 -0.5175 -2.2839
 4180SOL    HW213351   3.411   4.255   7.784 -1.6046  0.0353  1.8373
 4181SOL     OW13352   5.491   5.504   7.674  0.1865 -0.4203 -0.3306
 4181SOL    HW113353   5.583   5.482   7.689  0.6657  1.6201  0.1248
 4181SOL    HW213354   5.490   5.545   7.588  0.2726  2.0836  0.7712
 4182SOL     OW13355   6.679   3.883   3.932 -0.2582  0.5215 -0.5150
 4182SOL    HW113356   6.621   3.827   3.879 -2.0549  1.1052  0.7552
 4182SOL    HW213357   6.754   3.899   3.875 -0.4220 -1.8355 -1.5331
 4183SOL     OW13358   6.824   5.643   0.020 -0.4257  0.1086 -0.0300
 4183SOL    HW113359   6.763   5.597   0.077 -0.7514 -0.2589 -0.6690
 4183SOL    HW213360   6.883   5.689   0.080 -0.9870  0.0231  0.5948
 4184SOL     OW13361   0.316   4.312   4.220 -0.1579  0.5653  0.2887
 4184SOL    HW113362   0.337   4.253   4.292 -2.7562  0.6602  1.2111
 4184SOL    HW213363   0.306   4.255   4.144 -1.1711 -0.0150  0.8468
 4185SOL     OW13364   3.709   6.981   6.915 -0.1958 -0.0094  0.6097
 4185SOL    HW113365   3.702   6.947   7.004 -0.3647  1.8417  1.3438
 4185SOL    HW213366   3.622   7.015   6.895 -0.0137  0.0783 -0.0403
 4186SOL     OW13367   7.017   6.975   6.757 -0.4906 -0.3832  0.0984
 4186SOL    HW113368   7.111   6.981   6.741 -0.4546  1.3568  0.7684
 4186SOL    HW213369   6.977   7.013   6.679 -0.5169  1.6149  1.0328
 4187SOL     OW13370   5.493   6.814   2.324  0.3664 -0.6435 -0.3429
 4187SOL    HW113371   5.485   6.907   2.307  0.4417 -0.8302 -1.5019
 4187SOL    HW213372   5.580   6.791   2.291 -0.0661 -1.3156 -1.0414
 4188SOL     OW13373   5.648   4.968   5.500  0.3675 -0.3657  0.3276
 4188SOL    HW113374   5.740   4.942   5.502  0.1844 -1.0142  0.3781
 4188SOL    HW213375   5.601   4.896   5.541 -0.0494  0.5079  1.4403
 4189SOL     OW13376   1.416   2.013   1.365 -0.0764 -0.1504 -0.2762
 4189SOL    HW113377   1.489   2.027   1.305  0.1232 -0.8020 -0.1908
 4189SOL    HW213378   1.354   1.960   1.314 -1.5698  2.3260 -1.1830
 4190SOL     OW13379   0.104   4.724   4.965 -0.0576  0.4072  0.0109
 4190SOL    HW113380   0.101   4.817   4.942  1.1989  0.1204 -1.4405
 4190SOL    HW213381   0.139   4.723   5.054  1.1104  1.3038 -0.4016
 4191SOL     OW13382   5.631   1.644   2.377 -0.2921 -0.5287  0.1062
 4191SOL    HW113383   5.596   1.732   2.362  1.6365  0.2459 -0.0414
 4191SOL    HW213384   5.570   1.587   2.331 -1.7567  0.6863  0.4527
 4192SOL     OW13385   0.881   2.993   5.190 -0.1708 -0.8138 -0.4261
 4192SOL    HW113386   0.830   3.067   5.157 -0.9042  0.4232  3.0387
 4192SOL    HW213387   0.971   3.027   5.195  0.1611 -1.3700 -1.9717
 4193SOL     OW13388   1.508   7.455   1.764 -0.5828  0.7082 -0.6488
 4193SOL    HW113389   1.535   7.547   1.759 -1.3070  1.1559  1.9343
 4193SOL    HW213390   1.421   7.458   1.804  0.3073 -1.1601  1.6824
 4194SOL     OW13391   5.338   2.463   1.252 -0.1997 -0.1103  0.2343
 4194SOL    HW113392   5.374   2.398   1.313 -1.1560  1.2822  2.3970
 4194SOL    HW213393   5.410   2.524   1.237 -0.8954  1.4916  2.8665
 4195SOL     OW13394   7.850   4.059   3.202  0.2832 -0.3290 -0.5060
 4195SOL    HW113395   7.793   4.097   3.134  0.5454  1.4303  0.2045
 4195SOL    HW213396   7.922   4.020   3.153  0.7535  1.3897 -1.2495
 4196SOL     OW13397   2.521   2.350   6.288 -0.1436 -0.8135 -0.1194
 4196SOL    HW113398   2.512   2.268   6.240  4.5012 -0.9356 -1.2511
 4196SOL    HW213399   2.583   2.331   6.358  1.9426  1.8224 -1.0562
 4197SOL     OW13400   0.328   1.607   7.985 -0.3154  0.1971 -0.4745
 4197SOL    HW113401   0.375   1.579   7.906 -0.6065  0.6317 -0.8091
 4197SOL    HW213402   0.265   1.537   8.002 -0.0623 -0.0271 -0.4705
 4198SOL     OW13403   0.574   4.080   3.077  0.0565 -0.7024 -0.4655
 4198SOL    HW113404   0.616   4.133   3.145 -0.1974  0.0795 -0.9022
 4198SOL    HW213405   0.636   4.082   3.004 -0.9895  1.0469 -1.3744
 4199SOL     OW13406   4.521   1.534   1.967  0.2888  0.0857  0.7503
 4199SOL    HW113407   4.473   1.451   1.976  0.0181  0.3782  2.2246
 4199SOL    HW213408   4.462   1.590   1.917 -0.1131 -0.1647  0.9339
 4200SOL     OW13409   7.094   5.993   6.531  0.1252 -0.2721  0.0057
 4200SOL    HW113410   7.128   5.976   6.619 -0.0087 -0.7246 -0.0290
 4200SOL    HW213411   7.134   6.076   6.505 -1.3285  0.8848  1.2725
 4201SOL     OW13412   3.960   4.321   7.524  0.2476 -0.1319 -0.0921
 4201SOL    HW113413   3.985   4.231   7.548  0.4077  0.3372  1.6017
 4201SOL    HW213414   4.006   4.376   7.587 -0.4096  1.1167 -0.6801
 4202SOL     OW13415   1.361   0.542   7.031 -0.0673  0.3641  0.3313
 4202SOL    HW113416   1.420   0.617   7.028  0.0236  0.3549 -4.2591
 4202SOL    HW213417   1.277   0.575   7.001 -0.3556 -1.1027 -0.5577
 4203SOL     OW13418   5.552   4.174   0.256 -0.3840 -0.2998  0.0457
 4203SOL    HW113419   5.560   4.267   0.277  0.3542 -0.0335 -1.3641
 4203SOL    HW213420   5.504   4.172   0.174 -0.0549 -1.1497 -0.1314
 4204SOL     OW13421   2.811   3.070   0.080 -0.2940  0.2532 -0.5833
 4204SOL    HW113422   2.878   3.055   0.013  0.0614 -0.4757 -0.0775
 4204SOL    HW213423   2.860   3.096   0.158 -0.6272  0.0471 -0.3028
 4205SOL     OW13424   3.200   3.587   3.686  0.5642  0.1237  0.4509
 4205SOL    HW113425   3.169   3.638   3.611 -0.4676 -2.7480 -1.2790
 4205SOL    HW213426   3.122   3.540   3.717  1.1353  0.6694  2.9217
 4206SOL     OW13427   3.610   0.501   4.615 -0.1017 -0.1655 -0.0996
 4206SOL    HW113428   3.531   0.555   4.610  0.7337  1.1565  0.4560
 4206SOL    HW213429   3.623   0.471   4.525  0.1158  1.6421 -0.7159
 4207SOL     OW13430   4.910   0.067   0.858 -0.2491  0.6862 -0.3562
 4207SOL    HW113431   4.978   0.133   0.871  0.4497 -0.0403 -0.2595
 4207SOL    HW213432   4.896   0.064   0.764  0.8075 -0.0847 -0.5066
 4208SOL     OW13433   4.979   5.121   1.495  0.0182 -0.1394  0.2534
 4208SOL    HW113434   4.932   5.144   1.415 -0.1492  0.5425  0.5459
 4208SOL    HW213435   4.959   5.191   1.557  0.1055 -0.6841  0.9167
 4209SOL     OW13436   7.336   1.301   5.391  0.4245 -0.3668  0.2941
 4209SOL    HW113437   7.408   1.363   5.378 -0.7150  0.8126 -0.6564
 4209SOL    HW213438   7.354   1.261   5.476  2.3621 -0.3522 -0.0621
 4210SOL     OW13439   2.807   1.787   2.531 -0.0068 -0.5541  0.1010
 4210SOL    HW113440   2.850   1.705   2.504  0.8495 -0.5869  1.4966
 4210SOL    HW213441   2.869   1.856   2.506 -0.4829 -0.3554 -0.5679
 4211SOL     OW13442   1.086   4.842   1.128 -0.5190 -0.3276  0.3008
 4211SOL    HW113443   1.092   4.935   1.151 -0.3270 -0.0696 -0.7327
 4211SOL    HW213444   1.101   4.796   1.210 -2.8599  0.5525  1.2931
 4212SOL     OW13445   5.527   6.154   2.908 -0.6301  0.3669 -0.0610
 4212SOL    HW113446   5.549   6.231   2.961 -0.3080  0.5714 -0.4884
 4212SOL    HW213447   5.447   6.179   2.862 -0.1396  0.7189 -0.7413
 4213SOL     OW13448   2.209   7.838   0.263  0.2755 -0.4531 -0.3359
 4213SOL    HW113449   2.181   7.766   0.207 -3.6395 -0.0869  0.8243
 4213SOL    HW213450   2.193   7.917   0.212  0.8737 -0.2596 -0.2343
 4214SOL     OW13451   7.015   7.333   0.009  0.1252  0.3045  0.5005
 4214SOL    HW113452   6.922   7.327  -0.012  0.2041  0.0834  0.2088
 4214SOL    HW213453   7.041   7.421  -0.017 -0.4040  1.0270  2.2392
 4215SOL     OW13454   6.405   7.020   5.983 -0.5096  0.5340 -0.1185
 4215SOL    HW113455   6.324   6.985   5.946 -1.3888  2.0698  0.2340
 4215SOL    HW213456   6.409   6.984   6.071 -0.7380  0.3326 -0.1921
 4216SOL     OW13457   1.172   5.880   7.394  0.7097  0.2349  0.2714
 4216SOL    HW113458   1.266   5.894   7.408  0.7858 -0.4419  0.4729
 4216SOL    HW213459   1.165   5.786   7.373  0.1168  0.3513 -0.0619
 4217SOL     OW13460   6.764   7.936   3.738  0.2339 -0.4461  0.3744
 4217SOL    HW113461   6.843   7.986   3.715 -1.0642  1.4022 -0.3172
 4217SOL    HW213462   6.735   7.975   3.821 -0.0339 -1.0334  0.5591
 4218SOL     OW13463   5.850   2.838   3.906 -0.7282 -0.2441 -0.0402
 4218SOL    HW113464   5.895   2.911   3.949  1.0496 -1.8888  1.0525
 4218SOL    HW213465   5.837   2.868   3.816 -1.3166  1.9310  0.7143
 4219SOL     OW13466   3.038   6.768   0.705 -0.2383 -0.2153 -0.6184
 4219SOL    HW113467   3.037   6.752   0.799 -0.7734 -0.7099 -0.7027
 4219SOL    HW213468   2.979   6.842   0.693 -1.4816 -1.1897 -0.7303
 4220SOL     OW13469   6.736   4.313   7.528  0.6124 -0.2030 -0.2694
 4220SOL    HW113470   6.740   4.404   7.557 -0.5275 -0.3081  0.2847
 4220SOL    HW213471   6.661   4.310   7.469 -0.7837 -1.2058  1.4519
 4221SOL     OW13472   1.812   7.729   1.213  0.0104  0.3122 -0.3872
 4221SOL    HW113473   1.846   7.653   1.166 -0.0513 -0.2711  0.4885
 4221SOL    HW213474   1.764   7.779   1.147  0.0152 -0.4376 -0.9663
 4222SOL     OW13475   7.745   6.798   4.064 -0.4088 -0.4164  0.0255
 4222SOL    HW113476   7.840   6.797   4.074 -0.1998 -0.0699 -1.6419
 4222SOL    HW213477   7.713   6.847   4.140  0.7686 -0.1114  0.3428
 4223SOL     OW13478   5.492   6.372   7.299 -0.2557 -0.0842 -0.3130
 4223SOL    HW113479   5.555   6.442   7.318 -2.5110  1.8437  0.6032
 4223SOL    HW213480   5.505   6.352   7.207  1.3984  0.5504 -0.2462
 4224SOL     OW13481   7.541   6.885   6.376  0.4158  0.3548 -0.7999
 4224SOL    HW113482   7.575   6.891   6.287  0.3192  0.9494 -0.7996
 4224SOL    HW213483   7.599   6.941   6.428  0.1572  0.4256 -0.5836
 4225SOL     OW13484   5.393   5.708   5.351 -0.5284 -0.8138  0.4103
 4225SOL    HW113485   5.408   5.625   5.396 -0.8925 -2.0495 -1.6252
 4225SOL    HW213486   5.366   5.683   5.262 -0.1610  1.4937 -0.4236
 4226SOL     OW13487   1.238   4.613   5.567 -0.2072  0.1879 -0.3482
 4226SOL    HW113488   1.331   4.617   5.590 -0.4734 -1.9052  1.3721
 4226SOL    HW213489   1.238   4.585   5.475  0.8715  0.0054 -0.3119
 4227SOL     OW13490   7.272   0.587   4.968 -0.2565 -0.2918  0.2750
 4227SOL    HW113491   7.265   0.681   4.954 -0.8003 -0.5252 -1.2466
 4227SOL    HW213492   7.233   0.572   5.054  1.8615  1.1168  1.5481
 4228SOL     OW13493   1.764   1.575   1.581  0.5823 -0.6386 -1.0161
 4228SOL    HW113494   1.855   1.559   1.555  0.4388 -1.6699 -0.9181
 4228SOL    HW213495   1.728   1.627   1.509  2.2014  2.9700  0.5594
 4229SOL     OW13496   4.592   4.542   3.435 -0.3884 -0.8571  0.5254
 4229SOL    HW113497   4.572   4.635   3.426  1.3236 -0.6473 -2.2367
 4229SOL    HW213498   4.573   4.523   3.527 -2.7862  1.6688  0.7162
 4230SOL     OW13499   7.268   1.587   3.737 -0.0440  0.3086 -0.2876
 4230SOL    HW113500   7.234   1.543   3.815  1.0271  2.3734  1.4356
 4230SOL    HW213501   7.215   1.552   3.665 -2.4411 -0.1874  1.5941
 4231SOL     OW13502   6.005   6.228   5.804  0.8203 -0.8746  0.1579
 4231SOL    HW113503   5.914   6.258   5.796  0.5672 -1.2864  1.3096
 4231SOL    HW213504   6.057   6.308   5.801  0.4138 -0.6192 -0.3204
 4232SOL     OW13505   0.638   0.083   5.828  0.2477 -0.3720 -0.3655
 4232SOL    HW113506   0.697   0.158   5.813  1.7745 -1.6047 -0.7591
 4232SOL    HW213507   0.691   0.020   5.875 -1.4359 -0.7110  1.1934
 4233SOL     OW13508   2.525   6.700   5.646  0.1547  0.1078 -0.4357
 4233SOL    HW113509   2.553   6.694   5.738 -0.4162 -0.4981 -0.2952
 4233SOL    HW213510   2.588   6.646   5.599  0.1187 -0.0306 -0.3262
 4234SOL     OW13511   6.558   5.217   2.397 -0.0121 -0.4764 -0.4072
 4234SOL    HW113512   6.570   5.196   2.489 -1.4761 -0.4041 -0.1883
 4234SOL    HW213513   6.557   5.132   2.353  1.7225 -0.4757 -0.5235
 4235SOL     OW13514   6.146   4.889   6.462 -0.8402 -0.1202  0.0769
 4235SOL    HW113515   6.220   4.917   6.408 -0.8783 -1.5158 -0.7500
 4235SOL    HW213516   6.069   4.900   6.405 -1.0698 -0.1434  0.3823
 4236SOL     OW13517   0.842   0.121   1.340 -0.4421  0.4674  0.3339
 4236SOL    HW113518   0.933   0.097   1.325 -0.3715  0.4471  0.7805
 4236SOL    HW213519   0.827   0.101   1.432 -1.7858 -2.4512 -0.4212
 4237SOL     OW13520   6.967   4.849   3.634 -0.0590  0.5982  0.6460
 4237SOL    HW113521   7.062   4.843   3.625 -0.0721  1.1123  0.1569
 4237SOL    HW213522   6.947   4.941   3.621 -0.5910  0.5481  1.1039
 4238SOL     OW13523   6.591   1.321   0.088 -0.0243  0.6270 -0.2093
 4238SOL    HW113524   6.589   1.411   0.121 -1.2604  1.2897 -1.9219
 4238SOL    HW213525   6.567   1.268   0.164  1.4566  1.6316  1.0293
 4239SOL     OW13526   0.811   4.059   3.864 -0.2626 -0.2340  0.2833
 4239SOL    HW113527   0.864   4.015   3.797 -0.8393 -2.3097  1.1131
 4239SOL    HW213528   0.724   4.065   3.825  0.3292  2.7431 -0.8857
 4240SOL     OW13529   5.224   3.010   5.156  0.1009 -0.0925  1.0828
 4240SOL    HW113530   5.166   3.065   5.102  1.2292  0.4592  0.4046
 4240SOL    HW213531   5.239   2.933   5.102  0.3667 -0.0249  1.0608
 4241SOL     OW13532   0.041   1.154   6.866  0.0119  0.0806  0.2530
 4241SOL    HW113533  -0.004   1.236   6.848 -0.2253  0.2118  1.3492
 4241SOL    HW213534   0.131   1.180   6.885  0.0606  0.0317  0.0896
 4242SOL     OW13535   3.067   3.226   7.368 -0.1942 -0.2912  0.4183
 4242SOL    HW113536   2.984   3.265   7.394 -1.6074 -0.3296 -3.3576
 4242SOL    HW213537   3.110   3.294   7.315  0.8680 -1.2248  0.0357
 4243SOL     OW13538   6.171   3.914   0.990  0.3199 -0.4002  0.3779
 4243SOL    HW113539   6.172   3.852   0.917  0.3927  1.2837 -1.1134
 4243SOL    HW213540   6.119   3.988   0.958  1.5590  1.0012  1.4930
 4244SOL     OW13541   0.752   5.876   7.094  0.1833 -0.7652 -0.2084
 4244SOL    HW113542   0.768   5.834   7.009  0.4978 -0.9158 -0.0732
 4244SOL    HW213543   0.784   5.965   7.084 -1.1366 -0.3185 -0.7325
 4245SOL     OW13544   5.382   1.206   2.386  0.0494  0.1660  0.2326
 4245SOL    HW113545   5.421   1.137   2.333  1.2640  0.5067  0.6499
 4245SOL    HW213546   5.424   1.286   2.356 -1.5251  0.7794 -0.4224
 4246SOL     OW13547   6.343   0.243   6.690 -0.0831  0.3040  0.4399
 4246SOL    HW113548   6.298   0.313   6.644  2.3354  0.2152 -2.3722
 4246SOL    HW213549   6.343   0.170   6.629 -0.5757 -1.4380  2.4044
 4247SOL     OW13550   2.159   1.405   3.785  0.1589 -0.4241 -0.2010
 4247SOL    HW113551   2.164   1.342   3.713 -0.4250  1.4003 -1.9072
 4247SOL    HW213552   2.235   1.462   3.773 -0.8234  0.8931 -0.3887
 4248SOL     OW13553   3.854   5.514   3.070  0.0713  0.0824 -0.1663
 4248SOL    HW113554   3.765   5.484   3.088 -0.5561  1.8139 -0.1677
 4248SOL    HW213555   3.851   5.542   2.979  0.3181  1.0869  0.1223
 4249SOL     OW13556   0.783   2.077   7.375 -0.1156 -0.1622 -0.3265
 4249SOL    HW113557   0.783   2.149   7.311  0.1197 -0.1407 -0.3044
 4249SOL    HW213558   0.756   2.000   7.324  0.3939 -0.2118 -0.5309
 4250SOL     OW13559   5.334   2.756   1.340  0.7408 -0.0163 -0.4525
 4250SOL    HW113560   5.382   2.701   1.278  0.0958 -0.8725 -0.2152
 4250SOL    HW213561   5.283   2.694   1.392  0.8239  0.7301  0.5537
 4251SOL     OW13562   3.514   5.537   3.103  0.7352  0.7107 -0.3427
 4251SOL    HW113563   3.457   5.473   3.061  1.1333 -1.1942  1.8002
 4251SOL    HW213564   3.455   5.604   3.138  0.0057 -0.0219 -0.1435
 4252SOL     OW13565   3.805   4.864   6.271  0.0494 -0.5030 -0.2130
 4252SOL    HW113566   3.805   4.771   6.294  0.0453 -1.0770 -2.3232
 4252SOL    HW213567   3.878   4.901   6.320  1.6105 -2.1527 -1.1499
 4253SOL     OW13568   5.086   1.281   2.862 -0.2907  0.5646 -0.1210
 4253SOL    HW113569   5.091   1.346   2.932 -0.6180  2.9614 -2.1584
 4253SOL    HW213570   5.177   1.271   2.833 -0.3602  0.9683 -0.4966
 4254SOL     OW13571   6.698   0.681   2.100 -0.4146 -0.8760  0.1013
 4254SOL    HW113572   6.751   0.630   2.039  0.5853 -1.4136  1.3729
 4254SOL    HW213573   6.751   0.758   2.120 -0.7247 -0.7134  0.3055
 4255SOL     OW13574   6.993   5.951   6.013 -0.2159 -0.4403 -0.1753
 4255SOL    HW113575   6.958   5.862   6.009  1.3982 -1.0674 -1.8777
 4255SOL    HW213576   6.997   5.979   5.921  1.1630  0.6103  0.1648
 4256SOL     OW13577   7.278   1.607   1.157  0.4052  0.2439 -0.0363
 4256SOL    HW113578   7.194   1.566   1.140  0.4008 -0.6628  1.8506
 4256SOL    HW213579   7.262   1.666   1.231  0.9162  2.0086 -1.2431
 4257SOL     OW13580   5.828   4.418   0.867 -0.5216 -0.2672  0.3289
 4257SOL    HW113581   5.923   4.412   0.868 -0.5460 -0.6416  0.6813
 4257SOL    HW213582   5.801   4.364   0.793 -0.4359  0.2436 -0.0785
 4258SOL     OW13583   3.198   6.173   2.647  0.3729  0.1571  0.0086
 4258SOL    HW113584   3.229   6.086   2.623 -0.0891 -0.1400  0.4481
 4258SOL    HW213585   3.192   6.220   2.564 -0.5759 -0.6316 -0.3999
 4259SOL     OW13586   0.316   1.627   3.580 -0.0378  0.2297 -0.0015
 4259SOL    HW113587   0.372   1.631   3.657 -1.2524  0.5335  0.8814
 4259SOL    HW213588   0.237   1.673   3.604 -1.2594 -1.3644 -0.7279
 4260SOL     OW13589   5.498   4.883   1.379  0.5805  0.5720 -1.0145
 4260SOL    HW113590   5.407   4.885   1.349  1.1904  2.0330 -3.0430
 4260SOL    HW213591   5.534   4.803   1.342 -0.2137 -0.8421  1.1105
 4261SOL     OW13592   0.145   1.988   3.002  0.5593 -0.1905 -0.2088
 4261SOL    HW113593   0.218   2.014   2.946 -0.5962  0.8825 -1.2835
 4261SOL    HW213594   0.115   2.069   3.042 -0.2633 -0.5661 -0.0436
 4262SOL     OW13595   4.579   7.005   3.693 -0.4166  0.2578 -0.1456
 4262SOL    HW113596   4.547   7.024   3.604 -1.1484  1.7095  0.3899
 4262SOL    HW213597   4.563   7.086   3.741 -0.3618 -0.6289  1.4100
 4263SOL     OW13598   6.391   0.079   6.473 -0.2702  0.6092 -0.9221
 4263SOL    HW113599   6.390  -0.008   6.513 -1.1155  0.8309 -0.4252
 4263SOL    HW213600   6.428   0.065   6.386  1.6906  0.1433 -0.0601
 4264SOL     OW13601   7.504   1.971   7.784  0.4487  0.4400 -0.3232
 4264SOL    HW113602   7.554   1.978   7.703 -0.0172  1.7914 -0.5260
 4264SOL    HW213603   7.569   1.945   7.850  1.9223  3.8074 -0.2196
 4265SOL     OW13604   5.355   3.224   6.879 -0.2744 -0.3134  0.0843
 4265SOL    HW113605   5.278   3.254   6.928  0.9472 -0.2780  2.1290
 4265SOL    HW213606   5.330   3.140   6.842 -2.2923  1.0947 -1.9712
 4266SOL     OW13607   7.928   1.521   7.557  0.3044  0.1579  0.1184
 4266SOL    HW113608   7.945   1.613   7.578  1.7244 -0.5124  2.2859
 4266SOL    HW213609   7.868   1.492   7.625  0.8720 -0.8288  0.2081
 4267SOL     OW13610   0.284   7.699   2.534 -0.8726 -0.5627 -0.0865
 4267SOL    HW113611   0.342   7.765   2.495 -1.1586  0.7338  1.5466
 4267SOL    HW213612   0.266   7.638   2.463  3.0505 -1.5037 -0.5143
 4268SOL     OW13613   6.018   0.996   5.687 -0.7948  0.0005 -0.1265
 4268SOL    HW113614   5.990   0.905   5.695  1.6517 -0.7523  0.9995
 4268SOL    HW213615   6.018   1.013   5.593 -2.3715 -0.7477 -0.3010
 4269SOL     OW13616   2.815   3.058   0.695 -0.3752  0.1212 -0.1105
 4269SOL    HW113617   2.806   2.967   0.725 -0.3721  0.8958  2.5019
 4269SOL    HW213618   2.866   3.100   0.764 -2.2254  2.6049 -0.1434
 4270SOL     OW13619   0.388   5.640   3.775 -0.2740  0.7579  0.0437
 4270SOL    HW113620   0.432   5.569   3.729  0.3677  0.0991  1.6185
 4270SOL    HW213621   0.435   5.719   3.748  1.5606  0.1267  1.2507
 4271SOL     OW13622   3.287   1.858   5.655  0.3678  0.3437  0.0184
 4271SOL    HW113623   3.356   1.872   5.719  1.0842  1.4361 -0.9521
 4271SOL    HW213624   3.313   1.780   5.607  0.4270  0.1967  0.2910
 4272SOL     OW13625   7.398   2.233   1.614  0.3608 -0.1020  0.2632
 4272SOL    HW113626   7.336   2.297   1.649 -0.1401 -0.6220  0.3498
 4272SOL    HW213627   7.463   2.285   1.568 -1.5923  0.3761 -2.2154
 4273SOL     OW13628   4.749   5.476   6.464 -0.1416  0.3759 -0.4453
 4273SOL    HW113629   4.711   5.449   6.548 -0.6749  0.1467 -0.7516
 4273SOL    HW213630   4.812   5.544   6.486 -0.4515  0.4828  0.1228
 4274SOL     OW13631   7.322   4.229   1.135  0.2419 -0.0448  0.3641
 4274SOL    HW113632   7.330   4.176   1.055 -0.0337  0.9031 -0.3151
 4274SOL    HW213633   7.230   4.220   1.161  0.5795 -1.2156  1.2062
 4275SOL     OW13634   7.950   0.319   5.327  0.5566  0.1205  0.2678
 4275SOL    HW113635   7.935   0.237   5.374  0.8456 -0.1039 -0.0324
 4275SOL    HW213636   8.039   0.344   5.352  0.3497  0.5110  0.6171
 4276SOL     OW13637   0.401   4.033   4.806 -0.0605 -0.2583  0.0354
 4276SOL    HW113638   0.330   3.999   4.752 -0.1365  0.0815 -0.0812
 4276SOL    HW213639   0.419   3.963   4.868 -2.1574  0.5515  1.6870
 4277SOL     OW13640   5.723   2.329   2.108 -0.3940  0.4774  0.6015
 4277SOL    HW113641   5.642   2.330   2.057  0.2855 -1.7812 -0.6690
 4277SOL    HW213642   5.776   2.260   2.068  1.6293  0.9648  2.2355
 4278SOL     OW13643   4.769   5.841   5.663 -0.0763 -0.1061  0.4716
 4278SOL    HW113644   4.718   5.762   5.644 -0.0758 -0.1298  0.5666
 4278SOL    HW213645   4.720   5.885   5.733  0.0076 -0.1020  0.5274
 4279SOL     OW13646   1.935   5.352   5.114 -0.1856  0.0927 -0.1751
 4279SOL    HW113647   1.892   5.437   5.116 -1.4712 -0.5298 -0.2620
 4279SOL    HW213648   2.001   5.357   5.183 -0.3544  1.0988 -0.0667
 4280SOL     OW13649   1.929   4.016   6.699  0.4152 -0.6039  0.3638
 4280SOL    HW113650   1.939   4.083   6.767  1.9990 -1.0302  0.5939
 4280SOL    HW213651   1.866   3.954   6.736 -0.8999  0.6010  0.2380
 4281SOL     OW13652   7.457   0.018   0.965  0.4860 -0.2384 -0.1915
 4281SOL    HW113653   7.369   0.054   0.978  0.4233 -0.4288 -0.0760
 4281SOL    HW213654   7.504   0.085   0.915  0.8335  0.6605  1.2777
 4282SOL     OW13655   3.874   0.077   7.431 -0.3501  0.0011  0.3858
 4282SOL    HW113656   3.900  -0.000   7.481 -0.6080 -0.2272  0.1683
 4282SOL    HW213657   3.789   0.054   7.395  0.2564 -0.2071 -0.9670
 4283SOL     OW13658   3.884   3.261   3.606 -0.0209  0.0668 -0.0823
 4283SOL    HW113659   3.954   3.214   3.651  1.0344 -0.1635 -1.8795
 4283SOL    HW213660   3.896   3.353   3.632  1.5966  0.1856 -1.1203
 4284SOL     OW13661   5.210   5.922   6.313  0.0726  0.1457  0.7847
 4284SOL    HW113662   5.190   5.847   6.369  0.7989 -0.5739  0.1071
 4284SOL    HW213663   5.305   5.933   6.322  0.0360  0.6825  0.5141
 4285SOL     OW13664   2.495   0.990   6.169  0.0092 -0.1696  0.2617
 4285SOL    HW113665   2.542   0.949   6.242  0.2825 -0.1439  0.1016
 4285SOL    HW213666   2.475   0.918   6.109  0.1982 -0.1210  0.1385
 4286SOL     OW13667   6.037   5.194   0.407 -0.0206  0.3280 -0.3177
 4286SOL    HW113668   6.062   5.141   0.331 -0.6680  1.0076 -1.0251
 4286SOL    HW213669   5.976   5.138   0.456  0.9709 -0.3998  0.1282
 4287SOL     OW13670   0.606   3.410   0.750 -0.7227  0.8026  0.8273
 4287SOL    HW113671   0.613   3.466   0.673 -0.1121  0.7811  0.8642
 4287SOL    HW213672   0.526   3.359   0.735 -0.3715  0.4808  0.0057
 4288SOL     OW13673   5.636   6.982   2.606  0.4224  0.0683  0.0362
 4288SOL    HW113674   5.611   6.893   2.633  1.1200 -0.5861 -1.3359
 4288SOL    HW213675   5.731   6.984   2.618  0.6573 -0.0003 -1.5800
 4289SOL     OW13676   4.999   2.448   1.196 -0.0832 -0.2215  0.4354
 4289SOL    HW113677   5.009   2.514   1.264 -1.7778 -0.3260  0.8350
 4289SOL    HW213678   5.057   2.377   1.223  1.6236  0.9711  0.1004
 4290SOL     OW13679   2.949   6.239   4.494  0.7440 -0.0300  0.1805
 4290SOL    HW113680   2.913   6.162   4.450  2.0841 -1.0082  0.7011
 4290SOL    HW213681   2.897   6.312   4.461 -1.9769 -1.3528  1.1966
 4291SOL     OW13682   0.065   3.995   4.324 -0.1512  0.0487  0.0688
 4291SOL    HW113683   0.052   4.004   4.418  0.3349  0.5462  0.0939
 4291SOL    HW213684   0.160   3.997   4.312 -0.1547 -1.3673 -0.3092
 4292SOL     OW13685   6.809   6.865   1.841 -0.2061  0.1479 -0.1037
 4292SOL    HW113686   6.783   6.815   1.763  0.3176  0.0506 -0.2173
 4292SOL    HW213687   6.729   6.869   1.894 -0.4818 -0.0618 -0.4953
 4293SOL     OW13688   1.987   5.705   1.448 -0.5642 -0.0735 -0.0311
 4293SOL    HW113689   2.065   5.736   1.494 -0.4651  2.3099 -1.6084
 4293SOL    HW213690   2.001   5.611   1.437 -0.3189 -0.7014  4.0664
 4294SOL     OW13691   0.119   7.482   3.658  0.4021 -0.1890  0.0788
 4294SOL    HW113692   0.055   7.430   3.609 -0.1849  0.5550  0.0394
 4294SOL    HW213693   0.198   7.480   3.604  0.9607 -2.4390  0.8748
 4295SOL     OW13694   7.458   0.298   5.913  0.3433 -0.5541 -0.3726
 4295SOL    HW113695   7.388   0.359   5.937  0.7833 -0.5018  0.8426
 4295SOL    HW213696   7.424   0.251   5.837 -0.3976  0.5220 -0.7281
 4296SOL     OW13697   5.406   7.481   4.172  0.7650 -0.1114  0.3460
 4296SOL    HW113698   5.325   7.456   4.215  0.2875 -2.4328 -1.7217
 4296SOL    HW213699   5.474   7.464   4.238 -0.2447  0.6325  1.6471
 4297SOL     OW13700   5.933   2.432   4.475 -0.0542  0.0841  0.1680
 4297SOL    HW113701   5.918   2.344   4.441 -1.6074  0.7147 -0.8876
 4297SOL    HW213702   5.978   2.478   4.404 -0.3255  0.4823  0.2510
 4298SOL     OW13703   7.784   3.351   5.625  0.4235 -0.8324  0.2758
 4298SOL    HW113704   7.706   3.323   5.576  1.0357 -2.1070 -0.0218
 4298SOL    HW213705   7.793   3.444   5.604 -0.9172 -0.6947  0.1826
 4299SOL     OW13706   7.705   0.299   2.467 -0.1193  0.6666 -0.2418
 4299SOL    HW113707   7.615   0.272   2.446 -0.9721  2.4911  0.8554
 4299SOL    HW213708   7.751   0.293   2.384 -1.2553 -0.2648 -0.8431
 4300SOL     OW13709   4.229   2.958   1.387 -0.0288 -0.7138 -0.0110
 4300SOL    HW113710   4.313   3.005   1.389 -0.1094 -0.5745  0.2895
 4300SOL    HW213711   4.226   2.912   1.471 -1.0714  0.7420  0.7947
 4301SOL     OW13712   5.211   2.341   5.692 -0.0079 -0.0167  0.1863
 4301SOL    HW113713   5.229   2.289   5.771  0.0607 -0.4290 -0.0975
 4301SOL    HW213714   5.292   2.388   5.676 -0.0499  0.1344  0.4120
 4302SOL     OW13715   1.872   2.818   1.705  0.1093  0.1434 -0.3341
 4302SOL    HW113716   1.949   2.866   1.734  1.5454 -1.9848 -0.3815
 4302SOL    HW213717   1.825   2.879   1.648  2.4874  1.0803 -1.4190
 4303SOL     OW13718   6.475   6.419   3.279  0.3129  0.5629  0.8817
 4303SOL    HW113719   6.392   6.447   3.318 -1.2721 -2.2958 -0.1882
 4303SOL    HW213720   6.538   6.426   3.351 -0.9531  2.1464  1.9293
 4304SOL     OW13721   7.543   1.502   5.924 -0.0309  0.7026  0.0658
 4304SOL    HW113722   7.604   1.429   5.921  0.1415  0.7678  1.4918
 4304SOL    HW213723   7.552   1.544   5.838  1.9299  0.7267  0.2394
 4305SOL     OW13724   3.158   3.362   0.250 -0.3172  0.0957 -0.7091
 4305SOL    HW113725   3.199   3.308   0.182  0.0265  0.3742 -0.7253
 4305SOL    HW213726   3.207   3.444   0.248  1.0824 -0.6074  1.2928
 4306SOL     OW13727   7.576   1.245   5.576 -0.4879  0.6620 -0.2803
 4306SOL    HW113728   7.645   1.185   5.548 -0.5493  1.1814 -1.6497
 4306SOL    HW213729   7.597   1.327   5.532 -0.0208  1.8989  2.1030
 4307SOL     OW13730   5.432   0.436   2.294 -0.2028 -0.0999 -0.4609
 4307SOL    HW113731   5.449   0.530   2.299 -2.5776  0.4858 -1.5902
 4307SOL    HW213732   5.455   0.402   2.380  0.7186  1.4885 -0.0400
 4308SOL     OW13733   4.456   3.806   7.379  0.7136 -0.1328  0.5492
 4308SOL    HW113734   4.456   3.743   7.451  0.6826  0.0174  0.6782
 4308SOL    HW213735   4.520   3.872   7.404  1.3315 -0.5276  0.0511
 4309SOL     OW13736   3.706   5.525   4.512  0.5461  0.5750  0.1842
 4309SOL    HW113737   3.673   5.467   4.444 -2.2233  0.8490  1.1710
 4309SOL    HW213738   3.794   5.492   4.531 -0.1040 -1.9591 -0.7783
 4310SOL     OW13739   3.595   6.651   3.458 -0.3268  0.5094 -0.2855
 4310SOL    HW113740   3.639   6.701   3.527  0.4134  0.5217 -0.7547
 4310SOL    HW213741   3.513   6.697   3.445 -0.2227  0.8450  0.1895
 4311SOL     OW13742   5.080   0.975   2.913  0.4007 -0.3948  0.1668
 4311SOL    HW113743   5.039   1.061   2.924  0.6312 -0.3071  0.3376
 4311SOL    HW213744   5.012   0.913   2.940  0.3569 -0.2516  0.3839
 4312SOL     OW13745   4.603   3.759   0.214 -0.1113  0.0381  0.1613
 4312SOL    HW113746   4.670   3.787   0.151  0.0316 -0.7033 -0.0216
 4312SOL    HW213747   4.603   3.664   0.209 -0.1747 -0.0237  1.2176
 4313SOL     OW13748   7.101   7.746   1.376 -0.2831  0.2171  0.0964
 4313SOL    HW113749   7.137   7.796   1.449 -0.5755  0.3414  0.1553
 4313SOL    HW213750   7.148   7.662   1.379  1.7709  1.2305 -1.2936
 4314SOL     OW13751   6.829   6.766   5.669  0.2308 -0.1311  0.0744
 4314SOL    HW113752   6.864   6.692   5.620 -0.1477 -1.1532  1.3012
 4314SOL    HW213753   6.747   6.787   5.625 -0.0544 -0.9653  0.1839
 4315SOL     OW13754   1.910   4.964   0.122 -0.0276  0.3020  0.1281
 4315SOL    HW113755   1.908   4.877   0.162  0.7280  0.5964  0.8363
 4315SOL    HW213756   1.914   4.947   0.028  1.1171 -0.4580  0.2920
 4316SOL     OW13757   5.291   6.009   4.196  0.5617 -0.1540  0.1326
 4316SOL    HW113758   5.199   6.013   4.170  0.9323  1.5724 -1.1529
 4316SOL    HW213759   5.289   5.988   4.289 -0.9974 -2.6895 -0.3856
 4317SOL     OW13760   2.836   3.993   5.595 -0.7177 -0.2320 -0.4422
 4317SOL    HW113761   2.814   3.993   5.688 -1.2693  0.3157 -0.5660
 4317SOL    HW213762   2.753   3.978   5.551 -0.5333 -0.0134 -0.8629
 4318SOL     OW13763   3.141   7.821   7.478 -0.1934  0.3628  0.4044
 4318SOL    HW113764   3.173   7.837   7.566 -0.9116  0.4811  0.6494
 4318SOL    HW213765   3.071   7.757   7.489  1.0034 -1.1575 -0.2905
 4319SOL     OW13766   5.977   2.247   2.393 -0.1751  0.3636  0.0102
 4319SOL    HW113767   6.020   2.220   2.474  0.6727  1.2732 -0.1121
 4319SOL    HW213768   5.886   2.262   2.417  0.2194  1.2988  0.9610
 4320SOL     OW13769   1.869   7.192   4.830  0.7175 -0.0375 -0.2957
 4320SOL    HW113770   1.847   7.116   4.777  4.7264 -0.0719 -2.2967
 4320SOL    HW213771   1.860   7.267   4.770 -0.1243  0.7101  0.7179
 4321SOL     OW13772   4.929   1.219   2.647 -0.2794 -0.7107  0.1486
 4321SOL    HW113773   4.864   1.156   2.678  0.5648 -1.2151  0.9309
 4321SOL    HW213774   4.974   1.249   2.726 -0.1486  0.3088 -0.2863
 4322SOL     OW13775   4.624   1.281   7.640  0.0266  0.2551 -0.4302
 4322SOL    HW113776   4.612   1.362   7.689  1.7273  0.7524 -0.7758
 4322SOL    HW213777   4.555   1.283   7.573  0.3424  1.6629 -0.7458
 4323SOL     OW13778   3.390   7.020   4.604  0.1397  0.4350 -0.0570
 4323SOL    HW113779   3.447   7.097   4.594  2.3832 -0.8224  1.9392
 4323SOL    HW213780   3.427   6.956   4.543 -0.8036  0.4424 -0.6466
 4324SOL     OW13781   3.488   7.115   2.609  0.2331 -0.5882  0.0490
 4324SOL    HW113782   3.439   7.174   2.552 -0.4828 -0.4829  0.7408
 4324SOL    HW213783   3.488   7.159   2.694  3.0011  0.2202 -0.2651
 4325SOL     OW13784   2.335   7.386   6.664 -0.4071  0.5301 -0.4477
 4325SOL    HW113785   2.349   7.467   6.714 -0.5742 -0.4450  1.2511
 4325SOL    HW213786   2.422   7.365   6.629  0.4111 -0.2896  1.8889
 4326SOL     OW13787   1.100   7.242   5.004  0.0555  0.6834  0.1521
 4326SOL    HW113788   1.006   7.241   5.023  0.2706 -1.1680  1.4025
 4326SOL    HW213789   1.135   7.309   5.063 -0.4808  1.5231 -0.4596
 4327SOL     OW13790   1.847   1.261   1.391 -0.2655  0.2288  0.4331
 4327SOL    HW113791   1.922   1.273   1.333  0.6900 -2.2651  0.9933
 4327SOL    HW213792   1.799   1.188   1.352 -2.1611  1.4359  0.3819
 4328SOL     OW13793   7.614   3.232   6.767  0.0081 -0.0761 -0.2549
 4328SOL    HW113794   7.667   3.166   6.812  1.1114  1.1603  0.3366
 4328SOL    HW213795   7.667   3.312   6.771 -1.9153  1.2427  0.4249
 4329SOL     OW13796   0.805   1.683   6.538  0.2313  0.1485  0.6542
 4329SOL    HW113797   0.728   1.717   6.495  0.0425 -0.2833  0.6442
 4329SOL    HW213798   0.874   1.688   6.472 -0.0328 -0.4167  0.3236
 4330SOL     OW13799   2.855   6.503   6.853 -0.3220 -0.2290  0.7518
 4330SOL    HW113800   2.798   6.571   6.817 -1.1629 -0.3878  1.7409
 4330SOL    HW213801   2.879   6.535   6.940 -0.2187 -0.9210  0.9811
 4331SOL     OW13802   6.314   6.903   2.157 -0.6784 -0.3901 -0.2862
 4331SOL    HW113803   6.354   6.989   2.146 -1.0944 -0.2148 -0.4512
 4331SOL    HW213804   6.295   6.897   2.251  1.9114 -1.4595  0.2606
 4332SOL     OW13805   6.118   3.202   6.779 -0.6061 -0.5727  0.1433
 4332SOL    HW113806   6.194   3.232   6.728 -0.0343  1.2699  1.9557
 4332SOL    HW213807   6.155   3.138   6.840 -0.9367 -1.3101 -0.4156
 4333SOL     OW13808   2.696   6.120   4.107 -0.3918 -0.0191 -0.5733
 4333SOL    HW113809   2.637   6.045   4.109 -0.3363 -0.0455  0.3664
 4333SOL    HW213810   2.769   6.092   4.051 -0.3828 -0.6578 -0.2447
 4334SOL     OW13811   0.074   4.637   1.276  0.2789  0.0258  0.0430
 4334SOL    HW113812   0.131   4.699   1.322 -0.6809 -0.9600  2.7391
 4334SOL    HW213813  -0.012   4.680   1.274  0.4213  0.2918 -1.4230
 4335SOL     OW13814   0.461   1.181   0.661 -0.0425  0.2058 -0.3804
 4335SOL    HW113815   0.529   1.247   0.644  1.6898 -1.7747 -1.6110
 4335SOL    HW213816   0.383   1.214   0.617  0.7991  1.3782 -1.0400
 4336SOL     OW13817   1.141   1.725   5.885  0.2800  0.0727 -0.1794
 4336SOL    HW113818   1.111   1.795   5.827 -0.2900  0.0027  0.0262
 4336SOL    HW213819   1.224   1.697   5.847  0.6540  1.0547 -0.1056
 4337SOL     OW13820   0.989   2.461   7.233  0.0002  0.4299 -0.5785
 4337SOL    HW113821   0.973   2.483   7.141 -1.4998  0.4635 -0.3198
 4337SOL    HW213822   1.084   2.474   7.244  0.1716  0.6075 -2.0600
 4338SOL     OW13823   0.857   1.885   3.100  0.1506 -0.4293 -0.2906
 4338SOL    HW113824   0.864   1.797   3.062 -1.3317 -0.9945  0.6350
 4338SOL    HW213825   0.900   1.877   3.185 -0.9700 -0.6245  0.2893
 4339SOL     OW13826   1.852   1.709   7.495 -0.8195 -0.4309 -0.2096
 4339SOL    HW113827   1.908   1.705   7.418  0.0867 -1.1482  0.4639
 4339SOL    HW213828   1.912   1.713   7.569 -1.6672  0.3356  0.4721
 4340SOL     OW13829   4.243   5.282   7.020 -0.4130 -0.1405  0.1293
 4340SOL    HW113830   4.264   5.282   7.113  2.1541  0.4935 -0.3585
 4340SOL    HW213831   4.264   5.371   6.991  0.9152 -0.8911 -1.4081
 4341SOL     OW13832   6.410   1.848   6.920  0.2609 -0.5438 -0.0535
 4341SOL    HW113833   6.315   1.846   6.907  0.1229 -1.5299  0.9958
 4341SOL    HW213834   6.444   1.781   6.861  0.0127 -2.1747  1.5797
 4342SOL     OW13835   4.121   0.522   5.804  0.1914  0.2358  0.2000
 4342SOL    HW113836   4.075   0.461   5.862  0.4319  0.7042  0.8969
 4342SOL    HW213837   4.127   0.476   5.721  0.1656 -0.6041  0.6524
 4343SOL     OW13838   1.108   6.435   4.910  0.0843  1.0580 -0.1638
 4343SOL    HW113839   1.120   6.493   4.985  3.0554  0.1141  0.2633
 4343SOL    HW213840   1.049   6.482   4.852 -0.9134  2.6068  1.9557
 4344SOL     OW13841   7.962   5.244   4.836  0.3758 -0.3490 -0.4754
 4344SOL    HW113842   7.946   5.330   4.876  0.2307 -0.9201  0.7106
 4344SOL    HW213843   8.047   5.254   4.792  0.8661  0.0920  0.5389
 4345SOL     OW13844   0.347   0.637   3.237 -0.2846  0.1277  0.0938
 4345SOL    HW113845   0.355   0.587   3.156 -0.9030  0.2129 -0.0189
 4345SOL    HW213846   0.421   0.698   3.235  1.1188 -1.4605  0.7265
 4346SOL     OW13847   7.977   4.192   7.412  0.6071 -0.4061 -0.3777
 4346SOL    HW113848   8.047   4.204   7.348  1.1670 -3.5263 -0.5108
 4346SOL    HW213849   7.899   4.174   7.359  0.1849  0.8574 -0.2022
 4347SOL     OW13850   7.335   1.215   2.120  0.1064  0.0579  0.0344
 4347SOL    HW113851   7.412   1.160   2.107  0.3959  0.4660  0.0217
 4347SOL    HW213852   7.261   1.156   2.105  0.4186 -0.1372 -0.7517
 4348SOL     OW13853   3.122   7.044   1.072  0.4629 -0.3878 -0.8022
 4348SOL    HW113854   3.202   7.097   1.076  0.1402  0.1239 -1.0766
 4348SOL    HW213855   3.106   7.019   1.163 -0.0497  0.9922 -0.4908
 4349SOL     OW13856   1.050   2.129   6.096 -0.3719  0.4160 -0.2256
 4349SOL    HW113857   0.991   2.190   6.141 -1.3450 -0.5091 -0.1992
 4349SOL    HW213858   0.994   2.085   6.032  0.5311  0.2268 -0.9074
 4350SOL     OW13859   5.235   2.247   2.853  0.1965 -0.3921 -0.2151
 4350SOL    HW113860   5.162   2.308   2.859  0.3010 -0.3113  0.2800
 4350SOL    HW213861   5.244   2.228   2.759  0.4534  0.7031 -0.4201
 4351SOL     OW13862   3.551   1.765   0.001 -0.1198  0.4685  0.0105
 4351SOL    HW113863   3.630   1.762  -0.052  0.2546 -2.5260  0.5848
 4351SOL    HW213864   3.483   1.730  -0.056 -0.3460  0.0430  0.5318
 4352SOL     OW13865   2.303   6.305   7.596  0.3822 -0.9566 -0.3362
 4352SOL    HW113866   2.312   6.272   7.507 -0.9579  1.2590 -1.3831
 4352SOL    HW213867   2.229   6.256   7.632 -2.0833  1.1249 -2.1264
 4353SOL     OW13868   2.356   0.342   2.098  0.0335  0.4531  0.5030
 4353SOL    HW113869   2.390   0.264   2.054  0.3481  1.6457 -1.4776
 4353SOL    HW213870   2.261   0.332   2.094  0.0653  0.3218 -0.0615
 4354SOL     OW13871   4.697   7.322   6.427 -0.3365 -0.5094 -0.2756
 4354SOL    HW113872   4.748   7.403   6.415 -1.4544  0.4275  0.9639
 4354SOL    HW213873   4.675   7.321   6.520 -2.0825 -1.1654 -0.6504
 4355SOL     OW13874   6.920   0.498   6.014 -0.4786 -0.1645  0.0937
 4355SOL    HW113875   6.944   0.433   5.948 -0.8961  0.7767 -1.0353
 4355SOL    HW213876   7.004   0.530   6.048 -0.2715 -1.9150  1.3434
 4356SOL     OW13877   6.185   3.703   5.437 -0.8136 -0.4540 -0.2661
 4356SOL    HW113878   6.196   3.740   5.524 -3.3932 -0.3997  0.0900
 4356SOL    HW213879   6.210   3.773   5.377  0.9163 -0.4736  0.3576
 4357SOL     OW13880   3.306   3.594   0.258 -0.0933 -0.5504 -0.3974
 4357SOL    HW113881   3.401   3.603   0.251 -0.3060  0.9661 -1.7788
 4357SOL    HW213882   3.272   3.683   0.253 -1.6600 -1.1512 -1.3747
 4358SOL     OW13883   2.754   2.700   0.667 -0.0728 -0.9258 -0.1901
 4358SOL    HW113884   2.672   2.745   0.688 -0.0393 -0.8114 -0.3026
 4358SOL    HW213885   2.728   2.613   0.637 -0.1503 -0.9046 -0.1829
 4359SOL     OW13886   3.561   5.902   1.835  0.2380 -0.2912 -0.7520
 4359SOL    HW113887   3.643   5.903   1.883 -0.6962  0.3850  0.8966
 4359SOL    HW213888   3.539   5.995   1.823 -0.8338 -0.4538 -0.1593
 4360SOL     OW13889   0.691   7.620   3.591 -0.7340  0.0188 -0.0348
 4360SOL    HW113890   0.696   7.712   3.618 -0.6475  0.5322 -1.6645
 4360SOL    HW213891   0.604   7.591   3.620 -0.8430  0.6713  0.3145
 4361SOL     OW13892   0.016   2.095   4.387 -0.2655 -0.0764 -0.6835
 4361SOL    HW113893   0.038   2.092   4.480 -0.7558  0.1506 -0.5574
 4361SOL    HW213894  -0.049   2.165   4.380 -0.5996 -0.4284 -1.1195
 4362SOL     OW13895   1.897   7.714   1.838 -0.1361  0.8708 -0.4523
 4362SOL    HW113896   1.966   7.738   1.777  0.8665  0.4269  0.4836
 4362SOL    HW213897   1.882   7.793   1.891 -0.8534  1.1859 -1.0973
 4363SOL     OW13898   5.406   3.038   6.567  0.3835  0.3416  0.3871
 4363SOL    HW113899   5.339   3.100   6.537  0.0293  0.8682  2.1404
 4363SOL    HW213900   5.478   3.048   6.505  0.3243  2.5029  0.5951
 4364SOL     OW13901   6.689   2.984   2.427  0.0579 -0.4317  0.0261
 4364SOL    HW113902   6.605   2.945   2.403 -0.3676  0.5673 -0.1863
 4364SOL    HW213903   6.742   2.978   2.347 -0.6049  0.9370 -0.5522
 4365SOL     OW13904   3.019   3.695   7.957 -0.7962 -0.9081 -0.2472
 4365SOL    HW113905   3.064   3.719   7.877 -0.7201  1.6340  0.4935
 4365SOL    HW213906   3.086   3.700   8.025 -1.0434 -2.2597  0.1255
 4366SOL     OW13907   6.116   7.663   5.916 -0.7639 -0.7389 -0.3394
 4366SOL    HW113908   6.066   7.591   5.878 -0.4167  0.1326 -2.5985
 4366SOL    HW213909   6.084   7.741   5.872  1.0353  0.0975 -0.2591
 4367SOL     OW13910   3.416   7.204   3.438 -0.3063  0.2181  0.5510
 4367SOL    HW113911   3.333   7.176   3.400 -0.2878 -1.8391  1.8620
 4367SOL    HW213912   3.460   7.122   3.462  2.1911  1.2190 -0.2174
 4368SOL     OW13913   1.552   3.065   1.826 -0.1495  0.3417 -0.7283
 4368SOL    HW113914   1.638   3.051   1.786 -0.0625 -0.5574 -0.2579
 4368SOL    HW213915   1.491   3.059   1.752  0.0971 -0.2597 -0.8956
 4369SOL     OW13916   5.840   3.248   2.708 -0.3489  0.2257  0.1461
 4369SOL    HW113917   5.841   3.343   2.697  1.5031  0.1458 -0.8484
 4369SOL    HW213918   5.898   3.216   2.640 -1.6457 -1.7201 -0.1068
 4370SOL     OW13919   0.489   7.355   1.950 -0.9489 -0.2914 -0.6532
 4370SOL    HW113920   0.508   7.318   2.036  1.5884  1.7832 -0.2234
 4370SOL    HW213921   0.478   7.279   1.893 -1.6752 -1.6968  1.2487
 4371SOL     OW13922   0.461   0.703   2.725 -0.1559 -0.2269 -0.3728
 4371SOL    HW113923   0.468   0.736   2.635 -0.1376  2.4530  0.5297
 4371SOL    HW213924   0.366   0.699   2.741 -0.1525 -0.4560 -0.3996
 4372SOL     OW13925   7.779   5.133   5.976 -0.2811  0.2040  0.5680
 4372SOL    HW113926   7.830   5.139   6.057 -0.8539  1.2253  0.8811
 4372SOL    HW213927   7.688   5.128   6.006 -0.4012 -1.3060  0.0138
 4373SOL     OW13928   6.095   6.217   5.478  0.0856 -0.3268  0.6101
 4373SOL    HW113929   6.182   6.254   5.494 -0.7758  2.0359  0.3299
 4373SOL    HW213930   6.100   6.181   5.390  0.8330 -0.3647  0.6624
 4374SOL     OW13931   7.839   6.680   0.697  0.2670  0.2419 -0.6770
 4374SOL    HW113932   7.884   6.743   0.753 -1.2866  1.9095 -1.1968
 4374SOL    HW213933   7.900   6.665   0.625  1.4171 -0.3016  0.3771
 4375SOL     OW13934   6.963   4.321   3.853  0.0434  0.0808 -0.1048
 4375SOL    HW113935   6.963   4.229   3.826 -1.9438  0.2296 -0.8272
 4375SOL    HW213936   6.935   4.319   3.944  1.3715 -0.0992  0.3089
 4376SOL     OW13937   4.727   2.052   6.680 -0.0425  0.5699 -0.2146
 4376SOL    HW113938   4.809   2.093   6.708  0.5353 -0.6711  0.0333
 4376SOL    HW213939   4.692   2.110   6.613  0.7918  1.3782  0.0311
 4377SOL     OW13940   1.542   2.274   7.665  0.2444 -0.0724 -0.2638
 4377SOL    HW113941   1.450   2.297   7.659  0.0487 -0.1299  1.7756
 4377SOL    HW213942   1.548   2.218   7.743  1.9506 -0.3150 -0.5243
 4378SOL     OW13943   1.810   1.053   2.795 -0.2271  0.3650  0.1284
 4378SOL    HW113944   1.740   1.096   2.746  0.0625  1.0092  0.2703
 4378SOL    HW213945   1.865   1.125   2.826  1.7978 -0.1823 -1.8933
 4379SOL     OW13946   1.228   0.783   5.677  0.1190 -0.7117 -0.5268
 4379SOL    HW113947   1.237   0.805   5.584  0.9077 -1.7104 -0.7017
 4379SOL    HW213948   1.155   0.837   5.707 -1.4533 -1.8080 -2.1913
 4380SOL     OW13949   0.673   6.892   4.953 -0.1711  1.2435  0.1795
 4380SOL    HW113950   0.619   6.837   5.010  0.7982 -1.4068 -1.2753
 4380SOL    HW213951   0.759   6.891   4.994  0.2605  0.2383 -0.7233
 4381SOL     OW13952   1.449   4.688   6.572 -0.4410 -0.2107  0.7175
 4381SOL    HW113953   1.411   4.759   6.519  2.8246  1.4546  0.3525
 4381SOL    HW213954   1.527   4.661   6.523 -1.1021 -3.5690  1.2829
 4382SOL     OW13955   3.392   2.769   7.644  0.1432 -0.3808  0.1436
 4382SOL    HW113956   3.343   2.782   7.725 -0.9074 -1.7535 -0.2356
 4382SOL    HW213957   3.454   2.698   7.664  0.7542  0.1308  0.0973
 4383SOL     OW13958   2.493   6.743   7.894 -0.0920  0.1769  0.4021
 4383SOL    HW113959   2.414   6.796   7.904 -0.3556 -0.1185 -0.0797
 4383SOL    HW213960   2.463   6.653   7.905  0.3477  0.1134  1.1844
 4384SOL     OW13961   1.387   0.941   7.485 -0.1368 -0.7036  0.2970
 4384SOL    HW113962   1.398   0.866   7.543  3.0088  0.1908  1.0123
 4384SOL    HW213963   1.414   1.017   7.537 -0.4566  0.5760 -1.2977
 4385SOL     OW13964   2.049   3.054   0.308  0.7761 -0.0587  0.0200
 4385SOL    HW113965   2.061   3.108   0.386 -1.3977  0.3781  0.1053
 4385SOL    HW213966   2.026   3.116   0.239 -0.8543 -0.7553 -0.0957
 4386SOL     OW13967   4.334   6.434   4.440  0.2042  0.3053 -0.1527
 4386SOL    HW113968   4.359   6.370   4.374 -2.5388 -0.1310 -0.9171
 4386SOL    HW213969   4.354   6.519   4.400  1.7659 -0.0081 -0.0680
 4387SOL     OW13970   0.039   4.769   0.711  0.7085  0.0944  0.0371
 4387SOL    HW113971   0.046   4.744   0.803 -0.5068  0.9915  0.3957
 4387SOL    HW213972   0.086   4.852   0.705  2.3231 -0.8127 -0.5611
 4388SOL     OW13973   4.123   6.063   5.922 -0.3301 -0.2850 -0.5093
 4388SOL    HW113974   4.044   6.116   5.929 -0.1434 -0.0003 -0.5517
 4388SOL    HW213975   4.103   5.984   5.971 -0.4095  0.0622  0.0197
 4389SOL     OW13976   3.012   6.602   1.211 -0.1326 -0.4308 -0.2725
 4389SOL    HW113977   3.052   6.537   1.153 -0.9938 -0.6313 -0.6531
 4389SOL    HW213978   2.921   6.574   1.220 -0.2019  0.0404  0.5556
 4390SOL     OW13979   3.597   4.614   5.082 -0.3853 -0.0265 -0.2998
 4390SOL    HW113980   3.649   4.684   5.120 -1.7260 -0.0972  1.8740
 4390SOL    HW213981   3.651   4.536   5.091 -0.3766  0.0972  0.8662
 4391SOL     OW13982   2.695   6.927   7.278 -0.1212  0.7068 -0.6612
 4391SOL    HW113983   2.703   6.984   7.354 -0.6102 -0.3853  0.2395
 4391SOL    HW213984   2.607   6.890   7.284 -0.1744  0.5978 -1.7685
 4392SOL     OW13985   6.756   3.269   2.891  0.0952 -0.0591  0.4569
 4392SOL    HW113986   6.751   3.320   2.810 -0.0195  1.6835  1.5097
 4392SOL    HW213987   6.667   3.237   2.905  0.0680 -0.1815  0.0190
 4393SOL     OW13988   7.863   3.029   6.135  0.3881 -0.2978  0.0213
 4393SOL    HW113989   7.833   3.117   6.111  1.1261 -0.1380 -0.3464
 4393SOL    HW213990   7.906   3.042   6.220  0.7975 -0.2389 -0.1939
 4394SOL     OW13991   7.193   5.622   5.939 -0.1631 -0.2818  0.1126
 4394SOL    HW113992   7.154   5.643   6.023 -3.8552  0.8125 -1.6591
 4394SOL    HW213993   7.217   5.529   5.946 -0.3123 -0.2028  2.3172
 4395SOL     OW13994   0.632   4.743   3.737  0.3625  0.5821 -0.0231
 4395SOL    HW113995   0.564   4.769   3.674 -0.7546  0.6040  1.1416
 4395SOL    HW213996   0.698   4.700   3.683 -0.4701  0.7484 -1.2425
 4396SOL     OW13997   7.131   0.566   5.488 -0.1444  0.4050 -0.1575
 4396SOL    HW113998   7.137   0.661   5.495  0.1155  0.3846 -0.1063
 4396SOL    HW213999   7.171   0.544   5.404 -1.0246  0.4184 -0.6017
 4397SOL     OW14000   0.164   2.644   3.277  0.0215  0.0298  0.2597
 4397SOL    HW114001   0.215   2.698   3.216  0.4624 -0.6997 -0.0321
 4397SOL    HW214002   0.095   2.702   3.309  0.8932  0.9665  0.4757
 4398SOL     OW14003   4.271   3.559   5.544  0.4964 -0.7648  0.2051
 4398SOL    HW114004   4.316   3.614   5.608 -0.3866 -1.8447  1.8193
 4398SOL    HW214005   4.237   3.621   5.479  1.5121  0.3456  0.6927
 4399SOL     OW14006   1.294   7.190   3.596 -0.0605  0.6159 -0.1479
 4399SOL    HW114007   1.259   7.142   3.671 -1.1487 -0.1199 -1.0976
 4399SOL    HW214008   1.298   7.281   3.625 -0.1443  0.2998  0.9022
 4400SOL     OW14009   6.370   0.336   0.704 -0.3081  0.4978  0.0037
 4400SOL    HW114010   6.299   0.301   0.756 -0.1548  0.3236  0.0965
 4400SOL    HW214011   6.382   0.273   0.633 -0.3445  0.6027 -0.0974
 4401SOL     OW14012   7.243   7.477   1.040 -0.0992 -0.0661  0.4056
 4401SOL    HW114013   7.177   7.461   1.108 -1.7523  0.3287 -1.0426
 4401SOL    HW214014   7.311   7.527   1.085 -1.4224  0.7221  1.6357
 4402SOL     OW14015   4.691   1.092   0.504 -0.5207  0.6758  0.3456
 4402SOL    HW114016   4.704   1.118   0.595  3.4669 -1.2726  0.5665
 4402SOL    HW214017   4.688   0.996   0.507  1.5920  0.4643 -1.6287
 4403SOL     OW14018   0.569   5.934   3.212  0.0636 -0.1083  0.5137
 4403SOL    HW114019   0.598   5.854   3.256 -0.6758 -1.5981 -1.5492
 4403SOL    HW214020   0.509   5.975   3.274  0.8104 -0.8834  1.7940
 4404SOL     OW14021   3.213   1.657   5.295  0.2805 -0.5924 -0.0323
 4404SOL    HW114022   3.188   1.565   5.288 -1.5892 -0.0063 -2.4441
 4404SOL    HW214023   3.275   1.670   5.224 -1.0285  0.4042 -1.0433
 4405SOL     OW14024   1.001   6.216   0.983  0.1614  0.2343  0.2436
 4405SOL    HW114025   0.975   6.252   1.068 -3.6771 -2.3459  0.4141
 4405SOL    HW214026   0.934   6.247   0.922  1.8984  0.6564 -1.5439
 4406SOL     OW14027   0.405   5.106   0.823  0.4303 -0.0958 -0.0931
 4406SOL    HW114028   0.423   5.195   0.792  1.7968  0.3666  1.8250
 4406SOL    HW214029   0.490   5.072   0.851 -0.3121 -1.3667  0.7532
 4407SOL     OW14030   7.244   7.593   3.585  0.1599 -0.3539  0.5452
 4407SOL    HW114031   7.270   7.683   3.565 -0.7602 -0.2408 -0.1937
 4407SOL    HW214032   7.209   7.559   3.503 -0.3555 -1.0807  1.0557
 4408SOL     OW14033   6.681   4.294   7.195  0.6608  0.6084 -0.3985
 4408SOL    HW114034   6.773   4.281   7.172  0.8131 -0.2083  0.5916
 4408SOL    HW214035   6.676   4.385   7.224  1.6190  0.1079  1.4926
 4409SOL     OW14036   3.428   0.139   6.327  0.0644 -0.3404  0.0906
 4409SOL    HW114037   3.507   0.169   6.283 -0.3471  2.7842  1.2562
 4409SOL    HW214038   3.359   0.149   6.261  0.0421  0.7253  0.2634
 4410SOL     OW14039   0.996   0.484   0.747  0.2612 -0.0920  0.4448
 4410SOL    HW114040   1.074   0.538   0.743  0.0635  0.1777  0.2314
 4410SOL    HW214041   0.963   0.483   0.658 -0.0963 -0.0325  0.5755
 4411SOL     OW14042   4.865   7.835   4.165 -0.0341 -1.2335 -0.4809
 4411SOL    HW114043   4.906   7.888   4.233 -0.2469  0.0307 -1.3084
 4411SOL    HW214044   4.934   7.822   4.099 -0.5744 -0.1541 -1.2855
 4412SOL     OW14045   6.895   4.636   1.674  0.0992 -0.3657  0.2153
 4412SOL    HW114046   6.802   4.657   1.669 -0.4589 -2.7648 -2.1854
 4412SOL    HW214047   6.935   4.711   1.717 -2.7256  1.4225 -0.0288
 4413SOL     OW14048   4.326   3.205   6.632 -0.4538  0.2117 -0.1932
 4413SOL    HW114049   4.383   3.132   6.609  1.4940  1.6715 -0.2153
 4413SOL    HW214050   4.301   3.188   6.723 -2.3987 -1.8904 -1.0015
 4414SOL     OW14051   0.437   7.954   6.567  0.0719 -0.2155 -0.1770
 4414SOL    HW114052   0.506   7.988   6.622 -1.3526  0.1200  1.4882
 4414SOL    HW214053   0.399   8.031   6.524 -1.1383  0.0069  1.2040
 4415SOL     OW14054   1.656   2.435   6.053 -0.3076  0.2470 -0.1585
 4415SOL    HW114055   1.742   2.402   6.028 -0.7623  1.0117 -3.1253
 4415SOL    HW214056   1.620   2.368   6.112  0.5676 -2.3040 -2.3563
 4416SOL     OW14057   2.384   4.709   4.444  0.6845 -0.4146 -0.4433
 4416SOL    HW114058   2.363   4.677   4.356 -0.4318  0.4259 -0.5064
 4416SOL    HW214059   2.433   4.790   4.429  0.3971 -0.2116 -0.2975
 4417SOL     OW14060   2.849   0.326   7.975  0.0972 -0.3302  0.0683
 4417SOL    HW114061   2.865   0.306   7.883 -0.0808 -1.1074  0.1971
 4417SOL    HW214062   2.759   0.358   7.976  0.5196  0.8941 -0.1984
 4418SOL     OW14063   0.360   2.792   5.133 -0.0233  0.3345 -0.8859
 4418SOL    HW114064   0.385   2.884   5.138 -0.5839  0.4630 -0.4186
 4418SOL    HW214065   0.265   2.793   5.122  0.1999 -0.1452 -3.1729
 4419SOL     OW14066   5.019   1.106   4.169 -0.3677 -0.1647 -0.3875
 4419SOL    HW114067   5.012   1.178   4.106  0.3196  0.4292  0.2011
 4419SOL    HW214068   5.001   1.027   4.118 -1.3167  0.4352 -1.0089
 4420SOL     OW14069   3.569   3.407   7.755  0.1982  1.0368  0.3456
 4420SOL    HW114070   3.527   3.421   7.671 -0.4274  0.6428  0.5891
 4420SOL    HW214071   3.643   3.349   7.736  0.8191  1.9612 -0.1294
 4421SOL     OW14072   0.853   0.547   2.015 -0.3901  0.4654  0.4820
 4421SOL    HW114073   0.827   0.499   2.093 -2.0419  0.5736  0.0559
 4421SOL    HW214074   0.824   0.492   1.942 -0.1378  0.9974 -0.0283
 4422SOL     OW14075   5.490   1.267   0.293  0.6149 -0.1483 -0.3384
 4422SOL    HW114076   5.499   1.223   0.378  0.4711 -1.1525 -0.8286
 4422SOL    HW214077   5.463   1.356   0.315  1.4844 -0.1179  0.7105
 4423SOL     OW14078   1.064   7.366   0.026 -0.0532 -0.0556 -0.2484
 4423SOL    HW114079   1.079   7.296  -0.038 -0.0220 -0.4979  0.2337
 4423SOL    HW214080   0.974   7.394   0.010 -0.1101 -0.2962 -0.3639
 4424SOL     OW14081   1.655   2.831   0.391 -0.5849  0.0989  0.0253
 4424SOL    HW114082   1.707   2.803   0.316  0.7760  0.4078  0.8267
 4424SOL    HW214083   1.637   2.750   0.439 -3.4137 -0.4617 -1.7453
 4425SOL     OW14084   0.166   3.970   1.536  0.0415 -0.0448 -0.1338
 4425SOL    HW114085   0.151   3.979   1.630 -0.7123  0.7654 -0.3143
 4425SOL    HW214086   0.258   3.992   1.524 -0.1933  1.2308  0.2643
 4426SOL     OW14087   6.059   0.804   0.838 -0.0113  0.1142  0.0097
 4426SOL    HW114088   6.152   0.781   0.830  0.4518  1.6850  0.6091
 4426SOL    HW214089   6.016   0.722   0.862  1.4975 -0.2454  1.6514
 4427SOL     OW14090   2.127   5.499   4.314 -0.0223 -0.2649 -0.2057
 4427SOL    HW114091   2.160   5.579   4.272 -0.5151 -0.5937 -1.2657
 4427SOL    HW214092   2.070   5.530   4.383 -0.6232  0.3190 -0.9392
 4428SOL     OW14093   0.488   2.366   5.390 -0.2860  0.1769  0.2400
 4428SOL    HW114094   0.399   2.334   5.376 -0.3032  0.3108  0.0415
 4428SOL    HW214095   0.493   2.446   5.338  0.4809 -0.7068 -1.0676
 4429SOL     OW14096   6.532   5.932   2.337 -0.1668  0.0080 -0.4309
 4429SOL    HW114097   6.519   5.916   2.430 -0.7599 -1.6201 -0.7457
 4429SOL    HW214098   6.620   5.970   2.331  0.0534 -0.2675  0.7625
 4430SOL     OW14099   2.777   0.855   7.613 -0.4780 -0.0048  0.1971
 4430SOL    HW114100   2.864   0.852   7.574 -0.7939  4.0538 -1.3245
 4430SOL    HW214101   2.790   0.897   7.698 -0.9043  0.5286  0.0056
 4431SOL     OW14102   5.210   4.903   5.352  0.0559 -0.0342  0.0433
 4431SOL    HW114103   5.290   4.949   5.325  1.0571 -1.4396  0.4780
 4431SOL    HW214104   5.156   4.971   5.393  0.6156  1.1325 -1.0866
 4432SOL     OW14105   7.378   6.654   1.770  0.5714 -0.2064 -0.1041
 4432SOL    HW114106   7.405   6.581   1.714  0.1566 -2.5973  2.5807
 4432SOL    HW214107   7.288   6.634   1.794  0.5300  1.0621  0.9022
 4433SOL     OW14108   3.139   7.982   7.749 -0.3667  0.2335  0.0416
 4433SOL    HW114109   3.171   7.959   7.836 -0.1562  0.3297 -0.0087
 4433SOL    HW214110   3.148   8.077   7.745 -0.7848  0.2773  0.0743
 4434SOL     OW14111   5.856   7.324   5.222 -0.0428 -0.2105  0.1713
 4434SOL    HW114112   5.878   7.244   5.174 -0.2817 -0.2452  0.1154
 4434SOL    HW214113   5.796   7.371   5.163 -0.7680 -0.5096  0.6590
 4435SOL     OW14114   0.695   1.924   6.196 -0.2749 -0.1027  0.0173
 4435SOL    HW114115   0.738   1.895   6.115 -1.2245 -0.4032 -0.3897
 4435SOL    HW214116   0.766   1.928   6.260  0.5283  0.3310 -0.8721
 4436SOL     OW14117   1.553   2.719   6.563 -0.1936 -0.1313  0.2840
 4436SOL    HW114118   1.504   2.643   6.595  0.1277 -0.5237 -0.1329
 4436SOL    HW214119   1.644   2.688   6.557 -0.1951  0.0203 -0.6925
 4437SOL     OW14120   1.572   6.810   1.965 -0.2183 -0.0673 -0.1813
 4437SOL    HW114121   1.573   6.876   2.034 -0.0173 -0.2890  0.0310
 4437SOL    HW214122   1.644   6.834   1.907  0.0985 -0.3206  0.1064
 4438SOL     OW14123   2.701   1.911   1.434 -0.7492  0.1879 -0.3826
 4438SOL    HW114124   2.721   1.974   1.365 -1.5773 -1.0380 -1.8044
 4438SOL    HW214125   2.781   1.905   1.486 -0.2811  1.5202 -0.9195
 4439SOL     OW14126   2.224   1.885   4.454  0.1388  0.5320 -0.4227
 4439SOL    HW114127   2.298   1.831   4.425  1.4402  1.9990  0.0213
 4439SOL    HW214128   2.171   1.897   4.375  0.5154 -0.3057 -0.8160
 4440SOL     OW14129   4.287   5.393   5.111  0.5981  0.0563 -0.4320
 4440SOL    HW114130   4.213   5.346   5.072  0.7267  0.3719 -1.0495
 4440SOL    HW214131   4.246   5.461   5.165  0.4420  0.5927 -1.2182
 4441SOL     OW14132   3.782   6.331   5.359 -0.3916 -0.0393  0.0689
 4441SOL    HW114133   3.735   6.401   5.314  0.0756 -0.0949 -0.5231
 4441SOL    HW214134   3.733   6.317   5.440 -1.3632 -0.0801 -0.5128
 4442SOL     OW14135   7.221   0.321   1.827 -0.0742  0.1214 -0.1092
 4442SOL    HW114136   7.207   0.241   1.877  0.6189  0.0850  0.0253
 4442SOL    HW214137   7.288   0.369   1.875 -0.4785  0.7891 -0.1849
 4443SOL     OW14138   2.486   5.287   0.115 -0.1910  0.2677 -0.0594
 4443SOL    HW114139   2.565   5.239   0.090 -0.9332 -1.0602  0.0370
 4443SOL    HW214140   2.517   5.375   0.136  1.1017  0.0815 -1.0506
 4444SOL     OW14141   6.808   6.781   5.944 -0.2075  0.6841 -0.3206
 4444SOL    HW114142   6.829   6.780   5.850  0.2519  1.8727 -0.2489
 4444SOL    HW214143   6.890   6.806   5.986 -0.0836 -1.0371  0.5137
 4445SOL     OW14144   3.328   0.533   5.375 -0.1189  0.2245  0.2085
 4445SOL    HW114145   3.317   0.452   5.425 -0.4658  0.1812  0.0677
 4445SOL    HW214146   3.421   0.535   5.352 -0.4797 -1.2449 -1.6366
 4446SOL     OW14147   3.041   7.532   0.640  0.0565 -0.4148 -0.6250
 4446SOL    HW114148   2.985   7.467   0.597 -1.2134 -0.4507  0.9968
 4446SOL    HW214149   2.998   7.550   0.724  1.7158  0.6618  0.0566
 4447SOL     OW14150   0.906   5.457   3.624 -0.2862  0.8035  0.2401
 4447SOL    HW114151   0.903   5.394   3.552  1.9021  0.8256  0.0660
 4447SOL    HW214152   0.925   5.403   3.701 -2.3592  0.8131  0.8222
 4448SOL     OW14153   3.084   1.368   3.459 -0.2560 -0.5780  0.4180
 4448SOL    HW114154   3.118   1.438   3.403 -0.3954  1.2369  2.4666
 4448SOL    HW214155   3.140   1.292   3.439  2.6195  1.2323  0.9650
 4449SOL     OW14156   3.080   0.178   0.199 -0.2770 -0.1331 -0.4671
 4449SOL    HW114157   3.131   0.127   0.136 -1.2484 -0.3585 -1.1010
 4449SOL    HW214158   3.011   0.218   0.146 -0.2177  0.9032  0.2188
 4450SOL     OW14159   5.824   2.427   5.444 -0.0390  0.0865 -0.2273
 4450SOL    HW114160   5.745   2.406   5.493  0.8079 -1.2582  0.6207
 4450SOL    HW214161   5.792   2.471   5.365 -1.6725 -0.9573 -0.1885
 4451SOL     OW14162   1.301   5.388   2.746 -0.4114 -0.0917 -0.4282
 4451SOL    HW114163   1.320   5.294   2.744 -2.1462 -0.5058  0.7569
 4451SOL    HW214164   1.323   5.418   2.658  1.4248 -1.3215 -0.4489
 4452SOL     OW14165   2.152   6.372   3.753 -0.3220 -0.3336  0.0079
 4452SOL    HW114166   2.204   6.407   3.681 -1.0509  1.3518  0.2659
 4452SOL    HW214167   2.071   6.342   3.712 -0.3773 -0.1865  0.0099
 4453SOL     OW14168   0.407   2.741   1.474  0.0379  0.0815 -0.9665
 4453SOL    HW114169   0.442   2.737   1.563 -0.5713 -1.9949 -0.7714
 4453SOL    HW214170   0.464   2.802   1.428  0.0696  1.5994  0.9538
 4454SOL     OW14171   2.145   4.885   3.780 -0.1657  0.2553  0.3056
 4454SOL    HW114172   2.203   4.842   3.717  0.1828  0.2124  0.6580
 4454SOL    HW214173   2.193   4.883   3.863 -1.5843 -1.8738  1.1711
 4455SOL     OW14174   6.539   3.914   3.153  0.8343 -0.2937  0.1159
 4455SOL    HW114175   6.469   3.881   3.097  1.4693  0.1867 -0.9821
 4455SOL    HW214176   6.495   3.966   3.220  0.2519  1.6813 -1.7259
 4456SOL     OW14177   2.917   6.528   4.639 -0.3832  0.0208 -0.5749
 4456SOL    HW114178   2.833   6.526   4.594 -1.1834  0.0332  0.8631
 4456SOL    HW214179   2.901   6.483   4.722  0.7620  0.9241  0.1696
 4457SOL     OW14180   4.699   4.800   7.786 -0.7336  0.3816 -0.2354
 4457SOL    HW114181   4.653   4.843   7.714  0.2633  1.4690 -0.2610
 4457SOL    HW214182   4.788   4.789   7.753 -0.3996  0.4115  0.6338
 4458SOL     OW14183   2.300   4.391   2.163 -0.0652  0.2376  0.8989
 4458SOL    HW114184   2.293   4.409   2.069 -0.8051 -1.2800  0.6121
 4458SOL    HW214185   2.340   4.304   2.167  1.9986  1.1784  2.0946
 4459SOL     OW14186   5.627   3.123   7.195 -0.2286  0.1576 -0.1062
 4459SOL    HW114187   5.663   3.145   7.109 -2.0757  0.8812 -0.7556
 4459SOL    HW214188   5.703   3.103   7.249  0.9446 -0.9029 -2.0615
 4460SOL     OW14189   4.766   4.574   2.267  0.2706 -0.5262 -0.5477
 4460SOL    HW114190   4.825   4.501   2.250 -0.6936 -1.9231  1.6232
 4460SOL    HW214191   4.796   4.610   2.350 -0.5933  0.1488 -0.5161
 4461SOL     OW14192   7.475   0.059   0.539 -0.2261  0.6510  0.1156
 4461SOL    HW114193   7.416   0.023   0.605 -0.0208  1.4014  0.7196
 4461SOL    HW214194   7.432   0.039   0.456 -0.3298 -0.5850  0.4448
 4462SOL     OW14195   3.043   3.808   7.657 -0.6197 -0.0353  0.2238
 4462SOL    HW114196   3.076   3.886   7.701  0.4744 -0.3939  0.0973
 4462SOL    HW214197   2.949   3.822   7.648 -0.7437  0.4226  1.8920
 4463SOL     OW14198   0.336   6.892   3.316 -0.4771 -0.1122  0.6385
 4463SOL    HW114199   0.342   6.830   3.244 -0.8201 -1.0019  1.3583
 4463SOL    HW214200   0.416   6.944   3.310 -0.3264 -0.4238 -0.1472
 4464SOL     OW14201   2.499   1.671   4.315  0.5881  0.5632  0.3250
 4464SOL    HW114202   2.537   1.613   4.249 -0.6796  0.4049 -0.2914
 4464SOL    HW214203   2.513   1.624   4.398 -0.5841 -0.7664 -0.1791
 4465SOL     OW14204   2.620   4.225   3.097  0.5106  0.1643 -0.3658
 4465SOL    HW114205   2.639   4.143   3.142  1.9761 -1.3280 -3.3712
 4465SOL    HW214206   2.526   4.222   3.081  0.4950 -0.7850 -0.1589
 4466SOL     OW14207   1.173   6.981   1.041  0.4415  0.3069 -0.0019
 4466SOL    HW114208   1.115   6.931   0.984  0.0152  0.2014  0.5167
 4466SOL    HW214209   1.258   6.939   1.031  0.5237  0.6949 -1.0554
 4467SOL     OW14210   1.702   3.530   0.583 -0.3507  0.0384 -0.7045
 4467SOL    HW114211   1.672   3.608   0.632  1.2982  0.8033 -0.8478
 4467SOL    HW214212   1.680   3.549   0.492  1.0769  0.8902 -0.8971
 4468SOL     OW14213   0.912   7.047   5.445  0.6697 -0.0277 -0.4881
 4468SOL    HW114214   1.002   7.046   5.477  0.4999 -1.7935  0.0122
 4468SOL    HW214215   0.899   6.960   5.408 -0.6207  0.4464 -1.2092
 4469SOL     OW14216   6.429   0.372   6.421  0.3709  0.0424  0.2962
 4469SOL    HW114217   6.347   0.415   6.444 -0.0205 -0.5400 -0.0059
 4469SOL    HW214218   6.405   0.304   6.359  0.6693 -1.9674  2.2423
 4470SOL     OW14219   0.381   4.839   1.105 -0.1763  0.0706 -0.0019
 4470SOL    HW114220   0.402   4.809   1.194  0.6158 -1.8492 -0.7859
 4470SOL    HW214221   0.450   4.903   1.085  0.4341 -0.4770  0.2892
 4471SOL     OW14222   0.319   7.802   7.689  0.0173 -0.3065 -0.2068
 4471SOL    HW114223   0.373   7.758   7.623  0.0631 -0.3618 -0.1322
 4471SOL    HW214224   0.325   7.895   7.667  1.2155 -0.1775  0.5938
 4472SOL     OW14225   4.672   4.892   6.250  0.6545 -0.0601  0.1104
 4472SOL    HW114226   4.623   4.965   6.286 -1.3574 -1.3859  0.2122
 4472SOL    HW214227   4.668   4.824   6.317  0.3261 -1.1312 -0.9580
 4473SOL     OW14228   1.945   4.594   2.141  0.1024 -0.1424  0.2860
 4473SOL    HW114229   1.891   4.586   2.062  0.4619  1.0095 -0.0886
 4473SOL    HW214230   1.948   4.505   2.177  0.1673 -0.7393 -1.1487
 4474SOL     OW14231   3.257   1.161   5.227 -0.3688 -0.0347 -0.2674
 4474SOL    HW114232   3.350   1.149   5.210 -0.1940 -0.9196  1.1231
 4474SOL    HW214233   3.214   1.126   5.149  0.4480  0.4223 -0.9429
 4475SOL     OW14234   6.408   4.909   1.882  0.2039  0.2569  0.1007
 4475SOL    HW114235   6.428   4.990   1.929  0.6062 -0.5377  1.3596
 4475SOL    HW214236   6.315   4.894   1.899  0.0750  0.5664 -0.3205
 4476SOL     OW14237   7.386   7.989   1.807  0.0273  0.5372  0.3840
 4476SOL    HW114238   7.475   7.967   1.833  0.2772 -1.7567 -2.0527
 4476SOL    HW214239   7.395   8.068   1.754  0.9233 -0.7716 -1.4739
 4477SOL     OW14240   3.010   4.890   4.896  0.4696 -0.6696  0.0074
 4477SOL    HW114241   3.007   4.985   4.888 -0.0849 -0.7980 -1.9988
 4477SOL    HW214242   2.922   4.861   4.872  1.2060 -1.7536 -1.6148
 4478SOL     OW14243   4.046   2.350   5.747  0.7738  0.0802  0.0335
 4478SOL    HW114244   4.013   2.310   5.827  1.5915 -2.0111 -0.6240
 4478SOL    HW214245   4.135   2.317   5.737  0.1943 -0.9599 -2.4993
 4479SOL     OW14246   0.676   7.065   1.788  0.2066  0.9763  0.0060
 4479SOL    HW114247   0.699   6.982   1.831  1.8682  0.3684 -1.8900
 4479SOL    HW214248   0.590   7.087   1.823 -0.3862 -1.6623  0.4208
 4480SOL     OW14249   2.721   2.257   6.456 -0.1067  0.3449 -0.0786
 4480SOL    HW114250   2.798   2.286   6.503  0.5208  0.0614 -0.9147
 4480SOL    HW214251   2.727   2.161   6.456 -0.7757  0.2956  0.3783
 4481SOL     OW14252   5.550   7.635   2.001 -0.5469 -0.3778 -0.3484
 4481SOL    HW114253   5.502   7.624   2.083 -0.5378 -0.2925 -0.3324
 4481SOL    HW214254   5.628   7.580   2.012  0.2000  0.7709  0.2820
 4482SOL     OW14255   2.314   0.480   0.113  0.1666 -0.8430  0.4988
 4482SOL    HW114256   2.288   0.515   0.028  1.0855  1.6860  1.1528
 4482SOL    HW214257   2.268   0.536   0.176  1.3421 -1.1362  1.6469
 4483SOL     OW14258   2.790   3.831   3.141 -0.0617 -0.4961 -0.5038
 4483SOL    HW114259   2.707   3.790   3.168 -1.7040  2.1095 -1.1698
 4483SOL    HW214260   2.807   3.896   3.209  0.2945  0.4019 -1.4216
 4484SOL     OW14261   6.545   4.993   1.572  0.5977  0.0231 -0.3288
 4484SOL    HW114262   6.464   4.995   1.621  1.3864  0.1531  1.0135
 4484SOL    HW214263   6.518   4.982   1.481 -0.8881 -0.5671  0.1555
 4485SOL     OW14264   7.966   4.507   2.953 -0.2493  0.4950 -0.6206
 4485SOL    HW114265   8.000   4.429   2.997 -2.1353 -0.3291 -0.5486
 4485SOL    HW214266   8.034   4.529   2.888  0.4046 -1.0827 -0.5196
 4486SOL     OW14267   1.024   3.144   6.086 -0.2908  0.1152 -0.3186
 4486SOL    HW114268   1.077   3.213   6.045 -0.6389  2.1958  2.4293
 4486SOL    HW214269   0.934   3.173   6.071 -0.4601 -0.0938  0.2891
 4487SOL     OW14270   3.672   7.974   2.453  0.1490  0.4355  0.4153
 4487SOL    HW114271   3.665   8.063   2.488  1.6274  0.5618  0.4245
 4487SOL    HW214272   3.764   7.965   2.427 -0.6066 -0.0200 -2.4596
 4488SOL     OW14273   5.662   3.431   5.699  0.2486 -0.4732 -0.0082
 4488SOL    HW114274   5.657   3.520   5.735 -1.0100 -1.0098  1.2313
 4488SOL    HW214275   5.731   3.389   5.749 -1.0072 -0.9935  1.3676
 4489SOL     OW14276   3.081   1.291   3.737 -0.3923  0.2926  0.0496
 4489SOL    HW114277   3.141   1.217   3.724  1.1776  1.6888 -1.2139
 4489SOL    HW214278   3.037   1.301   3.652 -1.1975  0.3240  0.4600
 4490SOL     OW14279   4.308   6.799   6.758 -0.6182  0.3149  0.1437
 4490SOL    HW114280   4.321   6.711   6.792  0.5936  0.8398  1.1038
 4490SOL    HW214281   4.215   6.817   6.773 -0.4883 -0.1327  1.6376
 4491SOL     OW14282   2.878   3.498   0.543  0.3756  0.5493 -0.0214
 4491SOL    HW114283   2.807   3.455   0.592 -0.3311  1.1498 -0.4834
 4491SOL    HW214284   2.900   3.575   0.596 -0.6793  1.4335 -0.7981
 4492SOL     OW14285   4.487   3.677   7.614  0.6145  0.2902  0.1732
 4492SOL    HW114286   4.580   3.655   7.617  0.4882 -0.2312  0.2460
 4492SOL    HW214287   4.457   3.668   7.705  0.7649  1.6672  0.3949
 4493SOL     OW14288   1.621   1.267   2.146  0.2448 -0.2074  0.0243
 4493SOL    HW114289   1.551   1.309   2.095 -0.3526 -3.4733 -2.2380
 4493SOL    HW214290   1.701   1.313   2.120 -0.6097  1.1435 -0.3085
 4494SOL     OW14291   3.369   1.804   3.475 -0.2578 -0.0010 -0.4901
 4494SOL    HW114292   3.434   1.872   3.491  0.1486 -0.6367  0.7370
 4494SOL    HW214293   3.293   1.832   3.526 -0.8689  0.6042 -1.7077
 4495SOL     OW14294   2.630   0.643   0.185 -0.3047  0.1482  0.2583
 4495SOL    HW114295   2.639   0.620   0.277  1.9859  1.0884  0.3520
 4495SOL    HW214296   2.693   0.715   0.173 -0.0071 -0.4509 -2.1904
 4496SOL     OW14297   7.716   5.711   0.770  0.2817 -0.1481  0.0608
 4496SOL    HW114298   7.652   5.674   0.830  0.9563 -0.6136  0.5099
 4496SOL    HW214299   7.697   5.670   0.686  0.2061 -0.5453  0.2702
 4497SOL     OW14300   4.748   5.133   1.283  0.0403 -0.3139  0.5502
 4497SOL    HW114301   4.744   5.041   1.309  0.4852 -0.5415 -0.1747
 4497SOL    HW214302   4.663   5.169   1.308 -0.3292 -1.0491  0.3671
 4498SOL     OW14303   6.997   1.898   3.041  0.8454  0.2626  0.3630
 4498SOL    HW114304   7.071   1.907   3.101  0.7890  1.1966  0.3164
 4498SOL    HW214305   7.032   1.853   2.964  1.6428  1.6118 -0.0954
 4499SOL     OW14306   3.554   1.360   2.683 -0.2860  0.0192  0.7813
 4499SOL    HW114307   3.530   1.390   2.596  0.5922  0.6585  0.7375
 4499SOL    HW214308   3.587   1.272   2.670 -0.5590 -0.0470  0.5304
 4500SOL     OW14309   4.505   7.157   1.446  0.5668  0.4541 -0.0324
 4500SOL    HW114310   4.492   7.248   1.472  1.1272  0.8401 -1.0272
 4500SOL    HW214311   4.427   7.111   1.478 -1.0941  1.8184 -1.8847
 4501SOL     OW14312   0.850   4.706   4.772  0.1616  0.1900  0.1398
 4501SOL    HW114313   0.782   4.695   4.838 -1.2273  1.1188 -1.0392
 4501SOL    HW214314   0.812   4.668   4.692  0.4901  1.8000 -0.8333
 4502SOL     OW14315   5.817   0.551   5.523 -0.3746  0.8102  0.2612
 4502SOL    HW114316   5.825   0.499   5.443 -1.0954  1.3839 -0.1981
 4502SOL    HW214317   5.800   0.487   5.592 -0.0579  0.3392 -0.0889
 4503SOL     OW14318   4.382   6.194   2.160 -0.0067 -0.5561 -0.2339
 4503SOL    HW114319   4.441   6.219   2.231  0.9261 -0.7770 -0.9140
 4503SOL    HW214320   4.362   6.102   2.176 -2.2350  0.1396  1.4204
 4504SOL     OW14321   6.084   3.613   0.826 -0.3437 -0.1168 -0.0424
 4504SOL    HW114322   5.994   3.615   0.860 -0.0350 -0.6111  0.8288
 4504SOL    HW214323   6.122   3.534   0.864  0.3234 -0.1513 -0.7709
 4505SOL     OW14324   3.370   2.500   2.732  0.0606  0.1554 -0.0408
 4505SOL    HW114325   3.304   2.431   2.740 -0.8088  1.0596  0.6317
 4505SOL    HW214326   3.417   2.498   2.816 -0.2822  0.6950  0.1683
 4506SOL     OW14327   0.871   4.336   3.877 -0.3380 -0.0102 -0.2532
 4506SOL    HW114328   0.825   4.254   3.894  1.3748 -1.5046 -2.3963
 4506SOL    HW214329   0.846   4.360   3.787  1.2487  0.3479 -0.6311
 4507SOL     OW14330   2.144   6.019   6.207  0.0569 -0.0650 -0.6199
 4507SOL    HW114331   2.215   6.034   6.269  0.1319 -1.0377 -0.4630
 4507SOL    HW214332   2.130   5.924   6.208  2.1399 -0.6146 -4.3514
 4508SOL     OW14333   6.981   7.340   2.782  0.0876 -0.2421  0.0606
 4508SOL    HW114334   6.895   7.361   2.745  0.3368 -0.8696 -0.9254
 4508SOL    HW214335   7.041   7.350   2.708  0.5790 -1.7925  0.2179
 4509SOL     OW14336   5.649   4.328   1.581  0.6683  0.0853 -0.3296
 4509SOL    HW114337   5.703   4.404   1.559  0.8425  0.0828  0.0683
 4509SOL    HW214338   5.640   4.280   1.500 -0.2559  1.0416 -0.8209
 4510SOL     OW14339   5.053   2.450   7.850  0.4683  0.4488  0.4083
 4510SOL    HW114340   5.025   2.505   7.923  0.6707 -1.0668  1.6999
 4510SOL    HW214341   5.085   2.511   7.784  1.0255  1.8652  1.9216
 4511SOL     OW14342   7.074   2.731   2.639 -0.1713  0.2998 -0.1794
 4511SOL    HW114343   7.015   2.805   2.625  1.4914  1.5638 -0.7966
 4511SOL    HW214344   7.161   2.766   2.623  1.0520 -0.8519  3.1186
 4512SOL     OW14345   1.544   3.737   1.036 -0.2657 -0.1807  0.1059
 4512SOL    HW114346   1.567   3.713   0.946  0.9643 -0.1439  0.3928
 4512SOL    HW214347   1.550   3.832   1.038  1.7136 -0.2820  0.7147
 4513SOL     OW14348   1.694   3.871   5.378 -0.1177 -0.1002 -0.5035
 4513SOL    HW114349   1.762   3.876   5.445  0.3223  2.0318 -1.0460
 4513SOL    HW214350   1.648   3.954   5.382 -3.8227 -1.9834  0.8501
 4514SOL     OW14351   1.502   0.869   0.442  0.3707 -0.1640  0.0353
 4514SOL    HW114352   1.595   0.890   0.434  0.6843 -1.6010 -0.2699
 4514SOL    HW214353   1.467   0.886   0.354 -0.2006  2.6418  0.6904
 4515SOL     OW14354   2.697   1.840   7.508  0.7789  0.4329 -0.4018
 4515SOL    HW114355   2.732   1.751   7.522 -0.0625  0.1205 -0.2419
 4515SOL    HW214356   2.627   1.848   7.573 -0.7010  0.3610 -1.9185
 4516SOL     OW14357   4.878   0.425   1.505 -0.3921 -0.0372 -0.3475
 4516SOL    HW114358   4.809   0.448   1.443 -0.1631  1.8009  0.0226
 4516SOL    HW214359   4.960   0.449   1.460 -0.1732  0.3974  0.2639
 4517SOL     OW14360   5.087   7.196   7.460 -0.0725 -0.3072 -0.3777
 4517SOL    HW114361   5.088   7.234   7.548  0.6937  0.5378 -0.7337
 4517SOL    HW214362   5.176   7.161   7.449 -0.8576 -2.6081  0.0819
 4518SOL     OW14363   1.252   5.386   3.577 -0.3157  0.1324  0.1652
 4518SOL    HW114364   1.257   5.444   3.654 -0.1116 -0.6333  0.7480
 4518SOL    HW214365   1.301   5.432   3.509 -1.7375  1.5038  0.0280
 4519SOL     OW14366   7.208   7.153   4.960 -0.3790  0.3523 -1.4226
 4519SOL    HW114367   7.296   7.166   4.924 -0.0601 -0.0545 -0.8132
 4519SOL    HW214368   7.220   7.160   5.054 -1.3719  2.3737 -1.4075
 4520SOL     OW14369   5.804   2.537   1.404  0.5987 -0.2628 -0.2911
 4520SOL    HW114370   5.737   2.582   1.456 -0.1748  0.7966 -2.0958
 4520SOL    HW214371   5.871   2.512   1.467 -0.7457  0.0721  1.3398
 4521SOL     OW14372   2.092   6.870   6.773  0.6006  0.4993  0.4174
 4521SOL    HW114373   2.098   6.939   6.839  0.0485  0.9751 -0.0150
 4521SOL    HW214374   2.158   6.893   6.708  0.7093  0.3797  0.4846
 4522SOL     OW14375   1.076   6.548   1.967 -0.2769 -0.0389  0.3805
 4522SOL    HW114376   1.045   6.618   2.025 -1.2305 -0.0322 -0.1200
 4522SOL    HW214377   1.006   6.483   1.967 -1.0773  0.7180 -2.0441
 4523SOL     OW14378   2.509   2.798   1.369  0.4321  0.7039  0.7368
 4523SOL    HW114379   2.495   2.889   1.398 -0.2619  0.5549  0.8723
 4523SOL    HW214380   2.458   2.745   1.431 -0.6019  0.3365 -0.3964
 4524SOL     OW14381   7.301   7.787   1.131 -0.2805  0.1624 -0.7155
 4524SOL    HW114382   7.223   7.820   1.175 -0.6785  0.8810 -1.9127
 4524SOL    HW214383   7.373   7.809   1.191 -0.8186  0.9763 -0.3412
 4525SOL     OW14384   4.441   2.066   6.732  0.2102 -0.6133 -0.2462
 4525SOL    HW114385   4.436   2.119   6.812  1.1701 -2.9005  1.4380
 4525SOL    HW214386   4.527   2.025   6.735  0.9850  0.5023 -3.4091
 4526SOL     OW14387   4.138   1.958   0.533  0.2068  0.5672  0.1642
 4526SOL    HW114388   4.118   1.980   0.624  0.1363 -0.3871  0.3912
 4526SOL    HW214389   4.162   2.041   0.493  3.4785  0.6385  1.9004
 4527SOL     OW14390   3.296   6.982   5.716 -0.1966 -0.5681 -0.4760
 4527SOL    HW114391   3.348   6.905   5.737  0.5164  0.1884  0.6778
 4527SOL    HW214392   3.227   6.984   5.783 -0.4951 -0.4565 -0.7790
 4528SOL     OW14393   6.104   4.083   3.433  0.1454  0.0741  0.1402
 4528SOL    HW114394   6.169   4.028   3.477  0.3957  0.3746  0.1539
 4528SOL    HW214395   6.020   4.045   3.457  0.2450  0.6334  1.4466
 4529SOL     OW14396   2.567   3.878   6.638  0.3930  0.1431  0.0674
 4529SOL    HW114397   2.537   3.866   6.548 -0.5214 -0.2560  0.4108
 4529SOL    HW214398   2.633   3.811   6.650  0.1706 -0.1193 -0.1562
 4530SOL     OW14399   2.128   2.359   1.266 -0.2005  0.5560 -0.0620
 4530SOL    HW114400   2.105   2.411   1.189 -0.0336 -2.2904 -2.2104
 4530SOL    HW214401   2.210   2.316   1.241  0.0286 -0.1909  1.8716
 4531SOL     OW14402   6.552   1.611   0.183 -0.5565  0.4195 -0.0872
 4531SOL    HW114403   6.628   1.560   0.212 -1.8195 -0.1357  2.5343
 4531SOL    HW214404   6.568   1.699   0.217 -1.0397  0.3078  0.4460
 4532SOL     OW14405   3.919   3.958   3.331 -0.0087 -0.0447  0.0328
 4532SOL    HW114406   3.935   3.946   3.237 -2.9279  2.2078 -0.8875
 4532SOL    HW214407   3.863   3.884   3.356  0.2612 -0.3054 -0.1237
 4533SOL     OW14408   4.733   2.162   3.922  0.4002  0.4728  0.4693
 4533SOL    HW114409   4.798   2.232   3.928  0.0188  0.7421  1.9818
 4533SOL    HW214410   4.742   2.115   4.005 -0.7912  0.0273  0.3602
 4534SOL     OW14411   1.512   1.455   5.940 -0.4724 -0.2072 -0.0069
 4534SOL    HW114412   1.433   1.406   5.963  0.1602 -0.5687  1.4478
 4534SOL    HW214413   1.517   1.524   6.006  1.5247 -1.4234  1.2058
 4535SOL     OW14414   6.534   0.905   5.598 -0.0575  0.0923 -0.0786
 4535SOL    HW114415   6.450   0.933   5.559  0.1018 -0.4524 -0.8499
 4535SOL    HW214416   6.512   0.828   5.649 -0.5129  1.5880  2.1221
 4536SOL     OW14417   6.816   1.111   2.532 -0.3136 -0.1627  0.1027
 4536SOL    HW114418   6.804   1.159   2.451 -1.2676 -0.9352 -0.2278
 4536SOL    HW214419   6.734   1.120   2.579 -0.0076 -0.2855  0.6781
 4537SOL     OW14420   7.696   2.655   2.478 -0.0662 -0.5280 -0.4166
 4537SOL    HW114421   7.611   2.612   2.477  0.4778 -1.7290  0.9865
 4537SOL    HW214422   7.748   2.603   2.539  0.7783  1.8072  0.9988
 4538SOL     OW14423   6.089   2.597   1.176 -0.2587 -0.0788 -0.0493
 4538SOL    HW114424   6.110   2.571   1.266 -0.2023  0.1472  0.0050
 4538SOL    HW214425   6.015   2.543   1.151  1.2327 -1.9184 -0.7367
 4539SOL     OW14426   0.933   2.695   2.322 -0.1590  0.2681 -0.1934
 4539SOL    HW114427   0.893   2.730   2.402 -1.0364 -2.0630  0.4806
 4539SOL    HW214428   0.867   2.635   2.287  0.2583  1.1365 -2.6377
 4540SOL     OW14429   6.828   2.935   2.679 -0.1096 -0.2707 -0.8402
 4540SOL    HW114430   6.785   2.968   2.600  1.9352  1.0462 -1.4847
 4540SOL    HW214431   6.763   2.947   2.749 -0.8973  1.4239 -1.8037
 4541SOL     OW14432   5.022   7.579   5.184  0.3096 -0.5924  0.3288
 4541SOL    HW114433   4.955   7.593   5.251  0.1240 -0.6710  0.1600
 4541SOL    HW214434   5.006   7.491   5.151  1.2946 -1.1132  1.1802
 4542SOL     OW14435   2.140   5.340   0.306  0.0000  0.6706  0.3028
 4542SOL    HW114436   2.176   5.281   0.239  0.6469  3.0852 -1.6326
 4542SOL    HW214437   2.054   5.304   0.325  0.3380 -0.8555 -0.8369
 4543SOL     OW14438   4.917   1.320   5.664  0.0315 -0.3269 -0.6461
 4543SOL    HW114439   4.920   1.415   5.675  1.4999 -0.5085  1.0271
 4543SOL    HW214440   4.946   1.305   5.574  0.7907  0.7913 -0.6117
 4544SOL     OW14441   7.833   7.733   3.533  0.2260  0.3645 -0.2728
 4544SOL    HW114442   7.806   7.650   3.493  0.6214  0.2237 -0.2577
 4544SOL    HW214443   7.755   7.788   3.530 -0.2260 -0.2238  0.2879
 4545SOL     OW14444   7.805   5.790   6.823 -0.0995  0.3663  0.3411
 4545SOL    HW114445   7.791   5.753   6.736  0.8746 -1.8336  1.0434
 4545SOL    HW214446   7.900   5.794   6.833 -0.1189  3.5477  0.2007
 4546SOL     OW14447   5.526   6.297   6.544 -0.5574 -0.3943  0.2117
 4546SOL    HW114448   5.553   6.237   6.474 -1.7186  0.2087 -0.7974
 4546SOL    HW214449   5.492   6.239   6.613  0.4331 -0.9902  0.2164
 4547SOL     OW14450   7.165   1.525   3.389  0.3675  0.5124  0.0560
 4547SOL    HW114451   7.247   1.518   3.339  0.1368 -1.2887 -0.1578
 4547SOL    HW214452   7.100   1.549   3.323  0.5137  0.6861 -0.0258
 4548SOL     OW14453   6.056   6.487   7.509 -0.3531 -0.2253  0.0224
 4548SOL    HW114454   6.103   6.438   7.441 -0.7281 -0.2734 -0.2044
 4548SOL    HW214455   6.068   6.436   7.589 -1.7592 -1.3464 -0.4491
 4549SOL     OW14456   0.058   2.849   4.616  0.5883 -0.0070 -0.3489
 4549SOL    HW114457   0.033   2.784   4.550  2.4054 -0.9574 -0.1514
 4549SOL    HW214458   0.014   2.821   4.696  2.1126 -1.6121 -0.0244
 4550SOL     OW14459   0.105   0.755   0.738  0.2170 -0.3123  0.2402
 4550SOL    HW114460   0.097   0.743   0.832  0.4929  0.1676  0.3262
 4550SOL    HW214461   0.107   0.850   0.725  0.2206 -0.3723 -0.2448
 4551SOL     OW14462   1.609   2.510   3.843  0.5088  0.3428  0.1141
 4551SOL    HW114463   1.664   2.530   3.918  1.0377 -1.4967  0.2669
 4551SOL    HW214464   1.563   2.429   3.867  0.3680 -0.0543 -1.3607
 4552SOL     OW14465   1.955   4.811   2.383  0.0024 -0.3261 -0.3138
 4552SOL    HW114466   1.868   4.845   2.402 -0.3040 -2.8852  4.0211
 4552SOL    HW214467   1.946   4.771   2.296 -2.4278  1.3331 -0.9442
 4553SOL     OW14468   1.623   4.981   6.454 -1.1033  0.1971 -0.4496
 4553SOL    HW114469   1.536   4.978   6.415 -1.5852  0.6947  0.5576
 4553SOL    HW214470   1.658   4.893   6.442 -1.9247 -0.1361 -0.4501
 4554SOL     OW14471   5.138   1.337   7.591 -0.1866 -0.9230 -0.3744
 4554SOL    HW114472   5.111   1.249   7.565 -2.3064 -0.2090 -0.7450
 4554SOL    HW214473   5.144   1.333   7.686  0.7867 -1.7158 -0.4492
 4555SOL     OW14474   4.012   0.687   0.643  0.3259  0.8540 -0.2429
 4555SOL    HW114475   3.926   0.647   0.628 -0.3791  1.6650  1.3773
 4555SOL    HW214476   4.075   0.618   0.622 -0.8278 -1.1126  2.2545
 4556SOL     OW14477   2.527   1.257   5.787 -0.0986 -0.3990  0.7356
 4556SOL    HW114478   2.611   1.218   5.763  0.3937  0.1511  1.4867
 4556SOL    HW214479   2.510   1.223   5.875 -1.4884 -1.7977 -0.0261
 4557SOL     OW14480   3.928   4.323   6.615 -0.4601  0.2987 -0.3386
 4557SOL    HW114481   3.959   4.391   6.675 -1.5906  1.0388 -0.5781
 4557SOL    HW214482   3.964   4.348   6.530  1.0808 -0.7107 -0.0349
 4558SOL     OW14483   5.283   5.455   2.126  0.2296  0.1768  0.6215
 4558SOL    HW114484   5.234   5.477   2.205 -0.9188 -0.4397  0.1052
 4558SOL    HW214485   5.265   5.528   2.066  0.7666  0.4408  0.7754
 4559SOL     OW14486   0.992   5.550   4.525  0.1998 -0.6086  0.3817
 4559SOL    HW114487   0.934   5.593   4.463  0.8231  1.4014  1.1383
 4559SOL    HW214488   1.076   5.541   4.479  0.4794  0.3060  0.7007
 4560SOL     OW14489   5.207   1.146   4.356 -0.3163  0.3538  0.2709
 4560SOL    HW114490   5.126   1.138   4.304  0.8670  1.0057 -1.8041
 4560SOL    HW214491   5.271   1.095   4.307  0.4318 -0.5906  2.1814
 4561SOL     OW14492   3.643   7.748   3.643  0.4781 -0.3420  0.5188
 4561SOL    HW114493   3.562   7.799   3.650  1.1272  0.5886  1.5604
 4561SOL    HW214494   3.628   7.672   3.699  0.1555 -0.4134  0.3382
 4562SOL     OW14495   2.557   6.818   1.983 -0.1257  0.4078  0.2780
 4562SOL    HW114496   2.603   6.868   2.049 -0.1295  0.2515  0.4000
 4562SOL    HW214497   2.595   6.846   1.900 -0.6508  1.1666  0.2856
 4563SOL     OW14498   2.465   3.577   1.214 -0.1370 -0.0491 -0.6018
 4563SOL    HW114499   2.547   3.597   1.259  0.0222 -0.7838 -0.5674
 4563SOL    HW214500   2.430   3.500   1.259  0.1057 -0.9092 -1.8335
 4564SOL     OW14501   3.776   3.286   5.847 -0.3428 -0.4658  0.2704
 4564SOL    HW114502   3.761   3.340   5.769  0.3257  0.0450  0.4917
 4564SOL    HW214503   3.759   3.196   5.816 -4.2196 -0.0306  0.5764
 4565SOL     OW14504   2.376   5.851   5.520 -0.1520 -0.0900 -0.1072
 4565SOL    HW114505   2.364   5.941   5.550 -0.6046  0.0159 -0.5891
 4565SOL    HW214506   2.287   5.816   5.510 -0.0004 -1.2947  2.0804
 4566SOL     OW14507   7.336   4.753   0.990  0.3539 -0.5409 -0.1687
 4566SOL    HW114508   7.374   4.746   0.903 -1.6951 -1.5886 -1.0452
 4566SOL    HW214509   7.335   4.663   1.023 -0.6496 -0.4246  0.1417
 4567SOL     OW14510   2.172   5.236   0.561  0.0181  0.2871 -0.0646
 4567SOL    HW114511   2.176   5.306   0.496  1.6495  2.2284  1.9802
 4567SOL    HW214512   2.240   5.175   0.535  0.8233  1.1708 -0.0836
 4568SOL     OW14513   0.203   6.099   7.389  0.3917  0.3003  0.1273
 4568SOL    HW114514   0.128   6.156   7.371 -0.3879 -0.7052  0.0855
 4568SOL    HW214515   0.185   6.063   7.476  1.0984  0.4427  0.3410
 4569SOL     OW14516   0.276   3.913   6.558 -0.3927 -0.8230  0.1081
 4569SOL    HW114517   0.284   3.988   6.499 -0.6085  0.4006  1.5769
 4569SOL    HW214518   0.196   3.868   6.529 -1.6863  0.9569  0.7174
 4570SOL     OW14519   6.055   4.137   2.072 -0.1905  0.2797  0.7882
 4570SOL    HW114520   6.113   4.182   2.010 -0.0170  0.1605  0.8666
 4570SOL    HW214521   5.968   4.173   2.053 -0.1674  0.1060  0.3478
 4571SOL     OW14522   1.264   2.103   6.759 -0.1042  0.5309  0.1523
 4571SOL    HW114523   1.357   2.121   6.767 -0.3873  3.0911 -1.3993
 4571SOL    HW214524   1.229   2.119   6.847  0.9050 -0.7964  0.8387
 4572SOL     OW14525   5.916   2.823   4.899 -0.3724  0.0945 -0.2802
 4572SOL    HW114526   5.822   2.810   4.916  0.0328 -0.0797  2.3718
 4572SOL    HW214527   5.949   2.736   4.877 -0.3075 -0.6611  2.3535
 4573SOL     OW14528   5.233   4.653   5.557  0.7617  0.6989  0.2567
 4573SOL    HW114529   5.207   4.716   5.489  1.6258 -0.0245 -0.7903
 4573SOL    HW214530   5.151   4.623   5.594  0.3225  2.2761  0.6407
 4574SOL     OW14531   5.355   6.430   6.262  0.3560 -0.0891 -0.1995
 4574SOL    HW114532   5.339   6.514   6.217  1.6968  0.2339 -0.1214
 4574SOL    HW214533   5.337   6.364   6.196 -0.3864  0.2636 -0.3675
 4575SOL     OW14534   6.536   3.715   2.847 -0.1439 -0.4848 -0.1353
 4575SOL    HW114535   6.579   3.676   2.923  1.2212 -0.1792 -0.7285
 4575SOL    HW214536   6.451   3.744   2.881  1.8342  3.1412  2.3177
 4576SOL     OW14537   1.687   7.823   3.727 -0.1504 -0.3091  0.1400
 4576SOL    HW114538   1.648   7.904   3.696  3.4798  1.7735  0.4906
 4576SOL    HW214539   1.686   7.765   3.651 -0.7053  0.9455 -0.8410
 4577SOL     OW14540   4.986   3.130   2.983  0.2685  0.2695  0.1082
 4577SOL    HW114541   4.905   3.080   2.971  0.6639 -0.5073  0.5476
 4577SOL    HW214542   5.035   3.116   2.903 -0.5205  1.7048 -0.6484
 4578SOL     OW14543   2.925   6.759   3.946 -0.1016  0.2717 -0.5138
 4578SOL    HW114544   2.837   6.723   3.959 -0.5727  1.2897 -0.7362
 4578SOL    HW214545   2.961   6.768   4.035  1.1292 -3.2229 -0.5172
 4579SOL     OW14546   6.070   5.447   0.378 -0.0255  0.1796  0.3880
 4579SOL    HW114547   6.059   5.354   0.397  1.6848  0.3659  2.6653
 4579SOL    HW214548   6.036   5.492   0.456 -3.9664  1.7662 -1.9444
 4580SOL     OW14549   7.682   3.989   1.689  0.4660 -0.5189 -0.1012
 4580SOL    HW114550   7.594   4.022   1.705  1.4046  1.0479  2.5552
 4580SOL    HW214551   7.681   3.959   1.598 -2.2197  1.2582 -0.7603
 4581SOL     OW14552   1.469   5.078   4.375 -0.4681 -0.2954 -0.4411
 4581SOL    HW114553   1.497   5.075   4.467  1.2122  1.8068 -0.7815
 4581SOL    HW214554   1.520   5.010   4.332 -0.8228 -0.8969  0.0817
 4582SOL     OW14555   4.293   7.219   1.181  0.2619 -0.3694  0.2434
 4582SOL    HW114556   4.250   7.278   1.243  1.1663  0.9139 -0.3117
 4582SOL    HW214557   4.340   7.156   1.235 -0.2492 -0.2452  0.8432
 4583SOL     OW14558   6.822   7.629   0.510 -0.3256 -0.4091 -0.0598
 4583SOL    HW114559   6.807   7.694   0.578  0.7997 -0.2780  0.0955
 4583SOL    HW214560   6.911   7.597   0.526 -0.8269 -1.9695 -0.1553
 4584SOL     OW14561   6.611   7.325   0.668  0.0915  0.2842  0.2048
 4584SOL    HW114562   6.521   7.356   0.664 -0.2561 -0.7764 -2.3097
 4584SOL    HW214563   6.656   7.388   0.724 -2.1526  0.8915  1.4589
 4585SOL     OW14564   3.756   3.655   5.755  0.7590  0.0144  0.0872
 4585SOL    HW114565   3.767   3.685   5.845 -0.4856  0.8233  0.0057
 4585SOL    HW214566   3.813   3.711   5.703  0.0687  0.8280  0.1828
 4586SOL     OW14567   6.497   1.953   5.027  0.1050  0.4902 -0.4723
 4586SOL    HW114568   6.577   1.991   5.064  0.5866 -1.8650  1.2085
 4586SOL    HW214569   6.488   1.993   4.941  3.3687  0.5658 -0.9171
 4587SOL     OW14570   1.100   0.784   4.936  1.0781  0.1289 -0.2212
 4587SOL    HW114571   1.126   0.855   4.878  2.4008 -1.2631 -1.4204
 4587SOL    HW214572   1.041   0.730   4.883  0.9526 -0.2600  0.3040
 4588SOL     OW14573   7.378   2.721   6.407 -0.3569 -0.0164  0.0780
 4588SOL    HW114574   7.441   2.740   6.337  1.9033  1.7914  2.4057
 4588SOL    HW214575   7.304   2.779   6.390 -0.0564  0.0622 -1.0370
 4589SOL     OW14576   1.813   5.385   4.844  0.4000  0.1190  0.0944
 4589SOL    HW114577   1.846   5.364   4.931  0.2533 -0.0508  0.1083
 4589SOL    HW214578   1.719   5.399   4.856  0.5394  1.0970  0.1431
 4590SOL     OW14579   4.751   7.344   5.308 -1.2002  0.3486  0.0787
 4590SOL    HW114580   4.655   7.341   5.319 -1.1521  0.2196  0.4693
 4590SOL    HW214581   4.763   7.361   5.214 -1.5906 -1.5664 -0.3594
 4591SOL     OW14582   6.259   2.514   5.649 -0.1162  0.4939 -0.1711
 4591SOL    HW114583   6.316   2.589   5.631 -0.1789  0.3069 -1.2111
 4591SOL    HW214584   6.203   2.507   5.572  0.6600 -1.3196 -0.6290
 4592SOL     OW14585   1.410   0.450   0.601 -0.4650  0.1813 -0.5270
 4592SOL    HW114586   1.354   0.372   0.605 -0.5542  0.3082  1.1641
 4592SOL    HW214587   1.361   0.517   0.648 -0.0037  1.0334 -1.2347
 4593SOL     OW14588   0.441   3.242   0.582 -0.1562  0.1894 -0.0403
 4593SOL    HW114589   0.450   3.151   0.608 -0.8288 -0.0795 -0.7266
 4593SOL    HW214590   0.372   3.277   0.638 -0.6405 -0.0177 -0.4983
 4594SOL     OW14591   4.885   3.779   1.378  0.4884  0.0304 -0.7495
 4594SOL    HW114592   4.842   3.738   1.453 -0.4054  1.1034 -0.6574
 4594SOL    HW214593   4.968   3.810   1.412  0.2511  0.1784 -0.2971
 4595SOL     OW14594   4.670   1.543   2.313 -0.6245  0.3247 -0.4280
 4595SOL    HW114595   4.644   1.595   2.389  0.2631 -1.3900  1.1607
 4595SOL    HW214596   4.764   1.528   2.326  0.1421  2.0904 -3.2578
 4596SOL     OW14597   7.131   3.820   3.802 -0.0553 -0.0439  0.3929
 4596SOL    HW114598   7.213   3.783   3.770 -0.1688 -0.6802  0.8232
 4596SOL    HW214599   7.074   3.744   3.815 -1.1944  0.4918 -1.2189
 4597SOL     OW14600   7.622   0.418   7.133  0.5454  0.0319 -0.1039
 4597SOL    HW114601   7.649   0.428   7.041  1.3485 -2.5234 -0.2060
 4597SOL    HW214602   7.573   0.336   7.135 -0.6869  0.7633  1.5305
 4598SOL     OW14603   4.152   3.047   4.085  0.1706  0.1824  0.2152
 4598SOL    HW114604   4.247   3.053   4.100  0.0938  1.7427  0.2836
 4598SOL    HW214605   4.127   2.962   4.121  1.2781  0.4886  1.7951
 4599SOL     OW14606   5.626   2.415   0.137  0.1038 -0.0050  0.2506
 4599SOL    HW114607   5.632   2.448   0.227 -0.5655 -0.7311  0.5773
 4599SOL    HW214608   5.580   2.484   0.089  1.0251  0.6662  0.3073
 4600SOL     OW14609   0.233   2.566   2.292 -0.4632  0.5357 -0.0770
 4600SOL    HW114610   0.192   2.615   2.363 -1.6392  2.2089 -1.8157
 4600SOL    HW214611   0.179   2.585   2.215  0.8384 -1.0842 -1.4795
 4601SOL     OW14612   1.540   5.705   5.202  0.6017 -0.4190  0.5094
 4601SOL    HW114613   1.449   5.677   5.192  0.2110  1.1646 -0.8407
 4601SOL    HW214614   1.551   5.719   5.296 -0.7430 -0.0328  0.6365
 4602SOL     OW14615   2.945   7.612   3.432  0.3221  0.0026  0.3631
 4602SOL    HW114616   2.883   7.635   3.501 -0.0789 -0.3034  0.1105
 4602SOL    HW214617   3.025   7.588   3.479 -0.0475 -0.5076  0.7373
 4603SOL     OW14618   5.479   6.820   3.228  0.0935  0.3010  0.0431
 4603SOL    HW114619   5.534   6.791   3.155 -0.3620  0.3438 -0.3171
 4603SOL    HW214620   5.472   6.915   3.216 -0.8815  0.1698 -0.4836
 4604SOL     OW14621   0.372   1.684   2.978  0.0682  0.0253 -0.1744
 4604SOL    HW114622   0.459   1.659   2.949  0.0468 -0.0774 -0.1494
 4604SOL    HW214623   0.333   1.728   2.902  0.0513 -0.1478 -0.2661
 4605SOL     OW14624   5.348   0.506   7.246  0.5871 -0.0031 -0.2723
 4605SOL    HW114625   5.309   0.494   7.333  1.3732 -0.4883  0.0272
 4605SOL    HW214626   5.279   0.480   7.185 -0.2062  1.0027  0.1777
 4606SOL     OW14627   5.147   1.896   6.437 -0.4182  0.0547 -0.6953
 4606SOL    HW114628   5.077   1.898   6.502  1.2585 -1.0524  1.2517
 4606SOL    HW214629   5.206   1.828   6.468  2.1198  1.6900 -1.6631
 4607SOL     OW14630   1.403   4.315   3.238 -0.5088  0.4946  0.1615
 4607SOL    HW114631   1.454   4.329   3.318 -0.8801 -0.8993  0.6736
 4607SOL    HW214632   1.445   4.240   3.196  2.0305  3.3508 -2.9673
 4608SOL     OW14633   2.872   7.861   7.121 -0.2163  0.8113 -0.5940
 4608SOL    HW114634   2.960   7.888   7.093 -0.6532  0.6283 -2.1910
 4608SOL    HW214635   2.816   7.880   7.047 -1.1997 -0.9016 -0.3355
 4609SOL     OW14636   6.177   3.528   4.502  0.2065  0.3493 -0.1863
 4609SOL    HW114637   6.130   3.464   4.556  0.9772 -0.5388 -0.5321
 4609SOL    HW214638   6.143   3.514   4.414  0.6546  0.1492 -0.3275
 4610SOL     OW14639   1.623   4.380   7.870 -0.1602 -0.2397  0.1337
 4610SOL    HW114640   1.601   4.302   7.922 -0.1454 -0.5445 -0.3061
 4610SOL    HW214641   1.701   4.354   7.822  1.8501  1.1757  2.4488
 4611SOL     OW14642   6.505   5.025   3.941  0.6635  0.4777  0.1144
 4611SOL    HW114643   6.501   4.936   3.907  0.7784  0.9109 -1.0766
 4611SOL    HW214644   6.580   5.065   3.895  3.3137 -0.0128  3.6063
 4612SOL     OW14645   2.830   7.125   4.467 -0.3902 -0.0516 -0.2816
 4612SOL    HW114646   2.854   7.035   4.445  1.3327  0.7022 -1.7433
 4612SOL    HW214647   2.747   7.138   4.423 -0.7247 -0.9554  0.0474
 4613SOL     OW14648   2.055   3.484   3.653 -0.2869  0.1038 -0.1726
 4613SOL    HW114649   1.964   3.459   3.670 -0.3304 -0.3707 -1.0283
 4613SOL    HW214650   2.054   3.580   3.650 -0.6783  0.1152  0.2244
 4614SOL     OW14651   6.906   0.071   0.002  0.0656 -0.1226 -0.0849
 4614SOL    HW114652   6.890   0.060  -0.091 -0.0551 -0.4054 -0.0348
 4614SOL    HW214653   6.996   0.041   0.016  0.8330  1.8719 -0.4352
 4615SOL     OW14654   2.819   5.238   6.856  0.3869  0.0283 -0.4317
 4615SOL    HW114655   2.836   5.151   6.891  2.3999  1.1176  1.5712
 4615SOL    HW214656   2.884   5.249   6.786 -1.5473 -0.9573 -2.4801
 4616SOL     OW14657   0.380   3.591   0.287 -0.1892  0.3571  0.2110
 4616SOL    HW114658   0.461   3.554   0.251  0.1226  0.1845  1.0563
 4616SOL    HW214659   0.395   3.685   0.285 -0.0556  0.3360  0.1495
 4617SOL     OW14660   3.730   0.154   6.545  0.0405 -0.3895 -0.5442
 4617SOL    HW114661   3.637   0.172   6.560  0.5803  1.0278  1.7256
 4617SOL    HW214662   3.735   0.059   6.539 -1.5963 -0.4779 -1.2029
 4618SOL     OW14663   4.906   0.352   7.789 -0.3109  0.4174 -0.4831
 4618SOL    HW114664   4.955   0.428   7.820  0.7748 -0.3280 -0.3206
 4618SOL    HW214665   4.904   0.363   7.693  0.1207  0.4869 -0.4872
 4619SOL     OW14666   4.606   4.924   1.031  0.3693 -0.4915  0.0322
 4619SOL    HW114667   4.629   4.884   1.115 -1.3097 -0.9069  0.3357
 4619SOL    HW214668   4.615   4.853   0.968  0.8814 -0.3883 -0.0090
 4620SOL     OW14669   5.368   7.420   3.488 -0.1397  0.2755  0.1525
 4620SOL    HW114670   5.345   7.412   3.396  0.8578  1.1176 -0.2032
 4620SOL    HW214671   5.459   7.390   3.492 -0.6560 -1.2461  1.1599
 4621SOL     OW14672   1.522   5.350   4.279  0.2638 -0.0193  0.2052
 4621SOL    HW114673   1.491   5.259   4.287 -0.4470  0.3074  1.4362
 4621SOL    HW214674   1.591   5.357   4.345  1.2170 -0.0090 -0.7682
 4622SOL     OW14675   5.897   5.018   3.289  0.0477  0.1635  0.0757
 4622SOL    HW114676   5.816   5.049   3.250 -0.9817 -0.2048  1.8012
 4622SOL    HW214677   5.942   5.098   3.317 -0.3553  0.3296  0.2727
 4623SOL     OW14678   4.170   5.639   2.297  0.1072  0.6278  0.6899
 4623SOL    HW114679   4.210   5.557   2.268 -1.1696 -0.1482  1.0310
 4623SOL    HW214680   4.211   5.657   2.382  0.5209  0.4500  0.5315
 4624SOL     OW14681   3.691   6.036   5.237  0.2730 -0.4557 -0.6602
 4624SOL    HW114682   3.772   6.073   5.271 -1.1614  1.2545  1.1314
 4624SOL    HW214683   3.665   6.096   5.167 -0.8978  0.7883  0.7557
 4625SOL     OW14684   2.824   7.003   3.371  0.4967 -0.0076  0.5413
 4625SOL    HW114685   2.797   6.975   3.458 -2.0118  0.3682 -0.0483
 4625SOL    HW214686   2.861   7.091   3.384  2.3314 -0.8563  1.4822
 4626SOL     OW14687   5.285   1.653   4.842 -0.1365  0.2053  0.6142
 4626SOL    HW114688   5.301   1.661   4.936  1.3949  2.8275  0.2152
 4626SOL    HW214689   5.212   1.713   4.825 -1.5999 -1.5622  0.3250
 4627SOL     OW14690   0.277   7.613   0.731  0.3891  0.3875  0.5445
 4627SOL    HW114691   0.203   7.569   0.689 -0.2890  0.7445  1.3227
 4627SOL    HW214692   0.341   7.624   0.661 -1.7373  3.3954 -1.2210
 4628SOL     OW14693   7.410   4.705   6.314 -0.1978  0.2177  0.4654
 4628SOL    HW114694   7.481   4.746   6.264 -0.2249  0.3833  0.5600
 4628SOL    HW214695   7.443   4.702   6.404  0.4499 -1.4318  0.2063
 4629SOL     OW14696   4.707   0.742   2.038 -0.1820 -0.3803 -0.0667
 4629SOL    HW114697   4.724   0.649   2.048  1.0324 -0.4403 -2.1065
 4629SOL    HW214698   4.788   0.784   2.069 -0.1168 -0.0994 -0.6149
 4630SOL     OW14699   6.127   2.608   4.810 -0.1089  0.3032  0.3678
 4630SOL    HW114700   6.150   2.515   4.803  1.3094  0.5433  1.3488
 4630SOL    HW214701   6.147   2.631   4.900 -1.1410  1.3991  0.3412
 4631SOL     OW14702   1.227   5.752   3.366 -0.1278  0.3525  0.3569
 4631SOL    HW114703   1.192   5.683   3.310  1.7119 -0.5055  0.1831
 4631SOL    HW214704   1.196   5.730   3.454 -0.3603 -0.1438  0.1534
 4632SOL     OW14705   7.900   4.153   1.715  0.1304 -0.3606  0.0489
 4632SOL    HW114706   7.822   4.097   1.722 -1.6765  2.1920  3.0534
 4632SOL    HW214707   7.968   4.106   1.762 -0.7589 -0.9718  0.7648
 4633SOL     OW14708   1.156   7.313   3.080  0.0186  0.7835  0.0189
 4633SOL    HW114709   1.151   7.297   3.175  0.3767  0.3369 -0.0352
 4633SOL    HW214710   1.242   7.351   3.066  0.0200  0.7221 -0.1424
 4634SOL     OW14711   4.413   0.740   7.287 -0.1009 -0.1093 -0.3992
 4634SOL    HW114712   4.406   0.743   7.383 -0.4296 -0.0680 -0.4253
 4634SOL    HW214713   4.373   0.822   7.258  0.3305  0.0499 -0.5547
 4635SOL     OW14714   2.345   0.044   4.791 -0.4507  0.0832 -0.0981
 4635SOL    HW114715   2.343  -0.022   4.721 -1.1253  0.9456 -0.9240
 4635SOL    HW214716   2.405   0.111   4.759 -0.7191  0.4574  0.1736
 4636SOL     OW14717   2.603   4.462   4.612 -0.9936  0.3078  0.0513
 4636SOL    HW114718   2.638   4.428   4.694 -0.7747 -0.8216 -0.4907
 4636SOL    HW214719   2.671   4.442   4.547 -1.6284  0.2168 -0.5972
 4637SOL     OW14720   3.765   6.700   4.083  0.5787 -0.3777 -0.2016
 4637SOL    HW114721   3.674   6.670   4.078  0.1913  0.8885 -1.7134
 4637SOL    HW214722   3.788   6.691   4.176 -1.8769  1.3805  0.6896
 4638SOL     OW14723   0.986   1.064   1.518 -0.1861  0.1953 -0.4250
 4638SOL    HW114724   0.923   1.109   1.574  0.1902  0.3858 -0.1564
 4638SOL    HW214725   0.953   0.974   1.513 -1.4454  0.6809 -1.6883
 4639SOL     OW14726   6.063   5.658   2.450 -0.0861 -0.0812  0.7225
 4639SOL    HW114727   6.090   5.583   2.397 -0.2493  0.2353  0.1708
 4639SOL    HW214728   6.139   5.679   2.504  0.0924 -0.4009  0.5962
 4640SOL     OW14729   1.681   2.203   2.737 -0.0956 -0.2067 -0.4596
 4640SOL    HW114730   1.631   2.165   2.664  1.5002  1.1100 -2.3460
 4640SOL    HW214731   1.618   2.207   2.809 -1.6537 -1.9035 -1.6274
 4641SOL     OW14732   7.577   6.541   2.105 -0.3412  0.2424 -0.1222
 4641SOL    HW114733   7.605   6.538   2.013 -2.0141  1.1801 -0.7044
 4641SOL    HW214734   7.485   6.514   2.102 -0.6094  0.9666  1.2001
 4642SOL     OW14735   5.286   4.135   1.634 -0.1275  0.3320 -0.3037
 4642SOL    HW114736   5.289   4.152   1.539  0.2322 -1.0740 -0.5700
 4642SOL    HW214737   5.371   4.096   1.654 -0.2256  0.5563  0.6069
 4643SOL     OW14738   7.993   7.592   6.114  0.1423 -0.2644  0.3570
 4643SOL    HW114739   7.983   7.515   6.170  1.2747 -1.7381 -1.3729
 4643SOL    HW214740   8.055   7.647   6.162  0.2603 -0.9807  1.0628
 4644SOL     OW14741   4.418   1.146   6.003 -0.3556  0.0372  0.1807
 4644SOL    HW114742   4.403   1.078   6.069  1.7426  0.3719  1.0730
 4644SOL    HW214743   4.480   1.106   5.942 -1.4177  0.1329 -1.0076
 4645SOL     OW14744   3.508   0.822   1.676 -0.3166  0.4628 -0.3077
 4645SOL    HW114745   3.597   0.806   1.644  0.1754  0.0789  1.1438
 4645SOL    HW214746   3.462   0.861   1.602  0.8509 -0.0099 -1.3205
 4646SOL     OW14747   1.625   6.419   2.928  0.3790 -0.2759 -0.3040
 4646SOL    HW114748   1.558   6.403   2.862  0.9285 -1.1908 -0.6678
 4646SOL    HW214749   1.691   6.472   2.884  0.6789 -0.7692 -0.4591
 4647SOL     OW14750   3.573   0.020   7.625  0.0724 -0.0869 -0.4252
 4647SOL    HW114751   3.639   0.082   7.658 -0.6926  1.4620 -1.6448
 4647SOL    HW214752   3.581   0.026   7.530 -2.9230  1.4807 -0.7023
 4648SOL     OW14753   4.783   2.190   1.813  0.3061  0.4067  1.1173
 4648SOL    HW114754   4.856   2.224   1.761  0.1971  0.2117  0.8368
 4648SOL    HW214755   4.762   2.261   1.874  0.0370  0.8777  0.4952
 4649SOL     OW14756   7.523   0.331   2.201 -0.3509  0.5223  0.3797
 4649SOL    HW114757   7.489   0.321   2.290 -1.2342  2.2171  0.2697
 4649SOL    HW214758   7.507   0.246   2.160  0.6511 -0.4988  1.9911
 4650SOL     OW14759   1.546   1.043   1.661  0.6024  0.0788  0.4287
 4650SOL    HW114760   1.493   1.005   1.591  2.7525 -0.3166 -1.0832
 4650SOL    HW214761   1.629   0.995   1.658  2.7144  3.4282 -0.2457
 4651SOL     OW14762   4.167   1.204   3.980  0.6256 -0.2942 -0.3875
 4651SOL    HW114763   4.137   1.172   3.895  0.1778 -0.3409 -0.2126
 4651SOL    HW214764   4.120   1.151   4.044  1.4276 -0.6816 -0.1085
 4652SOL     OW14765   2.468   6.090   6.112 -0.2981  0.5986 -0.4394
 4652SOL    HW114766   2.502   6.007   6.147 -0.1972  1.1620  0.8332
 4652SOL    HW214767   2.427   6.133   6.187 -1.2596  1.2468 -1.3167
 4653SOL     OW14768   5.430   7.795   6.406 -0.2076  0.0134 -0.1335
 4653SOL    HW114769   5.471   7.878   6.382  1.7785 -1.0156 -0.5725
 4653SOL    HW214770   5.457   7.779   6.496 -1.5283  0.3603  0.3407
 4654SOL     OW14771   6.067   2.755   0.412  0.2694 -0.4681  0.3679
 4654SOL    HW114772   6.061   2.665   0.445  1.2685 -1.3279 -1.6229
 4654SOL    HW214773   5.989   2.766   0.358 -0.2110  0.1401  1.1621
 4655SOL     OW14774   4.168   0.534   1.473 -0.7388  0.1652  0.6132
 4655SOL    HW114775   4.162   0.465   1.407  2.2318 -2.2827  2.6385
 4655SOL    HW214776   4.219   0.603   1.430 -0.8131 -0.3601 -0.3606
 4656SOL     OW14777   4.803   2.629   0.116 -0.0485  0.0478 -0.2242
 4656SOL    HW114778   4.845   2.699   0.065  0.9396 -0.7615 -0.5451
 4656SOL    HW214779   4.755   2.578   0.051 -0.5307  0.2443 -0.0284
 4657SOL     OW14780   1.808   1.870   5.971  0.0373  0.5073  0.9411
 4657SOL    HW114781   1.887   1.896   5.923  2.6028 -1.2010  3.8387
 4657SOL    HW214782   1.771   1.799   5.919  1.0549  0.6158  0.0168
 4658SOL     OW14783   5.019   1.127   0.726  0.3091 -0.1934 -0.5837
 4658SOL    HW114784   4.927   1.151   0.731  0.3550 -0.0912 -0.2280
 4658SOL    HW214785   5.066   1.209   0.743  0.4669 -0.5389  0.7444
 4659SOL     OW14786   5.902   2.004   4.799  0.1698  0.3032  0.1382
 4659SOL    HW114787   5.946   1.990   4.715  0.2996  0.2761  0.2104
 4659SOL    HW214788   5.822   2.052   4.777 -1.0644 -1.8399 -0.3120
 4660SOL     OW14789   3.560   4.211   1.922  0.4989  0.5610 -0.1734
 4660SOL    HW114790   3.551   4.251   1.835  1.4130 -1.3322 -1.2033
 4660SOL    HW214791   3.498   4.138   1.921  1.1438 -0.0044  0.4540
 4661SOL     OW14792   4.441   6.651   3.492 -0.5677 -0.1579 -0.0080
 4661SOL    HW114793   4.452   6.642   3.587 -0.5228  0.5313  0.0513
 4661SOL    HW214794   4.354   6.690   3.482 -0.3004  0.3781 -0.2291
 4662SOL     OW14795   2.609   1.001   7.201  0.5846  0.4180  0.0596
 4662SOL    HW114796   2.654   0.972   7.281 -0.5941  1.0594  0.9877
 4662SOL    HW214797   2.672   1.058   7.157  0.3272  2.3242  1.9699
 4663SOL     OW14798   1.716   2.896   7.316  0.0504 -0.1828 -0.0825
 4663SOL    HW114799   1.675   2.822   7.360 -1.5438 -0.0142 -1.1782
 4663SOL    HW214800   1.775   2.857   7.252 -0.3695 -0.5026 -0.2766
 4664SOL     OW14801   7.907   0.340   0.663 -0.0893 -0.1348  0.0578
 4664SOL    HW114802   7.877   0.290   0.739  0.8970 -1.3895 -0.3341
 4664SOL    HW214803   7.981   0.391   0.696 -0.6763  0.5784  0.3004
 4665SOL     OW14804   3.069   4.555   3.330  0.0226  0.2847  0.6150
 4665SOL    HW114805   3.121   4.476   3.318 -2.8530 -1.6977  0.0439
 4665SOL    HW214806   3.068   4.597   3.244  0.5127  0.2673  0.5977
 4666SOL     OW14807   4.544   5.851   0.374 -0.1396 -0.7401 -0.2096
 4666SOL    HW114808   4.529   5.756   0.377 -0.5198 -0.6768  2.4678
 4666SOL    HW214809   4.468   5.888   0.418  1.1921  0.5907  1.0948
 4667SOL     OW14810   2.138   7.355   7.119  0.6302  0.2787 -0.0423
 4667SOL    HW114811   2.114   7.289   7.055  1.7962  0.7938 -1.0456
 4667SOL    HW214812   2.222   7.324   7.155 -0.2079 -0.2213  1.5654
 4668SOL     OW14813   5.277   4.997   7.126 -1.0144  0.2092  0.2015
 4668SOL    HW114814   5.251   4.927   7.067 -0.2069  0.4735 -0.4877
 4668SOL    HW214815   5.348   5.042   7.080 -1.8710  1.8143  0.3980
 4669SOL     OW14816   3.209   5.873   1.525  0.0359 -0.3952  0.2629
 4669SOL    HW114817   3.266   5.949   1.534 -1.4199  0.7681  0.0315
 4669SOL    HW214818   3.159   5.871   1.607  0.5514 -1.5633  0.5802
 4670SOL     OW14819   0.104   7.648   5.072 -0.0651  0.0616  0.3096
 4670SOL    HW114820   0.096   7.615   5.161  1.1727 -0.7290  0.1621
 4670SOL    HW214821   0.145   7.576   5.024 -0.9281  0.3874 -0.9554
 4671SOL     OW14822   6.417   4.336   3.444  0.2002 -0.1355 -0.7395
 4671SOL    HW114823   6.457   4.378   3.521  1.8947 -0.3626 -1.4550
 4671SOL    HW214824   6.358   4.403   3.409  0.7183  0.6211 -0.2243
 4672SOL     OW14825   4.343   1.103   4.581 -0.4153  0.0759 -0.3382
 4672SOL    HW114826   4.382   1.070   4.500 -0.5495  0.5385 -0.5995
 4672SOL    HW214827   4.311   1.025   4.627 -0.0226 -0.2193 -0.5636
 4673SOL     OW14828   4.446   7.661   1.913 -0.0331 -0.2352  0.0462
 4673SOL    HW114829   4.461   7.720   1.839  1.0455  0.0393  0.4702
 4673SOL    HW214830   4.444   7.574   1.873  0.2997 -0.0699 -0.3414
 4674SOL     OW14831   6.306   4.462   6.260  0.0473  0.6854  0.1015
 4674SOL    HW114832   6.240   4.458   6.329 -1.0679 -0.1815 -0.9665
 4674SOL    HW214833   6.389   4.472   6.306 -0.6740  0.2226  1.5546
 4675SOL     OW14834   4.058   0.067   3.167  0.3949 -0.0037 -0.3219
 4675SOL    HW114835   4.108   0.132   3.119 -2.5357  1.2186 -2.0005
 4675SOL    HW214836   4.076   0.087   3.259  2.3923  0.7746 -0.8308
 4676SOL     OW14837   7.065   7.688   2.555  0.2178  0.4363 -0.0014
 4676SOL    HW114838   7.048   7.723   2.643  0.7071 -0.4793  0.4708
 4676SOL    HW214839   6.981   7.698   2.509 -0.4690 -0.3324  1.0213
 4677SOL     OW14840   1.731   4.084   4.499 -0.2334 -0.1900  0.0357
 4677SOL    HW114841   1.744   4.179   4.507  0.3318 -0.2288 -0.3455
 4677SOL    HW214842   1.659   4.075   4.438  0.0127 -0.0066 -0.2865
 4678SOL     OW14843   5.858   0.220   2.024 -0.0123  0.3129  0.4367
 4678SOL    HW114844   5.775   0.176   2.044  0.0755  0.2421  0.6491
 4678SOL    HW214845   5.836   0.280   1.953 -0.3732  0.7032  0.8648
 4679SOL     OW14846   2.588   7.570   5.920  0.0915 -0.1707 -0.3432
 4679SOL    HW114847   2.532   7.504   5.961 -0.0018  0.1331  0.0295
 4679SOL    HW214848   2.553   7.653   5.951 -1.5333  0.2319 -2.9634
 4680SOL     OW14849   4.726   4.721   4.063 -0.0883  0.1579  0.2331
 4680SOL    HW114850   4.798   4.663   4.084 -0.0994 -0.3291 -1.0407
 4680SOL    HW214851   4.656   4.695   4.123 -0.2487 -1.4588 -0.6079
 4681SOL     OW14852   0.143   0.987   7.235 -0.1935  0.2081  0.1380
 4681SOL    HW114853   0.179   1.067   7.273  0.7444  0.9739 -2.1835
 4681SOL    HW214854   0.217   0.946   7.190 -1.6311  0.6406 -2.8668
 4682SOL     OW14855   1.871   6.343   0.608  0.1619 -0.5922  0.2922
 4682SOL    HW114856   1.818   6.333   0.529  1.0379  0.5103 -0.4793
 4682SOL    HW214857   1.960   6.322   0.580  0.3021 -1.4971  1.3340
 4683SOL     OW14858   4.301   5.648   1.466  0.0858 -0.1547  0.1047
 4683SOL    HW114859   4.254   5.727   1.441 -1.5827 -1.3188 -0.6232
 4683SOL    HW214860   4.367   5.636   1.397  1.5194  1.4614  1.1091
 4684SOL     OW14861   7.368   3.724   3.686 -0.3681 -0.2888 -0.1756
 4684SOL    HW114862   7.421   3.803   3.674  0.4234 -0.6401  0.8400
 4684SOL    HW214863   7.388   3.669   3.611  0.6466 -0.3736  0.1517
 4685SOL     OW14864   7.741   2.010   0.603 -0.5806 -0.5657  0.2679
 4685SOL    HW114865   7.797   2.087   0.597  0.6733 -1.5363 -1.3800
 4685SOL    HW214866   7.703   2.014   0.691 -1.5642  2.5619 -0.1753
 4686SOL     OW14867   0.337   2.771   5.968 -0.3233  0.1093  0.6122
 4686SOL    HW114868   0.349   2.764   5.873 -0.9303 -1.0064  0.5861
 4686SOL    HW214869   0.406   2.830   5.998 -0.1286  0.4802 -0.5221
 4687SOL     OW14870   0.504   4.868   6.937  0.1942 -0.1213  0.9461
 4687SOL    HW114871   0.561   4.827   7.001  1.7557  1.2644  0.5275
 4687SOL    HW214872   0.564   4.906   6.872 -1.2611  0.1388 -0.3185
 4688SOL     OW14873   6.158   7.094   6.660 -0.4204 -0.6538  0.4847
 4688SOL    HW114874   6.230   7.083   6.722 -0.2557  1.5371  0.7636
 4688SOL    HW214875   6.079   7.093   6.714 -0.4712 -1.2023  0.4064
 4689SOL     OW14876   4.411   6.574   3.939  0.2705  0.4307 -0.2632
 4689SOL    HW114877   4.447   6.648   3.988 -1.0383 -1.6207  4.4478
 4689SOL    HW214878   4.328   6.605   3.904 -0.1585  1.3216  1.4455
 4690SOL     OW14879   5.975   4.141   0.244 -0.2425 -0.2301  0.0979
 4690SOL    HW114880   5.937   4.087   0.174 -1.0327 -1.5671  1.4910
 4690SOL    HW214881   5.991   4.079   0.315  1.3856  0.9371  0.7956
 4691SOL     OW14882   6.783   2.008   4.796 -0.1423  0.0286 -0.0284
 4691SOL    HW114883   6.737   1.932   4.760  2.6083 -1.3925 -0.7964
 4691SOL    HW214884   6.749   2.082   4.746 -0.5801 -1.1491 -1.5463
 4692SOL     OW14885   5.049   6.211   2.175  0.0080 -0.5248 -0.0010
 4692SOL    HW114886   5.086   6.213   2.087  0.6582  0.7735  0.2775
 4692SOL    HW214887   4.954   6.215   2.162  0.1164  0.1330 -0.6281
 4693SOL     OW14888   0.061   2.864   7.673 -0.6453  0.6119 -0.1878
 4693SOL    HW114889  -0.008   2.812   7.631  0.4987 -0.7384 -0.4957
 4693SOL    HW214890   0.109   2.801   7.727  1.5130  1.0190 -1.4765
 4694SOL     OW14891   2.422   7.796   5.939  0.2518 -0.2612  0.2686
 4694SOL    HW114892   2.356   7.854   5.977  1.3471 -0.2627  2.3565
 4694SOL    HW214893   2.447   7.838   5.857 -3.0719 -0.8440 -1.2420
 4695SOL     OW14894   0.160   5.046   1.107  0.3031  0.8575 -0.6512
 4695SOL    HW114895   0.213   4.971   1.081 -0.4566  0.1857 -0.3097
 4695SOL    HW214896   0.070   5.019   1.092 -0.1542  0.7113  1.8732
 4696SOL     OW14897   7.510   4.402   5.321  0.6244  0.1189 -0.4984
 4696SOL    HW114898   7.469   4.415   5.407  0.1382  1.6453 -0.9368
 4696SOL    HW214899   7.572   4.330   5.335 -1.8374 -1.9999  0.3015
 4697SOL     OW14900   2.812   1.861   0.781 -0.2624 -0.6480  0.1367
 4697SOL    HW114901   2.858   1.805   0.844 -0.3465 -1.9188 -0.8860
 4697SOL    HW214902   2.881   1.891   0.722 -0.5027 -1.3120 -0.4935
 4698SOL     OW14903   4.919   5.985   2.927  0.1288 -0.1858  0.5136
 4698SOL    HW114904   4.877   6.009   2.845  1.0584 -1.5813 -0.4028
 4698SOL    HW214905   4.972   6.061   2.951  0.5499 -0.1074 -0.6469
 4699SOL     OW14906   3.177   2.982   3.658 -0.0604 -0.6851 -0.0881
 4699SOL    HW114907   3.267   2.952   3.670  0.0540 -0.1829  0.3156
 4699SOL    HW214908   3.183   3.076   3.645 -0.3876 -0.8545 -1.8095
 4700SOL     OW14909   6.833   0.986   7.409  0.0861  0.0350 -0.1012
 4700SOL    HW114910   6.786   0.911   7.373  1.8304 -0.1658 -2.1654
 4700SOL    HW214911   6.807   1.059   7.354 -2.0428  1.1644  2.2516
 4701SOL     OW14912   5.599   7.675   7.388  0.3108 -0.0242 -0.2750
 4701SOL    HW114913   5.598   7.761   7.346  0.0911  1.2543  2.1438
 4701SOL    HW214914   5.515   7.635   7.364 -0.3415  1.1760 -0.0756
 4702SOL     OW14915   4.028   6.454   3.255 -0.1682  0.5722 -0.4501
 4702SOL    HW114916   4.076   6.387   3.305 -0.8204  0.4757  0.0440
 4702SOL    HW214917   3.953   6.407   3.218 -0.3297  0.9147 -0.5567
 4703SOL     OW14918   5.546   7.421   5.639 -0.1514  0.7753 -0.0294
 4703SOL    HW114919   5.569   7.348   5.695 -0.7518  1.2159  0.8179
 4703SOL    HW214920   5.618   7.428   5.576 -0.2675 -0.7754 -0.3748
 4704SOL     OW14921   1.375   1.887   7.967 -0.0121 -0.1753  0.2419
 4704SOL    HW114922   1.348   1.930   8.049 -1.2037 -1.0473  0.3348
 4704SOL    HW214923   1.456   1.841   7.990 -0.7075 -0.9956  1.1544
 4705SOL     OW14924   5.994   1.710   0.033 -0.5410 -0.2956  0.6579
 4705SOL    HW114925   5.977   1.651  -0.040  0.6673  0.8434 -0.6218
 4705SOL    HW214926   5.957   1.794   0.005  1.3537  0.5706  0.6017
 4706SOL     OW14927   0.943   6.705   4.330  0.3788  0.0848  0.0143
 4706SOL    HW114928   0.900   6.740   4.408  1.6475 -1.0526  1.2573
 4706SOL    HW214929   0.949   6.611   4.346 -1.0244 -0.4781 -2.3058
 4707SOL     OW14930   4.010   3.499   6.988 -0.5668  0.0232 -0.1460
 4707SOL    HW114931   4.078   3.547   7.035  0.2592 -0.4142 -0.8769
 4707SOL    HW214932   3.973   3.439   7.053 -0.0556  0.0510  0.1728
 4708SOL     OW14933   0.705   1.688   8.002  0.1060 -0.1765  0.3836
 4708SOL    HW114934   0.752   1.690   8.086 -0.2787  0.1082  0.5945
 4708SOL    HW214935   0.694   1.595   7.984  2.8188 -0.3647 -0.8463
 4709SOL     OW14936   3.641   1.864   6.376  0.3561 -0.1001  0.0188
 4709SOL    HW114937   3.608   1.814   6.451  2.8737 -1.0496  0.5996
 4709SOL    HW214938   3.717   1.815   6.346  2.5785  2.9741  0.1753
 4710SOL     OW14939   2.644   6.716   2.898 -0.1241 -0.5671  0.7207
 4710SOL    HW114940   2.567   6.746   2.946  0.7122  0.4595  1.4953
 4710SOL    HW214941   2.671   6.792   2.847  0.3258 -0.9415  0.3948
 4711SOL     OW14942   5.079   5.455   5.734  0.1901 -0.4478  0.5814
 4711SOL    HW114943   5.043   5.536   5.770  0.6826  0.0199  0.0446
 4711SOL    HW214944   5.172   5.473   5.721  0.1937 -0.9046 -0.0813
 4712SOL     OW14945   0.780   2.282   4.410 -0.6540 -0.1408  0.1031
 4712SOL    HW114946   0.872   2.257   4.404 -1.0395 -1.2353 -2.0489
 4712SOL    HW214947   0.780   2.377   4.403  0.2885 -0.1599 -0.2775
 4713SOL     OW14948   5.710   6.772   6.069  0.2894 -0.0218 -0.1271
 4713SOL    HW114949   5.619   6.795   6.087  0.3676  1.1425 -1.1198
 4713SOL    HW214950   5.720   6.784   5.974  1.8063  1.1687  0.1304
 4714SOL     OW14951   2.624   2.093   4.104 -0.2402  0.4241  0.1233
 4714SOL    HW114952   2.604   2.022   4.042  0.6935  0.1490  0.1217
 4714SOL    HW214953   2.717   2.111   4.091  0.4862 -0.9054  2.6874
 4715SOL     OW14954   6.905   0.658   2.387 -0.0663 -0.2441  0.1286
 4715SOL    HW114955   6.845   0.611   2.445 -0.1216 -0.3703 -0.0333
 4715SOL    HW214956   6.859   0.738   2.363 -0.0723 -0.2261  0.1989
 4716SOL     OW14957   4.739   6.035   2.703  0.3699 -0.0464  0.2075
 4716SOL    HW114958   4.722   6.129   2.717  1.0186  0.1446 -0.2767
 4716SOL    HW214959   4.704   6.018   2.616  1.0955 -0.0385 -0.0911
 4717SOL     OW14960   4.926   6.571   6.435 -0.4912 -0.1089 -0.0757
 4717SOL    HW114961   4.976   6.490   6.430 -0.3333 -0.0833  0.9869
 4717SOL    HW214962   4.988   6.636   6.468 -1.0606  0.0576  0.6912
 4718SOL     OW14963   6.042   5.911   2.235 -0.3262 -0.0359  0.1273
 4718SOL    HW114964   6.064   5.819   2.245 -1.2813 -0.4922 -1.6076
 4718SOL    HW214965   6.078   5.936   2.149 -1.4340  0.7547 -0.1386
 4719SOL     OW14966   7.396   6.948   7.370  0.0831 -0.3394  0.3164
 4719SOL    HW114967   7.392   6.976   7.462  1.5079 -0.3559  0.4030
 4719SOL    HW214968   7.362   7.023   7.321  0.4453  0.1368  0.7810
 4720SOL     OW14969   1.731   3.578   6.488 -0.0519  0.4225  0.3222
 4720SOL    HW114970   1.790   3.508   6.517  0.2763  0.9727  1.0208
 4720SOL    HW214971   1.652   3.532   6.461 -0.3365 -0.1644  1.9898
 4721SOL     OW14972   5.776   2.255   7.594 -0.0778 -0.0833  0.0660
 4721SOL    HW114973   5.700   2.208   7.561 -0.8318  1.3004 -0.2612
 4721SOL    HW214974   5.795   2.320   7.526  2.7319 -1.7322 -0.8968
 4722SOL     OW14975   2.680   6.608   4.003 -0.0732 -0.3387  0.5832
 4722SOL    HW114976   2.621   6.552   4.054 -1.7273 -0.0469 -0.9130
 4722SOL    HW214977   2.663   6.584   3.912  1.4176  0.4817  0.0589
 4723SOL     OW14978   2.405   6.549   5.196  0.3511 -0.3273  0.1702
 4723SOL    HW114979   2.370   6.627   5.240 -0.3634 -1.1730  1.1534
 4723SOL    HW214980   2.366   6.552   5.108 -0.3164 -0.0019  0.4679
 4724SOL     OW14981   6.769   6.840   0.570 -0.0887  0.1464 -0.0887
 4724SOL    HW114982   6.807   6.908   0.515  0.3930  0.6323  0.8234
 4724SOL    HW214983   6.688   6.879   0.604 -0.4467 -0.1956 -0.5172
 4725SOL     OW14984   7.825   2.292   6.117  0.0677  0.4817 -0.2691
 4725SOL    HW114985   7.913   2.327   6.136 -0.1829  1.0568 -0.1258
 4725SOL    HW214986   7.776   2.308   6.198  0.1372 -0.8791  0.0638
 4726SOL     OW14987   7.192   3.246   0.638 -1.1156  0.6292  0.5574
 4726SOL    HW114988   7.104   3.233   0.601 -1.1800  0.9692  0.5866
 4726SOL    HW214989   7.176   3.282   0.725 -1.0343 -2.2982  1.9194
 4727SOL     OW14990   3.959   1.531   1.017 -1.0601  0.2556 -0.0711
 4727SOL    HW114991   3.874   1.574   1.005 -1.3221 -0.5877 -1.5253
 4727SOL    HW214992   4.004   1.545   0.934 -0.4820 -0.8142  0.0455
 4728SOL     OW14993   0.987   5.554   0.970  0.8689  0.1470 -0.0396
 4728SOL    HW114994   0.994   5.471   1.016 -0.3782 -0.0856 -0.2348
 4728SOL    HW214995   1.072   5.565   0.927  0.2485 -2.3197 -2.1549
 4729SOL     OW14996   5.803   5.251   6.893 -0.3276  0.3315 -0.0278
 4729SOL    HW114997   5.759   5.222   6.814 -0.5715  0.8202 -0.0744
 4729SOL    HW214998   5.775   5.189   6.961 -0.0843 -0.1108 -0.3317
 4730SOL     OW14999   4.155   0.159   6.592 -0.5304 -0.2609 -0.0207
 4730SOL    HW115000   4.072   0.174   6.638 -2.8235  1.2601 -4.0734
 4730SOL    HW215001   4.179   0.245   6.558  2.4849 -0.7993  0.5356
 4731SOL     OW15002   7.863   7.941   7.896  0.6141 -0.1499 -0.5480
 4731SOL    HW115003   7.925   7.891   7.843  0.8161 -0.2562 -0.2136
 4731SOL    HW215004   7.904   8.026   7.906  1.3400 -0.6411  0.8005
 4732SOL     OW15005   4.064   0.058   5.940 -0.2200  0.0820  0.2964
 4732SOL    HW115006   4.069   0.030   6.032 -1.2460  0.9303  0.6280
 4732SOL    HW215007   4.155   0.060   5.911  0.1573  0.2166  1.4255
 4733SOL     OW15008   2.735   1.876   7.226 -1.3554  0.4440  0.5186
 4733SOL    HW115009   2.714   1.968   7.211 -0.7325  0.5114  0.0315
 4733SOL    HW215010   2.723   1.863   7.320 -1.6199  0.9771  0.5587
 4734SOL     OW15011   0.519   6.584   4.000  0.4671  0.0758  0.1664
 4734SOL    HW115012   0.457   6.540   4.059  1.1912  1.2184  1.8433
 4734SOL    HW215013   0.592   6.609   4.057  0.2810  3.0601 -0.7806
 4735SOL     OW15014   5.482   4.560   4.487  0.2426  0.3406  0.2563
 4735SOL    HW115015   5.434   4.633   4.525  1.4898  0.8923  0.8142
 4735SOL    HW215016   5.414   4.506   4.445 -0.6992  1.7826 -0.1376
 4736SOL     OW15017   5.808   2.707   4.272  0.1428  0.5491 -0.1363
 4736SOL    HW115018   5.880   2.650   4.298  1.1820  1.3936 -1.0953
 4736SOL    HW215019   5.755   2.654   4.213 -1.1304 -0.7118  2.0202
 4737SOL     OW15020   2.698   2.112   1.201 -0.1876 -0.1328  0.0067
 4737SOL    HW115021   2.669   2.203   1.200  3.3774  1.2069  1.0397
 4737SOL    HW215022   2.737   2.098   1.115 -0.3261 -0.5256  0.0059
 4738SOL     OW15023   6.919   3.213   5.499  0.4793  0.3908 -0.2417
 4738SOL    HW115024   6.919   3.187   5.592 -1.9245 -0.1684 -0.3351
 4738SOL    HW215025   6.833   3.187   5.467  1.3642  0.2862 -2.7469
 4739SOL     OW15026   4.399   3.765   6.354  0.0124  0.3139 -0.1208
 4739SOL    HW115027   4.340   3.766   6.279  1.2337 -0.4799 -1.1384
 4739SOL    HW215028   4.409   3.857   6.378  1.1347  0.8041 -2.2194
 4740SOL     OW15029   1.178   1.633   2.925  0.1854  0.3469 -0.5116
 4740SOL    HW115030   1.175   1.713   2.872  0.6585  0.4118 -0.4463
 4740SOL    HW215031   1.267   1.632   2.962  0.3613 -0.4725 -0.9265
 4741SOL     OW15032   2.126   1.564   4.007 -0.2702 -0.0910 -0.1832
 4741SOL    HW115033   2.106   1.654   3.979  0.7226 -0.0624 -0.8236
 4741SOL    HW215034   2.113   1.511   3.928 -0.5322 -0.4772  0.1115
 4742SOL     OW15035   0.571   7.272   4.152  0.1265  0.5831 -0.0174
 4742SOL    HW115036   0.657   7.242   4.181 -0.1503  0.9134  1.1999
 4742SOL    HW215037   0.517   7.271   4.231 -1.2777 -0.5684 -0.9382
 4743SOL     OW15038   1.959   3.492   0.751  0.0584  0.0866  0.2469
 4743SOL    HW115039   1.979   3.569   0.804 -0.7506  0.0979  0.5530
 4743SOL    HW215040   1.888   3.521   0.693 -0.1763 -0.3964  0.2902
 4744SOL     OW15041   7.817   4.131   6.996 -0.1794  0.0016 -0.2127
 4744SOL    HW115042   7.823   4.040   7.026 -0.9001  0.6750  2.1914
 4744SOL    HW215043   7.769   4.126   6.913 -0.7388 -1.7647  0.1827
 4745SOL     OW15044   6.988   1.143   2.219  0.2194 -0.0927  0.0657
 4745SOL    HW115045   6.920   1.191   2.267 -0.4325 -1.3972  0.5113
 4745SOL    HW215046   7.068   1.192   2.234 -0.5113  1.1501  0.0361
 4746SOL     OW15047   0.288   0.374   2.737  0.0036 -0.3632  0.1578
 4746SOL    HW115048   0.209   0.409   2.780  1.4784  1.5447  1.4759
 4746SOL    HW215049   0.300   0.288   2.778 -0.1194  0.3105  1.6945
 4747SOL     OW15050   7.755   3.181   2.185 -0.8752  0.5155  0.8868
 4747SOL    HW115051   7.759   3.113   2.253 -0.2576 -1.1168 -0.6952
 4747SOL    HW215052   7.846   3.208   2.172 -0.9643  0.6667  0.5693
 4748SOL     OW15053   2.826   7.672   0.829 -0.3606  0.1513 -0.5405
 4748SOL    HW115054   2.775   7.604   0.785 -2.4380  0.3401  1.4051
 4748SOL    HW215055   2.875   7.625   0.897 -0.9625  0.4444  0.1044
 4749SOL     OW15056   0.313   0.953   7.856 -0.2267 -0.1367 -0.1250
 4749SOL    HW115057   0.322   0.953   7.761 -2.5537  0.1125 -0.3960
 4749SOL    HW215058   0.228   0.993   7.872  0.5311  0.7122  2.1292
 4750SOL     OW15059   6.609   1.885   5.772 -0.3430  0.4285  0.2368
 4750SOL    HW115060   6.573   1.850   5.690  0.1180 -0.7109  0.4972
 4750SOL    HW215061   6.645   1.970   5.748  0.3508 -0.1555 -0.9001
 4751SOL     OW15062   3.669   4.153   5.575  0.0478  0.6281  0.5587
 4751SOL    HW115063   3.654   4.221   5.509  0.0773 -0.3536 -0.4928
 4751SOL    HW215064   3.698   4.077   5.525  2.9222  0.6893  1.9577
 4752SOL     OW15065   2.208   2.295   6.206 -0.4390 -0.5319 -0.0617
 4752SOL    HW115066   2.167   2.209   6.213  0.1074 -0.9685 -1.6623
 4752SOL    HW215067   2.300   2.281   6.231 -0.4765 -0.2945  0.2139
 4753SOL     OW15068   1.847   2.947   7.583  0.3343 -0.2379  0.2349
 4753SOL    HW115069   1.794   2.934   7.505 -0.1886  2.3897  0.0850
 4753SOL    HW215070   1.803   2.896   7.651 -0.2660 -1.0220 -0.7124
 4754SOL     OW15071   7.027   0.950   4.540 -0.7403  0.4468 -0.4372
 4754SOL    HW115072   6.961   0.882   4.551  0.6840 -0.9252 -0.0864
 4754SOL    HW215073   7.101   0.922   4.594  0.1677  1.9146 -0.8448
 4755SOL     OW15074   7.533   7.713   4.126  0.0697  0.4882 -0.5774
 4755SOL    HW115075   7.620   7.683   4.150 -0.0735  1.4678  1.3277
 4755SOL    HW215076   7.539   7.809   4.127 -1.5436  0.6520  1.9569
 4756SOL     OW15077   1.061   3.209   0.441 -0.0604  0.3888 -0.4296
 4756SOL    HW115078   1.117   3.245   0.510  0.9742  1.3483 -1.7156
 4756SOL    HW215079   0.974   3.205   0.481  0.3156  1.8311  0.6464
 4757SOL     OW15080   0.100   0.991   0.343 -0.1136 -0.4223 -0.1600
 4757SOL    HW115081   0.085   0.907   0.386 -2.1634 -0.1888 -0.3238
 4757SOL    HW215082   0.027   1.001   0.282  0.9838  0.7347 -1.3695
 4758SOL     OW15083   5.303   3.389   7.909  0.0790  0.0359  0.1444
 4758SOL    HW115084   5.256   3.388   7.826  0.1956  0.6291  0.0699
 4758SOL    HW215085   5.329   3.298   7.923  2.5855  0.3288 -1.8968
 4759SOL     OW15086   3.731   4.422   4.219  0.1045 -0.3726 -0.2325
 4759SOL    HW115087   3.721   4.339   4.174 -0.6555 -0.1068 -0.5705
 4759SOL    HW215088   3.711   4.488   4.152  0.1972  0.0609  0.1612
 4760SOL     OW15089   7.301   6.279   4.842 -0.1793  0.8384 -0.2021
 4760SOL    HW115090   7.302   6.280   4.747  2.3157  0.9330 -0.2478
 4760SOL    HW215091   7.305   6.371   4.868 -3.0459  0.9631  0.1078
 4761SOL     OW15092   5.979   4.999   1.601 -0.0382 -0.5024  0.1372
 4761SOL    HW115093   5.891   5.008   1.564 -0.3807 -0.9954  0.8268
 4761SOL    HW215094   5.980   5.059   1.675  0.2323 -0.4549  0.0969
 4762SOL     OW15095   4.395   2.459   4.060 -0.3258  0.9049 -0.0092
 4762SOL    HW115096   4.354   2.477   4.144  1.1149  1.2297  0.6533
 4762SOL    HW215097   4.330   2.487   3.995 -2.0715 -0.7336  0.9400
 4763SOL     OW15098   5.998   4.847   7.395  0.2115 -0.5061 -0.7823
 4763SOL    HW115099   5.922   4.822   7.342  1.0644  1.0905 -2.9502
 4763SOL    HW215100   6.067   4.786   7.368  0.1934 -0.7999 -0.1744
 4764SOL     OW15101   3.373   0.724   2.662 -0.2091  0.1624 -0.3462
 4764SOL    HW115102   3.421   0.724   2.745 -1.9810  0.4370  0.7315
 4764SOL    HW215103   3.284   0.748   2.686 -0.8998 -0.3011 -2.2754
 4765SOL     OW15104   6.807   3.997   3.170  0.8698 -0.6627  0.2235
 4765SOL    HW115105   6.842   3.909   3.182  2.7916 -0.4268 -2.5701
 4765SOL    HW215106   6.712   3.986   3.169  1.0335 -2.4771  1.1811
 4766SOL     OW15107   4.184   3.061   3.591  0.5567  0.1214 -0.0179
 4766SOL    HW115108   4.151   3.100   3.672  0.9347  1.3905 -0.4591
 4766SOL    HW215109   4.108   3.015   3.554  0.4250 -0.6019  1.1144
 4767SOL     OW15110   6.727   3.927   7.311  0.2102  0.1956  0.0867
 4767SOL    HW115111   6.674   4.006   7.324  2.1447  1.6726 -0.3491
 4767SOL    HW215112   6.692   3.886   7.232 -0.8784  0.5641  0.3639
 4768SOL     OW15113   7.006   7.774   6.451  0.3891  0.2054 -0.3163
 4768SOL    HW115114   7.007   7.862   6.413 -0.5160  0.3561  0.0018
 4768SOL    HW215115   6.926   7.734   6.418  0.5323 -0.3192 -0.0431
 4769SOL     OW15116   2.015   3.664   0.541  0.4574  0.3265  0.1151
 4769SOL    HW115117   2.072   3.732   0.505 -0.0762  0.4003 -0.6050
 4769SOL    HW215118   2.074   3.593   0.566  1.2637  1.7467  2.6529
 4770SOL     OW15119   5.217   4.913   5.038  0.0363  0.3644  0.4348
 4770SOL    HW115120   5.232   4.984   5.101 -1.0312 -0.0244  1.1696
 4770SOL    HW215121   5.123   4.918   5.019  0.0645 -0.4762  0.0376
 4771SOL     OW15122   5.594   0.094   6.359 -0.2273 -0.2091 -0.4498
 4771SOL    HW115123   5.683   0.079   6.327 -1.2547  0.2797 -4.0100
 4771SOL    HW215124   5.577   0.186   6.338 -1.0609  0.2123  1.7773
 4772SOL     OW15125   7.728   1.004   6.029 -0.8023 -0.3882 -0.5817
 4772SOL    HW115126   7.718   0.910   6.012 -0.9521 -0.5907  0.5064
 4772SOL    HW215127   7.641   1.040   6.013 -0.6169 -0.3486 -1.5016
 4773SOL     OW15128   4.733   3.729   5.940  0.1728  0.0933  0.3325
 4773SOL    HW115129   4.726   3.645   5.986  0.8631  0.4884  1.2036
 4773SOL    HW215130   4.645   3.767   5.945 -0.3157 -0.8624 -0.6631
 4774SOL     OW15131   1.558   1.444   2.767  0.2107 -0.2151 -0.1929
 4774SOL    HW115132   1.578   1.466   2.858 -2.2200  1.6806 -0.0408
 4774SOL    HW215133   1.498   1.370   2.773  2.9585 -2.6434 -0.4924
 4775SOL     OW15134   6.856   3.814   1.047 -0.1211 -0.0667  0.3525
 4775SOL    HW115135   6.914   3.845   1.117 -0.5539 -0.2956  0.8191
 4775SOL    HW215136   6.810   3.893   1.018  1.6349  0.4639 -1.2237
 4776SOL     OW15137   5.853   6.929   5.504  0.0248  0.1399  0.2660
 4776SOL    HW115138   5.780   6.957   5.560  1.1158  2.3573  0.6846
 4776SOL    HW215139   5.918   6.895   5.565  0.2054  0.1882  0.0983
 4777SOL     OW15140   4.697   6.591   6.281  0.0264 -0.3737  0.4201
 4777SOL    HW115141   4.708   6.682   6.256 -1.8795 -0.8163 -2.5286
 4777SOL    HW215142   4.758   6.578   6.353 -0.3792  3.4527  1.6520
 4778SOL     OW15143   3.623   0.446   2.338  0.5558 -0.1712  0.2031
 4778SOL    HW115144   3.590   0.357   2.328 -0.6968  0.4278 -1.3545
 4778SOL    HW215145   3.628   0.459   2.432 -0.6895 -1.3690  0.4690
 4779SOL     OW15146   4.334   3.913   4.668 -0.0490  0.1865 -0.0292
 4779SOL    HW115147   4.254   3.867   4.693  0.2750 -1.6308 -2.1150
 4779SOL    HW215148   4.401   3.880   4.729 -0.4319  0.1731  0.3927
 4780SOL     OW15149   7.592   2.237   5.051 -0.1861  0.2825 -0.0722
 4780SOL    HW115150   7.550   2.158   5.018  1.2696 -1.5524  2.1500
 4780SOL    HW215151   7.532   2.271   5.117  1.2268 -1.8878  2.5251
 4781SOL     OW15152   1.267   1.880   3.867  0.6649 -0.3151 -0.1739
 4781SOL    HW115153   1.303   1.955   3.820  0.0300  0.1486  0.0520
 4781SOL    HW215154   1.343   1.828   3.892  1.4217  1.6902  2.1335
 4782SOL     OW15155   2.601   4.686   7.719  0.5558 -0.4757 -0.1710
 4782SOL    HW115156   2.673   4.655   7.664 -0.1110 -3.8738  0.6794
 4782SOL    HW215157   2.637   4.761   7.766  2.5777 -0.3056 -1.8472
 4783SOL     OW15158   7.522   2.116   1.853 -0.2626 -0.3864 -0.2038
 4783SOL    HW115159   7.497   2.181   1.787 -0.6292  0.6841  0.9392
 4783SOL    HW215160   7.579   2.055   1.806  0.5034  1.0389 -1.2305
 4784SOL     OW15161   1.585   2.715   7.495  0.1741  0.0051 -0.0165
 4784SOL    HW115162   1.596   2.647   7.560  1.3180 -0.5881 -0.8095
 4784SOL    HW215163   1.493   2.741   7.503 -0.5257 -2.2024 -0.2436
 4785SOL     OW15164   1.523   2.501   2.157 -0.2310  0.1406 -0.0828
 4785SOL    HW115165   1.589   2.460   2.215  0.0342  0.7562  0.0585
 4785SOL    HW215166   1.548   2.594   2.155  0.0277  0.0658 -1.5361
 4786SOL     OW15167   6.498   7.645   6.922 -0.6593  0.4419 -0.3410
 4786SOL    HW115168   6.534   7.564   6.957  1.3133  1.1917 -0.5100
 4786SOL    HW215169   6.556   7.667   6.849 -1.3048  1.8913 -0.4500
 4787SOL     OW15170   5.223   7.821   2.929  0.0406 -0.8316 -0.5007
 4787SOL    HW115171   5.200   7.748   2.987 -0.9649  0.2533  0.5313
 4787SOL    HW215172   5.149   7.828   2.868  1.2862 -2.2367 -2.2642
 4788SOL     OW15173   6.405   3.269   0.579  0.1315 -0.0415  0.2843
 4788SOL    HW115174   6.427   3.347   0.528 -1.9817  0.3898 -0.0448
 4788SOL    HW215175   6.315   3.284   0.608  0.2372 -1.6499  1.5860
 4789SOL     OW15176   3.144   0.579   0.857  0.2532  0.2657 -0.1761
 4789SOL    HW115177   3.051   0.556   0.867 -0.3879  1.4211 -2.6808
 4789SOL    HW215178   3.153   0.663   0.902 -0.5895  1.3926 -1.9871
 4790SOL     OW15179   3.131   1.284   7.226 -0.1266 -0.8482  0.0561
 4790SOL    HW115180   3.163   1.269   7.137 -1.2097 -1.8502 -0.1940
 4790SOL    HW215181   3.175   1.364   7.254  1.0595 -1.1064 -0.9723
 4791SOL     OW15182   6.572   1.253   1.938  0.2755 -0.6591  0.2088
 4791SOL    HW115183   6.541   1.209   1.859 -0.3482  0.1464 -0.0120
 4791SOL    HW215184   6.667   1.240   1.937  0.2812 -0.6331 -0.6983
 4792SOL     OW15185   0.920   2.554   4.326  0.4422 -0.6841 -0.1331
 4792SOL    HW115186   0.861   2.623   4.356  1.8912  1.3187 -1.6243
 4792SOL    HW215187   0.914   2.557   4.230 -0.7162 -3.8564 -0.2928
 4793SOL     OW15188   7.777   6.448   7.502 -0.3588 -0.0251 -0.0842
 4793SOL    HW115189   7.749   6.361   7.473 -3.2533  0.8487 -0.2548
 4793SOL    HW215190   7.784   6.499   7.422 -2.2706  0.7778  0.2009
 4794SOL     OW15191   0.022   5.725   7.741 -0.5809  0.6722  0.3103
 4794SOL    HW115192  -0.064   5.768   7.738 -1.1202 -0.3935  0.0226
 4794SOL    HW215193   0.055   5.731   7.651 -1.4417 -1.0128 -0.1614
 4795SOL     OW15194   6.789   5.706   0.415 -0.4032 -0.8144  0.2610
 4795SOL    HW115195   6.826   5.789   0.385 -0.7488  0.7646  3.6546
 4795SOL    HW215196   6.864   5.646   0.418  0.8341  0.6779  1.6555
 4796SOL     OW15197   2.010   3.617   2.608  0.4048  0.0569 -0.2570
 4796SOL    HW115198   1.928   3.569   2.616 -0.9722  2.5053  2.0465
 4796SOL    HW215199   2.030   3.645   2.697  2.6084  1.3171 -1.0785
 4797SOL     OW15200   7.199   3.123   7.440 -0.2448 -0.0774  0.1675
 4797SOL    HW115201   7.210   3.209   7.399 -1.2493  0.1408  0.3333
 4797SOL    HW215202   7.109   3.123   7.472 -0.5385 -1.5163 -0.5784
 4798SOL     OW15203   7.883   7.143   4.022  0.5929  0.5084  0.4332
 4798SOL    HW115204   7.961   7.161   4.075  0.2375 -0.1341  1.1875
 4798SOL    HW215205   7.879   7.048   4.017  0.5666  0.5553 -0.6841
 4799SOL     OW15206   4.186   2.720   2.084  0.2600  0.4580 -0.1697
 4799SOL    HW115207   4.210   2.627   2.091  1.1685  0.7118  0.2870
 4799SOL    HW215208   4.267   2.767   2.102 -0.5034  1.3635  1.0760
 4800SOL     OW15209   6.332   5.437   3.256 -0.5076  0.0365 -0.1373
 4800SOL    HW115210   6.341   5.346   3.283  0.4085  0.1917  0.1076
 4800SOL    HW215211   6.398   5.484   3.307  1.0569  0.3846 -2.3478
 4801SOL     OW15212   6.555   7.413   2.251 -1.0741 -0.3799 -0.3255
 4801SOL    HW115213   6.461   7.420   2.262 -0.8989  0.5830  0.7974
 4801SOL    HW215214   6.580   7.336   2.303 -1.1356 -0.0716  0.1682
 4802SOL     OW15215   5.294   0.086   3.448  0.2577 -0.5324 -0.6795
 4802SOL    HW115216   5.353   0.160   3.432 -0.0124  0.2651  1.6114
 4802SOL    HW215217   5.346   0.024   3.499  0.4466 -1.9522 -2.4858
 4803SOL     OW15218   7.631   4.994   4.565 -0.3631 -0.0846  0.6133
 4803SOL    HW115219   7.586   4.913   4.542  1.7432 -0.9594 -0.6805
 4803SOL    HW215220   7.595   5.060   4.505  1.3538 -1.2090 -1.8137
 4804SOL     OW15221   7.655   4.042   4.716  0.4684 -0.4324  0.0421
 4804SOL    HW115222   7.660   3.973   4.781 -1.3487 -0.8408 -0.2065
 4804SOL    HW215223   7.563   4.043   4.688  0.3496  2.2780  0.2570
 4805SOL     OW15224   0.327   3.741   2.664  0.1688  0.1129  0.0777
 4805SOL    HW115225   0.362   3.659   2.629 -0.9358 -0.5790  0.5483
 4805SOL    HW215226   0.236   3.742   2.635  0.3433  1.5030 -0.4745
 4806SOL     OW15227   4.908   4.313   6.746  0.0323  0.4060 -0.0131
 4806SOL    HW115228   4.885   4.272   6.829  1.6603 -0.0406  0.2453
 4806SOL    HW215229   4.883   4.405   6.757  0.6510  0.4490  1.1476
 4807SOL     OW15230   5.774   0.689   2.588  0.6119  0.4714  0.3936
 4807SOL    HW115231   5.706   0.740   2.633  1.2012  2.5788 -0.9850
 4807SOL    HW215232   5.732   0.605   2.570 -1.4670  1.5002  0.1024
 4808SOL     OW15233   4.550   2.297   7.131 -0.2674 -0.3469  0.2640
 4808SOL    HW115234   4.594   2.336   7.055 -2.4341  0.9193 -0.4337
 4808SOL    HW215235   4.532   2.370   7.189  0.6354 -1.1947  1.6704
 4809SOL     OW15236   5.447   0.197   0.886  0.1200  0.7165 -0.0716
 4809SOL    HW115237   5.509   0.207   0.814  0.4285  0.2693  0.1335
 4809SOL    HW215238   5.407   0.284   0.894  2.2621  1.6570  1.2184
 4810SOL     OW15239   1.342   3.286   1.506  0.2194  0.4540  0.8127
 4810SOL    HW115240   1.379   3.368   1.539  0.9677  1.7202 -2.6671
 4810SOL    HW215241   1.329   3.302   1.412 -1.9509 -2.6244  0.4244
 4811SOL     OW15242   2.471   3.892   4.370  0.2159 -0.5143  0.0291
 4811SOL    HW115243   2.381   3.924   4.365  0.2918 -0.1892  0.6742
 4811SOL    HW215244   2.524   3.971   4.379  0.4942 -0.7549  0.5100
 4812SOL     OW15245   5.369   5.116   0.637  0.4738 -0.2471  0.3140
 4812SOL    HW115246   5.353   5.210   0.646 -0.5881 -0.4565  0.8609
 4812SOL    HW215247   5.322   5.077   0.710 -2.1678 -1.4739 -1.8373
 4813SOL     OW15248   6.938   0.140   3.691  0.5899  0.5179 -0.3196
 4813SOL    HW115249   6.978   0.217   3.731 -0.8656  1.2320 -0.1767
 4813SOL    HW215250   6.916   0.168   3.602  0.9464 -0.0485 -0.5872
 4814SOL     OW15251   7.336   5.677   6.221 -0.6109  0.2854  0.6636
 4814SOL    HW115252   7.404   5.713   6.277 -0.7474 -1.5195  2.0877
 4814SOL    HW215253   7.254   5.699   6.265 -0.8451  0.6879  0.0350
 4815SOL     OW15254   3.913   1.495   7.431  0.0211 -0.0578 -0.6063
 4815SOL    HW115255   3.844   1.437   7.463 -2.2522  2.0178 -1.4520
 4815SOL    HW215256   3.969   1.511   7.507  1.3266 -3.8968 -0.5073
 4816SOL     OW15257   3.539   1.484   6.409  0.1350 -0.5123  0.6244
 4816SOL    HW115258   3.624   1.507   6.373  0.2378 -0.8543  0.6425
 4816SOL    HW215259   3.543   1.389   6.422 -0.0725 -0.4613  1.0886
 4817SOL     OW15260   0.848   2.145   6.783  0.3920 -0.3763  0.2009
 4817SOL    HW115261   0.892   2.110   6.860 -0.3178  1.1072  1.3346
 4817SOL    HW215262   0.775   2.196   6.818 -0.7703 -0.7695 -1.5249
 4818SOL     OW15263   7.249   3.185   2.262  0.1557  0.1363 -0.3812
 4818SOL    HW115264   7.179   3.244   2.237 -2.1377 -1.9485  0.7050
 4818SOL    HW215265   7.282   3.150   2.179  0.3736  1.5951 -0.9365
 4819SOL     OW15266   2.106   7.464   5.242  0.7989  0.2368  0.4545
 4819SOL    HW115267   2.091   7.435   5.152  0.9320 -0.4985  0.6628
 4819SOL    HW215268   2.151   7.548   5.233 -0.4645  0.8776 -0.1641
 4820SOL     OW15269   2.949   1.728   3.549 -0.1529  0.0279 -0.2478
 4820SOL    HW115270   3.001   1.708   3.471  0.9843 -0.6210  0.6288
 4820SOL    HW215271   3.003   1.791   3.597 -0.5355 -0.0731  0.3189
 4821SOL     OW15272   3.206   7.140   1.480 -0.4276 -0.0846  0.5087
 4821SOL    HW115273   3.142   7.106   1.416  0.2317 -1.7419  0.6762
 4821SOL    HW215274   3.258   7.203   1.430 -1.3169  0.2863  0.0105
 4822SOL     OW15275   7.801   4.141   5.586 -0.0931 -0.1026  0.3908
 4822SOL    HW115276   7.731   4.102   5.639  1.4941 -1.1147  1.8344
 4822SOL    HW215277   7.866   4.169   5.650  1.5104 -0.5534 -0.9871
 4823SOL     OW15278   0.463   0.490   0.260  1.0787  0.0216 -0.0573
 4823SOL    HW115279   0.475   0.488   0.165 -1.4681  0.3318 -0.4596
 4823SOL    HW215280   0.377   0.531   0.272  1.1332 -0.4508  2.3597
 4824SOL     OW15281   1.638   4.202   4.969  0.2046  0.3047  0.6912
 4824SOL    HW115282   1.661   4.274   4.910  0.7658 -0.9975 -0.7693
 4824SOL    HW215283   1.582   4.145   4.916  0.5784 -0.8237  1.4651
 4825SOL     OW15284   4.826   5.267   3.458  0.4033 -0.1520 -0.2369
 4825SOL    HW115285   4.908   5.224   3.434  0.7462  0.7130 -0.6666
 4825SOL    HW215286   4.840   5.359   3.435 -0.1661  0.2685  1.0116
 4826SOL     OW15287   1.827   2.366   3.659  0.6028 -0.2988  0.1481
 4826SOL    HW115288   1.853   2.422   3.585 -0.0258  0.2824  0.3610
 4826SOL    HW215289   1.764   2.418   3.708 -0.3302 -1.3529  0.1208
 4827SOL     OW15290   5.864   1.994   3.889  0.3027  0.5842  0.1716
 4827SOL    HW115291   5.846   2.017   3.798 -0.5346  0.3669  0.2670
 4827SOL    HW215292   5.959   2.002   3.899  0.3768  0.7701 -0.6720
 4828SOL     OW15293   5.632   3.310   4.823  0.1255 -0.0274  0.2152
 4828SOL    HW115294   5.602   3.393   4.860  0.8292  0.0130  0.7085
 4828SOL    HW215295   5.716   3.294   4.865  2.3605  1.3658 -3.2637
 4829SOL     OW15296   0.594   0.319   1.007 -0.2559 -0.3823 -0.0539
 4829SOL    HW115297   0.656   0.366   0.950 -0.4409  0.2559  0.2604
 4829SOL    HW215298   0.510   0.331   0.964 -0.3380 -0.2327  0.1489
 4830SOL     OW15299   2.571   4.234   5.760 -0.2537  0.4747 -0.5491
 4830SOL    HW115300   2.545   4.240   5.852 -3.0581  0.9538 -1.2700
 4830SOL    HW215301   2.654   4.282   5.755  0.4941 -0.4312  1.8702
 4831SOL     OW15302   2.949   1.626   1.748 -0.5170 -0.0398 -0.4626
 4831SOL    HW115303   3.000   1.627   1.829  1.3421 -1.8490 -1.5027
 4831SOL    HW215304   3.006   1.669   1.683 -0.9294 -0.7619 -1.3300
 4832SOL     OW15305   1.412   2.064   5.486  0.0093  0.2330 -0.5298
 4832SOL    HW115306   1.426   2.077   5.580  1.2628  0.5271 -0.7348
 4832SOL    HW215307   1.339   2.122   5.464 -1.4897 -1.1639  0.5758
 4833SOL     OW15308   6.687   1.723   0.939  0.4484 -0.1999 -0.0075
 4833SOL    HW115309   6.767   1.721   0.887 -0.1884 -0.3895 -0.9935
 4833SOL    HW215310   6.618   1.746   0.877 -0.2545  0.0557  0.8485
 4834SOL     OW15311   1.465   3.390   4.105  0.1253 -0.1856  0.5183
 4834SOL    HW115312   1.480   3.313   4.051  0.9160 -0.5297  1.2137
 4834SOL    HW215313   1.491   3.364   4.194  0.2186  0.8108  0.8051
 4835SOL     OW15314   5.104   3.088   6.854  0.1404  0.3504  0.3465
 4835SOL    HW115315   5.042   3.107   6.783  1.3987  0.7392 -0.6907
 4835SOL    HW215316   5.104   3.166   6.908  0.1854  0.6022 -0.0128
 4836SOL     OW15317   0.948   7.816   6.887  0.2214 -0.4060 -0.2252
 4836SOL    HW115318   1.006   7.741   6.903 -1.3028 -1.4979  0.3598
 4836SOL    HW215319   0.995   7.891   6.923  1.4141 -1.2037 -0.0728
 4837SOL     OW15320   0.138   5.466   0.239  0.3105  0.1704 -0.1956
 4837SOL    HW115321   0.159   5.424   0.323  0.5545  0.9821  0.1575
 4837SOL    HW215322   0.076   5.535   0.261 -0.0092  0.0680 -0.7574
 4838SOL     OW15323   5.219   3.629   3.957  0.1387 -0.1149  0.7147
 4838SOL    HW115324   5.277   3.702   3.977 -0.0288  0.7422 -1.5524
 4838SOL    HW215325   5.179   3.606   4.040 -0.7868  3.2505  1.3636
 4839SOL     OW15326   4.434   0.410   1.183 -0.0384  0.2024  0.3210
 4839SOL    HW115327   4.357   0.383   1.234 -0.5856  0.2992 -0.4419
 4839SOL    HW215328   4.422   0.368   1.098  0.4321  0.7404 -0.0169
 4840SOL     OW15329   7.805   2.934   2.695  0.3866  0.3632 -0.1587
 4840SOL    HW115330   7.717   2.962   2.722  0.6710  0.4114  0.7490
 4840SOL    HW215331   7.822   2.855   2.746  0.6408  0.0114 -0.7756
 4841SOL     OW15332   7.567   6.761   8.000  0.0407  0.3705 -0.3752
 4841SOL    HW115333   7.609   6.792   7.920 -0.3466 -1.0748 -1.1856
 4841SOL    HW215334   7.520   6.682   7.972 -1.4288  0.7441  0.9518
 4842SOL     OW15335   5.178   7.975   4.610 -0.0806 -0.5002 -0.3968
 4842SOL    HW115336   5.108   8.031   4.644 -0.0633 -1.6820  1.7529
 4842SOL    HW215337   5.212   8.022   4.534 -1.0997  1.6110  0.3844
 4843SOL     OW15338   3.564   6.682   0.789  0.0232 -0.2138 -0.4908
 4843SOL    HW115339   3.638   6.677   0.848 -0.2556 -0.5997 -0.1751
 4843SOL    HW215340   3.569   6.771   0.753 -0.8242  0.6707  1.4553
 4844SOL     OW15341   5.388   5.226   7.746  0.8866 -0.2082 -0.2268
 4844SOL    HW115342   5.410   5.155   7.685 -0.1581 -0.6907 -0.0666
 4844SOL    HW215343   5.437   5.301   7.713  2.7786 -1.2080  0.1463
 4845SOL     OW15344   6.299   1.260   5.830  0.6071 -0.5682 -0.5524
 4845SOL    HW115345   6.374   1.301   5.787 -0.0538 -0.5326 -1.7054
 4845SOL    HW215346   6.229   1.326   5.825  0.6175 -0.4183  0.9279
 4846SOL     OW15347   5.244   4.617   4.082  0.2102  0.3380  0.3871
 4846SOL    HW115348   5.243   4.595   4.175 -0.7395  1.7785  0.7606
 4846SOL    HW215349   5.326   4.665   4.070  0.4501 -0.0617  0.4315
 4847SOL     OW15350   4.551   6.242   5.366  0.5638  0.6002  0.2727
 4847SOL    HW115351   4.629   6.205   5.407 -0.8146 -0.7632  1.8154
 4847SOL    HW215352   4.523   6.311   5.427 -0.8503 -0.6722  1.1615
 4848SOL     OW15353   3.129   5.031   7.844 -0.2051 -0.3007 -0.2100
 4848SOL    HW115354   3.086   4.998   7.765  0.9984  1.1204 -1.5298
 4848SOL    HW215355   3.165   4.953   7.886 -0.9976 -1.1047 -0.9938
 4849SOL     OW15356   6.568   7.418   3.384  0.3113  0.1143  0.0818
 4849SOL    HW115357   6.527   7.335   3.360  0.8540 -0.8015  2.0646
 4849SOL    HW215358   6.496   7.475   3.410  0.0060 -0.1027 -0.3031
 4850SOL     OW15359   1.911   5.694   4.692 -0.6909 -0.3351 -0.6397
 4850SOL    HW115360   1.820   5.684   4.721 -0.3695 -0.5212  0.3434
 4850SOL    HW215361   1.910   5.771   4.635 -1.8623 -1.6364 -2.4584
 4851SOL     OW15362   5.492   6.925   7.055  0.1533  0.2467 -0.3519
 4851SOL    HW115363   5.545   6.963   6.985 -0.8098  0.2004 -1.1159
 4851SOL    HW215364   5.496   6.830   7.039  2.6676 -0.1055  1.6301
 4852SOL     OW15365   6.512   1.728   2.121 -0.1776  0.2161 -0.1651
 4852SOL    HW115366   6.476   1.707   2.207  0.2974  5.0951  1.5497
 4852SOL    HW215367   6.442   1.777   2.077  0.9998  1.4122 -0.7799
 4853SOL     OW15368   5.829   5.007   7.072 -0.7157  0.2782 -0.2281
 4853SOL    HW115369   5.756   5.043   7.122  0.1468  0.3885  1.0204
 4853SOL    HW215370   5.836   4.916   7.101  0.3439  0.5836  0.5798
 4854SOL     OW15371   7.945   7.915   4.079  0.0775  0.4019 -0.1151
 4854SOL    HW115372   7.915   7.861   4.006  0.9261 -2.6832  1.6247
 4854SOL    HW215373   8.039   7.928   4.062 -0.2971  2.2935 -1.0066
 4855SOL     OW15374   5.232   2.131   4.634  0.0513  0.0208 -0.2031
 4855SOL    HW115375   5.325   2.108   4.634  0.0475 -0.3833  2.9817
 4855SOL    HW215376   5.187   2.048   4.617  0.2677 -0.4165  1.1895
 4856SOL     OW15377   7.814   0.059   5.845 -0.3909  0.2181  0.0941
 4856SOL    HW115378   7.882  -0.001   5.877  2.6963  2.4754 -1.6809
 4856SOL    HW215379   7.815   0.131   5.908 -2.2919 -0.3298  0.8350
 4857SOL     OW15380   6.338   7.678   7.543  0.0323 -0.1451  0.0786
 4857SOL    HW115381   6.361   7.758   7.497  0.1825 -0.8888 -1.1836
 4857SOL    HW215382   6.411   7.618   7.526 -0.4137 -0.7923  0.3910
 4858SOL     OW15383   0.637   6.891   7.578  0.1361 -0.2057  0.4695
 4858SOL    HW115384   0.723   6.873   7.618  0.2522 -2.6592 -0.6942
 4858SOL    HW215385   0.657   6.939   7.498  0.0884  2.3344  1.8712
 4859SOL     OW15386   2.707   1.570   0.942  0.1602 -0.3645 -0.0113
 4859SOL    HW115387   2.751   1.649   0.972  0.0009 -0.7965  1.4160
 4859SOL    HW215388   2.776   1.519   0.899  0.1493  0.7672 -1.4453
 4860SOL     OW15389   0.621   6.030   2.961 -0.1395 -0.4407  0.1960
 4860SOL    HW115390   0.632   5.953   3.017 -1.9340 -1.6487 -1.0003
 4860SOL    HW215391   0.547   6.076   2.999  0.0601 -0.0594  0.1200
 4861SOL     OW15392   3.704   6.925   1.716 -0.5359  0.1480  0.2228
 4861SOL    HW115393   3.688   6.987   1.787 -0.4390 -0.2176  0.5713
 4861SOL    HW215394   3.790   6.888   1.736 -0.0107  0.8295 -0.6783
 4862SOL     OW15395   0.565   3.592   5.727 -0.0539 -0.7261 -0.0945
 4862SOL    HW115396   0.590   3.571   5.817  0.8580  0.3045 -0.0859
 4862SOL    HW215397   0.470   3.590   5.727 -0.1424  1.0427  1.3696
 4863SOL     OW15398   7.541   0.601   1.649  0.5980 -0.3257 -0.3658
 4863SOL    HW115399   7.556   0.695   1.638  0.6735 -0.1916  0.7891
 4863SOL    HW215400   7.628   0.561   1.643  0.8608 -0.0731  1.3405
 4864SOL     OW15401   4.445   6.963   3.150  0.0492 -0.0968 -0.0297
 4864SOL    HW115402   4.484   6.952   3.064 -0.8913  2.1363 -0.8182
 4864SOL    HW215403   4.506   7.019   3.198  1.0640 -2.1265  1.1797
 4865SOL     OW15404   3.622   5.692   2.022 -0.5016 -0.6106 -0.2073
 4865SOL    HW115405   3.589   5.742   1.948  1.3859 -1.1406 -1.4667
 4865SOL    HW215406   3.620   5.754   2.095  3.2177  2.0381 -2.0225
 4866SOL     OW15407   5.979   3.767   2.904 -0.1572 -0.5741  0.0799
 4866SOL    HW115408   6.056   3.789   2.956  0.0784  0.5488 -0.6989
 4866SOL    HW215409   5.907   3.812   2.948 -0.0351 -0.0235 -0.2641
 4867SOL     OW15410   0.304   2.176   7.585 -0.6048  0.7315 -0.3882
 4867SOL    HW115411   0.314   2.144   7.495 -1.2505 -0.4567 -0.0651
 4867SOL    HW215412   0.388   2.218   7.605  1.3022 -2.7853 -0.0947
 4868SOL     OW15413   4.541   0.085   0.731 -0.0551  0.4421 -0.4055
 4868SOL    HW115414   4.582   0.157   0.683  1.0806  0.6475  0.8196
 4868SOL    HW215415   4.455   0.075   0.689  1.0916  0.1516 -2.8956
 4869SOL     OW15416   2.920   6.555   7.094 -0.1874  0.0623  0.1899
 4869SOL    HW115417   2.896   6.463   7.104 -1.7000  0.4063 -0.0241
 4869SOL    HW215418   2.863   6.602   7.155  0.2918  0.8879  0.0151
 4870SOL     OW15419   6.085   5.542   4.523  0.1746  0.3346 -0.1254
 4870SOL    HW115420   6.159   5.533   4.463  0.7461  2.7375  0.0957
 4870SOL    HW215421   6.008   5.550   4.466  0.3825  0.1103 -0.4413
 4871SOL     OW15422   4.272   2.562   5.214 -0.0262 -0.6724  0.4658
 4871SOL    HW115423   4.291   2.478   5.257 -0.1785 -0.6102  0.6549
 4871SOL    HW215424   4.358   2.603   5.202  0.0806 -1.0011  0.0713
 4872SOL     OW15425   6.386   2.652   3.233 -0.3987 -0.4927 -0.1967
 4872SOL    HW115426   6.440   2.705   3.174  0.9889 -0.7965  0.7333
 4872SOL    HW215427   6.424   2.564   3.228 -1.8025 -1.1028 -0.6714
 4873SOL     OW15428   5.349   4.027   1.962  0.4043 -0.0399 -0.1006
 4873SOL    HW115429   5.345   3.937   1.995  0.4423  0.8365  2.4781
 4873SOL    HW215430   5.361   4.016   1.867  0.9980 -2.7377  0.1808
 4874SOL     OW15431   5.330   0.281   4.039  0.7223 -0.7156  0.4857
 4874SOL    HW115432   5.382   0.289   3.959 -0.2578  2.5518 -0.0010
 4874SOL    HW215433   5.246   0.247   4.009 -0.3405  2.3188 -0.4185
 4875SOL     OW15434   0.123   5.513   2.160  0.7412  0.1569 -0.3478
 4875SOL    HW115435   0.173   5.570   2.218 -2.0937 -0.5345  3.1281
 4875SOL    HW215436   0.161   5.426   2.173  1.5979  0.3380 -1.4604
 4876SOL     OW15437   1.756   6.723   7.500 -0.5447 -0.3032  0.1432
 4876SOL    HW115438   1.666   6.752   7.513 -0.8951 -0.5658 -1.4972
 4876SOL    HW215439   1.766   6.715   7.405  0.7846 -1.6052  0.3415
 4877SOL     OW15440   2.566   5.568   0.341  0.6273 -0.5737  0.5363
 4877SOL    HW115441   2.471   5.574   0.328  0.6162 -1.6755 -0.0025
 4877SOL    HW215442   2.603   5.585   0.254  0.9195 -0.3650  0.6995
 4878SOL     OW15443   5.592   0.863   1.032  0.5450 -0.2078 -0.2633
 4878SOL    HW115444   5.655   0.933   1.050 -0.5690  0.8552 -0.3712
 4878SOL    HW215445   5.547   0.850   1.116  0.6003 -0.6462 -0.3013
 4879SOL     OW15446   4.418   6.091   6.707 -0.1114 -0.2533 -0.1454
 4879SOL    HW115447   4.424   6.182   6.677  2.9535 -0.5805 -0.9175
 4879SOL    HW215448   4.381   6.043   6.633  1.9182 -0.1475 -1.3125
 4880SOL     OW15449   2.939   0.782   0.522 -0.2730 -0.2763  0.0436
 4880SOL    HW115450   2.921   0.688   0.524 -0.8323 -0.1735  0.2615
 4880SOL    HW215451   2.952   0.806   0.614 -0.0963 -0.1509 -0.0149
 4881SOL     OW15452   0.209   3.684   1.726 -0.4392 -0.1670 -0.0674
 4881SOL    HW115453   0.249   3.770   1.737  1.2214 -0.3692 -3.3706
 4881SOL    HW215454   0.247   3.631   1.796  0.6991  1.0811  0.3019
 4882SOL     OW15455   5.879   6.709   0.864 -0.0294 -0.6195  0.1060
 4882SOL    HW115456   5.831   6.764   0.802 -0.6523 -0.5059  0.6813
 4882SOL    HW215457   5.873   6.757   0.947 -0.4960 -1.5012  0.5925
 4883SOL     OW15458   1.763   6.903   5.917  0.1504  0.5363 -0.6361
 4883SOL    HW115459   1.789   6.909   6.009  0.3506  0.4534 -0.6883
 4883SOL    HW215460   1.839   6.933   5.868 -0.2248  1.3166 -0.7494
 4884SOL     OW15461   1.221   0.624   3.882  0.2967 -0.4405 -0.3617
 4884SOL    HW115462   1.217   0.637   3.977 -0.5025 -0.5399 -0.3736
 4884SOL    HW215463   1.235   0.712   3.847  2.4204 -0.6193 -0.0837
 4885SOL     OW15464   5.246   5.166   5.148  0.8607 -0.3810  0.5194
 4885SOL    HW115465   5.218   5.235   5.208  2.8971 -0.8916  2.1467
 4885SOL    HW215466   5.331   5.138   5.181  1.1740 -2.0461 -1.4990
 4886SOL     OW15467   5.240   4.090   2.462  0.2226 -0.0189 -0.0316
 4886SOL    HW115468   5.219   3.997   2.451 -2.0703  0.5985 -1.6368
 4886SOL    HW215469   5.310   4.106   2.399 -0.6762 -0.2802 -1.1184
 4887SOL     OW15470   0.571   1.207   0.008  0.1090  0.4819  0.1780
 4887SOL    HW115471   0.618   1.198   0.091 -1.7853 -1.9358  1.1366
 4887SOL    HW215472   0.539   1.118  -0.010  0.3218  0.9674 -3.1115
 4888SOL     OW15473   1.627   7.157   5.411 -0.3103 -1.0334 -0.2172
 4888SOL    HW115474   1.613   7.164   5.505 -0.3743 -0.1364 -0.2866
 4888SOL    HW215475   1.691   7.087   5.401  1.4066  0.3504  0.6461
 4889SOL     OW15476   6.862   6.032   5.749  0.5241 -0.5088 -0.4030
 4889SOL    HW115477   6.803   5.977   5.698 -0.0634  0.0974 -0.3897
 4889SOL    HW215478   6.916   6.076   5.684  0.8122 -0.8915 -0.4256
 4890SOL     OW15479   6.611   5.984   7.792  0.4155 -0.2179 -0.5064
 4890SOL    HW115480   6.624   6.032   7.874 -0.8629 -0.9330  0.1380
 4890SOL    HW215481   6.647   5.897   7.809  0.1355 -0.3713 -0.6952
 4891SOL     OW15482   1.062   4.712   3.463 -0.3928 -0.3083  0.1563
 4891SOL    HW115483   1.094   4.622   3.458 -1.0220 -0.4986 -0.6458
 4891SOL    HW215484   1.141   4.765   3.476  0.5557 -0.6310 -3.3041
 4892SOL     OW15485   5.397   0.194   3.788 -0.0316  0.0856  0.3568
 4892SOL    HW115486   5.465   0.205   3.721 -0.0883 -0.3821  0.2234
 4892SOL    HW215487   5.374   0.102   3.784  0.3287 -0.0618  1.3657
 4893SOL     OW15488   2.261   6.518   6.540 -0.2911  0.2224 -0.7741
 4893SOL    HW115489   2.252   6.430   6.576  1.6222  1.0073  1.8375
 4893SOL    HW215490   2.327   6.560   6.594  0.2436  2.6866 -3.1420
 4894SOL     OW15491   3.367   0.213   2.554  0.0296 -0.1727 -0.0251
 4894SOL    HW115492   3.323   0.147   2.608  0.2973 -1.6497 -1.5234
 4894SOL    HW215493   3.455   0.218   2.592  1.1353 -3.2279 -1.7874
 4895SOL     OW15494   2.635   3.370   0.104  0.0088 -0.3053 -0.4768
 4895SOL    HW115495   2.671   3.441   0.050 -0.5601 -1.7768 -2.9812
 4895SOL    HW215496   2.712   3.332   0.147  0.5245  0.8293 -0.3644
 4896SOL     OW15497   1.916   5.615   1.831  0.3427 -0.3418 -0.8654
 4896SOL    HW115498   1.915   5.670   1.910  1.1313 -0.9800 -0.3936
 4896SOL    HW215499   1.846   5.650   1.777 -0.9877 -0.5949  0.6089
 4897SOL     OW15500   4.804   2.406   7.667 -0.3262 -0.1290  0.0482
 4897SOL    HW115501   4.772   2.333   7.719 -0.4327  0.5938  1.0383
 4897SOL    HW215502   4.898   2.409   7.684 -0.2654 -0.2617 -0.2732
 4898SOL     OW15503   4.043   0.375   0.611 -0.5613 -0.5967  0.5546
 4898SOL    HW115504   3.949   0.391   0.620 -0.5996 -0.7090  0.3491
 4898SOL    HW215505   4.051   0.320   0.533 -0.2860 -0.2246  0.3173
 4899SOL     OW15506   3.899   5.107   4.124  0.2477  0.0428 -0.2603
 4899SOL    HW115507   3.866   5.029   4.168  0.3326 -0.3281 -0.8471
 4899SOL    HW215508   3.896   5.085   4.031 -0.0041  0.8440 -0.4483
 4900SOL     OW15509   5.221   0.139   7.888 -0.3489  0.0832  0.3682
 4900SOL    HW115510   5.313   0.123   7.906 -0.8121 -2.3538  0.9181
 4900SOL    HW215511   5.206   0.099   7.803 -1.6176 -2.8706  1.8632
 4901SOL     OW15512   4.701   6.750   2.605  0.5685 -0.4098 -0.5956
 4901SOL    HW115513   4.756   6.761   2.683  0.1926 -0.0800 -0.3705
 4901SOL    HW215514   4.749   6.688   2.550  1.3180  0.1216 -0.5482
 4902SOL     OW15515   6.267   7.232   0.229  0.0456  0.0081  0.0774
 4902SOL    HW115516   6.249   7.239   0.135 -0.0023 -1.5186 -0.0544
 4902SOL    HW215517   6.352   7.188   0.233  0.0732  0.1225  0.7540
 4903SOL     OW15518   1.171   1.465   4.928 -0.0226  0.4046  0.0867
 4903SOL    HW115519   1.181   1.555   4.896 -0.2709  0.4032  0.0041
 4903SOL    HW215520   1.243   1.417   4.888 -0.9936  0.1431 -1.4032
 4904SOL     OW15521   1.583   6.214   2.045  0.7423  0.1518  0.1190
 4904SOL    HW115522   1.592   6.186   1.954 -0.4028 -0.0500  0.0541
 4904SOL    HW215523   1.581   6.310   2.040  0.3222  0.1331 -0.1087
 4905SOL     OW15524   5.702   6.348   7.913  0.4933  0.2539  0.3476
 4905SOL    HW115525   5.638   6.300   7.965  0.4523  1.1406  1.1441
 4905SOL    HW215526   5.787   6.314   7.942  0.4081 -0.7276 -0.5120
 4906SOL     OW15527   5.007   5.483   1.872  0.4322  0.3458 -0.8339
 4906SOL    HW115528   5.093   5.512   1.841  1.2032 -2.0851 -1.1905
 4906SOL    HW215529   5.000   5.521   1.960  3.2562 -1.7406  0.4623
 4907SOL     OW15530   2.735   3.048   3.942  0.2210 -0.2250 -0.6502
 4907SOL    HW115531   2.681   3.024   4.017  0.4741  0.1259 -0.3563
 4907SOL    HW215532   2.683   3.020   3.866 -0.2745 -0.0925 -0.3651
 4908SOL     OW15533   0.324   6.265   6.343  0.2718  0.0168  0.1278
 4908SOL    HW115534   0.254   6.243   6.282  1.6683  1.4141 -2.0956
 4908SOL    HW215535   0.282   6.321   6.408 -0.7194  0.7515 -1.1058
 4909SOL     OW15536   0.747   5.315   3.940 -0.6171  0.0703 -0.7585
 4909SOL    HW115537   0.819   5.277   3.889 -0.6461 -1.0215 -0.0235
 4909SOL    HW215538   0.708   5.380   3.881  1.1610  0.9207 -1.0517
 4910SOL     OW15539   6.154   5.147   2.240 -0.1207 -0.2806 -0.0580
 4910SOL    HW115540   6.075   5.140   2.293 -0.3142  1.5610 -0.0409
 4910SOL    HW215541   6.199   5.063   2.252 -2.7738 -1.9888 -1.2482
 4911SOL     OW15542   3.870   7.974   4.967  0.2406 -0.1720  0.0612
 4911SOL    HW115543   3.959   7.942   4.951  0.4038  0.4538 -0.3311
 4911SOL    HW215544   3.873   8.010   5.056  0.6477  0.7113 -0.2954
 4912SOL     OW15545   3.302   4.629   1.548 -0.5542  0.0042  0.2022
 4912SOL    HW115546   3.300   4.634   1.644 -2.0495  0.6478  0.1565
 4912SOL    HW215547   3.348   4.709   1.521 -2.3448  1.1143  0.3256
 4913SOL     OW15548   1.415   0.952   2.391  0.1386  0.1227 -0.2609
 4913SOL    HW115549   1.473   0.933   2.317 -1.8100 -0.2862 -1.7649
 4913SOL    HW215550   1.398   0.867   2.430  1.6179  0.3993  1.0850
 4914SOL     OW15551   7.224   2.860   6.660 -0.4286 -0.2407  0.1029
 4914SOL    HW115552   7.212   2.772   6.624 -0.1675 -0.8040  1.3661
 4914SOL    HW215553   7.318   2.877   6.652 -0.4687 -0.0893 -0.0743
 4915SOL     OW15554   5.566   1.713   0.111  0.1242 -0.0037 -0.0880
 4915SOL    HW115555   5.604   1.685   0.028 -0.8096  1.1069 -0.9333
 4915SOL    HW215556   5.495   1.773   0.086 -1.0772 -0.7023  1.4621
 4916SOL     OW15557   0.327   4.134   6.978 -0.4646 -0.4848  0.6711
 4916SOL    HW115558   0.302   4.168   6.892 -0.3494  0.0950  0.8623
 4916SOL    HW215559   0.306   4.041   6.974 -0.5756 -0.4365  0.0586
 4917SOL     OW15560   0.350   0.099   7.039 -0.3062 -0.4176  0.0042
 4917SOL    HW115561   0.261   0.087   7.073 -0.5110  0.6509 -0.1316
 4917SOL    HW215562   0.406   0.058   7.105 -0.8162  0.0658  0.7655
 4918SOL     OW15563   4.478   5.724   5.345  0.3712  0.2218 -0.6273
 4918SOL    HW115564   4.412   5.657   5.360  0.3382  0.1045 -1.2570
 4918SOL    HW215565   4.523   5.733   5.429  0.3046 -0.5121 -0.5087
 4919SOL     OW15566   4.317   3.429   3.283 -0.1062 -0.0980  0.3785
 4919SOL    HW115567   4.264   3.508   3.293 -0.4996 -0.4359  1.0379
 4919SOL    HW215568   4.258   3.365   3.243 -0.9332 -1.1573  3.0652
 4920SOL     OW15569   5.776   0.480   1.319 -0.4003  0.3744  0.2368
 4920SOL    HW115570   5.693   0.462   1.275  0.8891 -0.1698 -2.1797
 4920SOL    HW215571   5.777   0.575   1.333 -2.0036  0.2220  1.6932
 4921SOL     OW15572   7.149   5.797   5.491  0.4432  0.0811 -0.2053
 4921SOL    HW115573   7.130   5.886   5.520  1.4166 -0.0675  0.9701
 4921SOL    HW215574   7.183   5.753   5.569  2.7526 -0.4824 -1.4507
 4922SOL     OW15575   3.735   1.082   3.801  0.8334 -0.0771  0.1040
 4922SOL    HW115576   3.683   1.122   3.871  0.8560 -0.7478  0.5165
 4922SOL    HW215577   3.763   0.998   3.837 -0.0658 -0.9305 -1.0863
 4923SOL     OW15578   3.290   3.846   7.925 -0.2001  0.1176  0.6428
 4923SOL    HW115579   3.323   3.878   8.010 -0.1090 -0.3335  0.7798
 4923SOL    HW215580   3.271   3.926   7.876  1.1136  0.4062  0.5517
 4924SOL     OW15581   4.470   1.363   1.700 -0.0960  0.2172  0.1372
 4924SOL    HW115582   4.500   1.328   1.784 -0.9307 -0.7329  0.0628
 4924SOL    HW215583   4.539   1.423   1.673  0.5050  0.0213  1.1786
 4925SOL     OW15584   1.069   0.592   6.072  0.3030 -0.3129  0.0497
 4925SOL    HW115585   1.003   0.639   6.021  1.2009 -0.5545 -1.3831
 4925SOL    HW215586   1.149   0.644   6.062  0.9600 -1.3699 -0.3809
 4926SOL     OW15587   4.728   3.190   0.462 -0.4466  0.0406  0.3808
 4926SOL    HW115588   4.633   3.185   0.458 -0.4509  0.3328  0.0171
 4926SOL    HW215589   4.750   3.163   0.551 -0.9231  0.7532  0.7214
 4927SOL     OW15590   3.773   5.098   6.087 -0.1297  0.0718 -0.1788
 4927SOL    HW115591   3.784   5.008   6.115  0.3348 -0.2865 -1.4695
 4927SOL    HW215592   3.706   5.133   6.146 -3.1512 -2.2086 -1.9625
 4928SOL     OW15593   4.936   4.563   4.091  0.4227 -0.1169  0.3497
 4928SOL    HW115594   4.945   4.484   4.144  0.1760  1.4210  2.8946
 4928SOL    HW215595   5.025   4.592   4.074  0.5064 -0.4412  0.2447
 4929SOL     OW15596   0.818   3.051   2.308 -0.3692 -0.0375  0.1435
 4929SOL    HW115597   0.801   2.965   2.345 -0.1967  0.0881  0.5212
 4929SOL    HW215598   0.813   3.111   2.383 -0.0567  0.2230 -0.0398
 4930SOL     OW15599   5.242   1.215   3.601 -0.2916  0.3649  0.0306
 4930SOL    HW115600   5.184   1.213   3.677  1.9461  0.8766  1.8870
 4930SOL    HW215601   5.291   1.133   3.606  1.1811  1.2255  0.2865
 4931SOL     OW15602   3.301   2.112   1.090  0.4651 -0.2082  0.3318
 4931SOL    HW115603   3.243   2.187   1.079 -0.0824 -0.2796  2.2554
 4931SOL    HW215604   3.334   2.093   1.002 -2.4844 -0.1954 -0.8872
 4932SOL     OW15605   5.101   0.260   6.357  0.5567  0.0760  0.1640
 4932SOL    HW115606   5.107   0.356   6.355  1.3978  0.0352  0.1330
 4932SOL    HW215607   5.178   0.233   6.407  0.0173 -0.5666  0.6572
 4933SOL     OW15608   5.960   2.626   0.082  0.4919 -0.3411  0.1891
 4933SOL    HW115609   5.901   2.593   0.014 -0.9628 -0.2024  1.3283
 4933SOL    HW215610   6.037   2.656   0.034 -0.4373 -0.3375 -1.3873
 4934SOL     OW15611   2.729   4.010   2.900 -0.1204 -0.2244  0.3405
 4934SOL    HW115612   2.797   3.962   2.947  0.4255  0.1679 -0.0465
 4934SOL    HW215613   2.723   4.094   2.945 -0.4515 -0.3081  0.4597
 4935SOL     OW15614   1.570   7.876   1.042  0.4713 -0.6569  0.1928
 4935SOL    HW115615   1.600   7.826   0.966 -3.3111 -0.6676 -1.4754
 4935SOL    HW215616   1.497   7.826   1.077  0.1819  0.9076  2.0124
 4936SOL     OW15617   4.426   7.037   5.248 -0.0930 -0.2043 -0.4467
 4936SOL    HW115618   4.471   6.972   5.194 -1.0270 -1.9336  0.7573
 4936SOL    HW215619   4.440   7.006   5.338 -1.2220  0.8402  0.1054
 4937SOL     OW15620   3.187   3.817   0.629  0.1872 -0.5001 -0.1256
 4937SOL    HW115621   3.220   3.856   0.710 -0.9228 -1.4000  0.8078
 4937SOL    HW215622   3.123   3.881   0.596 -0.7064 -0.9238  0.7246
 4938SOL     OW15623   7.092   2.858   6.889 -0.5106  0.7824  0.0087
 4938SOL    HW115624   7.130   2.773   6.911  0.0523  0.8952 -0.5309
 4938SOL    HW215625   7.135   2.884   6.808  0.4934  2.3240  0.9945
 4939SOL     OW15626   4.158   5.900   5.362 -0.3608  0.0313 -0.3635
 4939SOL    HW115627   4.076   5.935   5.327 -1.4079 -1.6663  0.3151
 4939SOL    HW215628   4.188   5.968   5.423 -0.3692  1.3903 -1.7855
 4940SOL     OW15629   0.534   5.510   0.159  0.0938 -0.4892 -0.8634
 4940SOL    HW115630   0.481   5.590   0.160  1.9067  0.7622  0.1899
 4940SOL    HW215631   0.623   5.540   0.143  1.0913 -2.0943  1.1531
 4941SOL     OW15632   2.654   4.322   4.215 -0.2319  0.2259 -0.0483
 4941SOL    HW115633   2.665   4.234   4.251  0.5702  0.0025 -0.8000
 4941SOL    HW215634   2.738   4.342   4.175 -1.2645  0.1533 -2.4224
 4942SOL     OW15635   2.894   6.612   3.038 -0.0483  0.1072 -0.2602
 4942SOL    HW115636   2.798   6.603   3.042  0.0187 -0.3269  0.7180
 4942SOL    HW215637   2.916   6.666   3.114  0.5854 -0.8516  0.2591
 4943SOL     OW15638   5.470   6.870   6.208 -0.0328  1.0390 -0.0630
 4943SOL    HW115639   5.377   6.863   6.228  0.1520  0.1287  0.4912
 4943SOL    HW215640   5.514   6.866   6.293  0.5083  1.6537 -0.3014
 4944SOL     OW15641   4.402   7.391   4.849  0.1643 -0.2852 -0.2364
 4944SOL    HW115642   4.363   7.465   4.896 -0.2017  0.2092 -1.2676
 4944SOL    HW215643   4.436   7.334   4.917  0.2954  0.7525  0.5933
 4945SOL     OW15644   7.712   1.660   4.749  0.3838  0.4580 -0.7072
 4945SOL    HW115645   7.799   1.624   4.762  0.8995  1.9025  0.0929
 4945SOL    HW215646   7.724   1.755   4.750 -1.4083  0.7590  1.3625
 4946SOL     OW15647   5.244   6.009   2.801 -0.2576 -0.2660 -0.2500
 4946SOL    HW115648   5.275   5.924   2.769  0.8376 -0.2470  0.7033
 4946SOL    HW215649   5.180   6.037   2.736  0.0520 -1.3934 -1.0687
 4947SOL     OW15650   7.523   2.749   7.982  0.2637 -0.2281 -0.2315
 4947SOL    HW115651   7.576   2.673   7.957 -0.4355 -0.8199  0.0450
 4947SOL    HW215652   7.492   2.785   7.899  1.9271  0.7449 -0.4523
 4948SOL     OW15653   0.579   4.159   6.431  0.1941 -0.1001 -0.6139
 4948SOL    HW115654   0.619   4.073   6.415  0.4717 -0.0295 -0.3221
 4948SOL    HW215655   0.531   4.179   6.351  1.2701  0.1033 -1.2263
 4949SOL     OW15656   0.968   5.514   3.327 -0.0918 -0.4140 -0.0271
 4949SOL    HW115657   1.031   5.485   3.261  1.2362  2.0968  0.0296
 4949SOL    HW215658   0.944   5.434   3.373  2.9234 -1.5454 -0.1696
 4950SOL     OW15659   7.991   0.889   4.978  0.4020 -0.1985 -0.3949
 4950SOL    HW115660   8.009   0.983   4.975  1.0055 -0.2065  1.7824
 4950SOL    HW215661   7.899   0.882   4.950  0.4254  0.9929 -0.8576
 4951SOL     OW15662   5.693   1.470   7.644 -0.7939  0.0521 -0.0492
 4951SOL    HW115663   5.774   1.425   7.670 -0.9264  0.5199  1.2615
 4951SOL    HW215664   5.643   1.404   7.596 -0.0633 -0.5392 -0.0154
 4952SOL     OW15665   5.528   6.308   1.040 -0.3734 -0.1128 -0.1412
 4952SOL    HW115666   5.562   6.241   0.981 -0.2130 -0.3560  0.2242
 4952SOL    HW215667   5.581   6.300   1.119 -1.1099 -0.3219  0.3392
 4953SOL     OW15668   3.753   4.357   5.099 -0.3544 -0.2734  0.2905
 4953SOL    HW115669   3.846   4.342   5.082 -0.4428 -0.5300  0.0340
 4953SOL    HW215670   3.712   4.273   5.081 -0.8180  0.1855 -0.8859
 4954SOL     OW15671   4.226   1.464   1.608 -0.0655  0.2922  1.0073
 4954SOL    HW115672   4.258   1.450   1.519  1.6191  1.8480  1.3134
 4954SOL    HW215673   4.300   1.440   1.664 -1.1809 -0.8895  2.0519
 4955SOL     OW15674   2.369   6.524   7.297 -0.3711 -0.2001  0.0951
 4955SOL    HW115675   2.374   6.518   7.393  0.2606 -1.1752  0.0162
 4955SOL    HW215676   2.280   6.556   7.280  0.6771  3.8477  1.0979
 4956SOL     OW15677   1.347   5.244   5.316 -0.4019  0.1207  0.2347
 4956SOL    HW115678   1.264   5.224   5.273  0.0647  2.2302 -1.8267
 4956SOL    HW215679   1.394   5.160   5.316 -1.0577 -0.3302 -2.0367
 4957SOL     OW15680   5.086   0.321   5.224 -0.0015 -0.4067 -0.5876
 4957SOL    HW115681   4.995   0.331   5.197 -0.1207 -0.4690 -0.2164
 4957SOL    HW215682   5.109   0.232   5.198 -0.0807 -0.4270 -0.5887
 4958SOL     OW15683   3.326   1.304   1.880 -0.4204 -0.4254  0.9794
 4958SOL    HW115684   3.402   1.269   1.926  0.7444  1.5665  0.6945
 4958SOL    HW215685   3.362   1.338   1.797 -1.8404 -0.6171  0.2607
 4959SOL     OW15686   1.375   0.626   5.053  0.1673  0.2327  0.2346
 4959SOL    HW115687   1.325   0.547   5.037  0.9443 -0.0281 -1.0194
 4959SOL    HW215688   1.391   0.626   5.147 -3.2055  0.9827  0.9349
 4960SOL     OW15689   6.434   7.896   7.372  0.5995 -0.0416  0.0688
 4960SOL    HW115690   6.440   7.876   7.279  1.8442  0.1698  0.0913
 4960SOL    HW215691   6.399   7.985   7.376 -0.1868 -0.3378 -0.1692
 4961SOL     OW15692   0.781   4.513   7.742  0.5163 -0.5253 -0.5882
 4961SOL    HW115693   0.785   4.588   7.802  0.6837  1.3694 -2.8460
 4961SOL    HW215694   0.868   4.474   7.747  0.8450  0.2165 -0.3279
 4962SOL     OW15695   0.669   6.543   3.038 -0.0018  0.5004  0.2390
 4962SOL    HW115696   0.721   6.590   3.103  0.9135 -1.5968  1.1196
 4962SOL    HW215697   0.732   6.519   2.969 -0.0120 -1.0217  0.7273
 4963SOL     OW15698   0.910   4.981   4.777 -0.0666 -0.0111  0.3913
 4963SOL    HW115699   0.909   5.002   4.684 -0.3441 -0.8565  0.1887
 4963SOL    HW215700   0.902   4.886   4.780  0.2415 -0.0193  1.2749
 4964SOL     OW15701   1.548   7.488   0.371  0.1661  0.3350  0.5327
 4964SOL    HW115702   1.587   7.425   0.431 -1.5433 -2.9413 -1.5179
 4964SOL    HW215703   1.455   7.490   0.396 -0.2867  0.0169 -1.0251
 4965SOL     OW15704   2.048   0.270   5.412  0.3160  0.5062  0.2188
 4965SOL    HW115705   2.104   0.313   5.348 -0.4706  1.9145  0.4341
 4965SOL    HW215706   1.964   0.259   5.366  0.0936  0.4645  0.6325
 4966SOL     OW15707   7.550   5.166   5.445  0.5161  0.5425 -0.5326
 4966SOL    HW115708   7.543   5.135   5.535 -0.8215 -0.7113 -1.0311
 4966SOL    HW215709   7.644   5.166   5.427  0.8934  1.8244  1.1763
 4967SOL     OW15710   5.270   0.120   5.788 -0.3735 -0.0271  0.2786
 4967SOL    HW115711   5.281   0.057   5.718 -2.0598 -0.3784  0.2910
 4967SOL    HW215712   5.341   0.100   5.850  0.7336 -0.1227 -0.9862
 4968SOL     OW15713   7.339   7.642   2.891 -0.3857  0.4305 -0.4885
 4968SOL    HW115714   7.353   7.653   2.985 -0.2308  0.3923 -0.5072
 4968SOL    HW215715   7.419   7.674   2.851 -0.0563 -0.4525 -0.5623
 4969SOL     OW15716   5.552   3.808   5.020  0.0603  0.2076 -0.2678
 4969SOL    HW115717   5.553   3.879   5.084  3.1395 -0.2836  0.3984
 4969SOL    HW215718   5.532   3.730   5.072 -0.6377  0.2177 -0.5136
 4970SOL     OW15719   0.595   3.986   3.461  0.2210  0.1020  0.4345
 4970SOL    HW115720   0.650   4.037   3.401 -0.9864  0.4991 -0.3711
 4970SOL    HW215721   0.556   3.918   3.406 -0.4514  0.1155  0.8845
 4971SOL     OW15722   3.722   6.311   4.227  0.1311  0.6310  0.1972
 4971SOL    HW115723   3.648   6.308   4.165  0.4787  0.0588 -0.1969
 4971SOL    HW215724   3.690   6.367   4.298 -1.4374 -1.1953  1.0171
 4972SOL     OW15725   6.858   0.031   7.746 -0.1082  0.0700 -0.4857
 4972SOL    HW115726   6.781  -0.023   7.730  0.1360  0.0127 -1.5746
 4972SOL    HW215727   6.863   0.089   7.670  0.4770  0.6127 -0.0481
 4973SOL     OW15728   2.476   6.728   4.193 -0.7036 -0.1395 -0.5060
 4973SOL    HW115729   2.567   6.720   4.165 -0.4318 -0.0096  0.3249
 4973SOL    HW215730   2.428   6.672   4.132 -0.0349 -0.4385 -0.7715
 4974SOL     OW15731   1.392   1.326   1.730  0.4839 -0.0903  0.2755
 4974SOL    HW115732   1.361   1.238   1.705 -2.6286  0.7931  0.5796
 4974SOL    HW215733   1.423   1.315   1.819  2.7936 -1.3730 -0.6005
 4975SOL     OW15734   1.277   2.976   3.375 -0.0420 -0.0346  0.0050
 4975SOL    HW115735   1.348   3.038   3.393  1.2353 -1.3797 -0.1862
 4975SOL    HW215736   1.263   2.930   3.458  0.5488 -0.9815 -0.4055
 4976SOL     OW15737   4.731   4.041   4.041  0.3512 -0.4433  0.3296
 4976SOL    HW115738   4.685   4.054   3.958  0.1706 -0.4156  0.4341
 4976SOL    HW215739   4.680   4.090   4.105 -0.2471 -1.5102  0.6970
 4977SOL     OW15740   5.221   2.849   6.932 -0.3889 -0.1298  0.3677
 4977SOL    HW115741   5.207   2.853   7.026  0.9020 -0.0742  0.5747
 4977SOL    HW215742   5.185   2.932   6.899 -1.1861 -0.3141  0.7460
 4978SOL     OW15743   2.187   1.330   7.505  0.0922 -0.1898 -0.1476
 4978SOL    HW115744   2.132   1.309   7.430 -0.2170 -1.5733  0.4237
 4978SOL    HW215745   2.147   1.282   7.578  1.1998 -0.0328  0.5848
 4979SOL     OW15746   4.404   2.086   3.335  0.2647 -0.4581 -1.0629
 4979SOL    HW115747   4.375   2.153   3.397  0.5537 -2.3039  1.2040
 4979SOL    HW215748   4.491   2.115   3.307  0.3071  0.2006 -0.2792
 4980SOL     OW15749   0.723   3.498   0.989  0.6363 -0.4927 -0.6277
 4980SOL    HW115750   0.684   3.442   0.922  1.6204 -1.2377 -0.6163
 4980SOL    HW215751   0.661   3.496   1.062  0.3792 -1.0979 -0.8562
 4981SOL     OW15752   7.699   6.845   2.132 -0.3613  0.4837 -0.2139
 4981SOL    HW115753   7.669   6.756   2.118  0.8287 -0.2891  1.6781
 4981SOL    HW215754   7.749   6.867   2.053 -1.6035 -0.0711 -1.1816
 4982SOL     OW15755   0.293   0.698   4.091  0.3649 -0.0855  0.0981
 4982SOL    HW115756   0.306   0.631   4.023  2.2332  0.7432 -0.4270
 4982SOL    HW215757   0.348   0.669   4.164  1.9747  1.2961 -0.4969
 4983SOL     OW15758   3.739   5.980   1.044 -0.0092  0.2353 -0.2122
 4983SOL    HW115759   3.700   6.036   0.976  1.5635 -0.5034 -1.8026
 4983SOL    HW215760   3.713   5.891   1.020  3.6522 -0.4965 -2.2905
 4984SOL     OW15761   0.332   1.095   0.251  0.0269  0.7393 -0.5336
 4984SOL    HW115762   0.406   1.039   0.227 -1.0425  0.5091 -3.7868
 4984SOL    HW215763   0.270   1.035   0.294 -0.0427 -0.0772 -1.7119
 4985SOL     OW15764   6.490   7.093   3.977 -0.2529  0.4952 -0.4018
 4985SOL    HW115765   6.511   7.010   3.935 -0.4663 -0.9066  2.0585
 4985SOL    HW215766   6.574   7.139   3.983  0.0460  0.0160 -0.8400
 4986SOL     OW15767   1.203   3.627   0.460 -0.2411 -0.2444 -0.0007
 4986SOL    HW115768   1.242   3.578   0.388 -2.4778 -1.2450 -0.6204
 4986SOL    HW215769   1.237   3.585   0.539 -2.5675 -3.4502 -0.4755
 4987SOL     OW15770   6.546   4.339   6.969 -0.0789 -0.3331 -0.3014
 4987SOL    HW115771   6.597   4.334   7.050  0.5703 -0.6225 -0.7209
 4987SOL    HW215772   6.611   4.344   6.900 -0.6371  1.0941 -0.7509
 4988SOL     OW15773   3.924   5.525   6.964  0.1700 -0.2606 -0.3389
 4988SOL    HW115774   3.988   5.577   6.917  0.4863 -1.0956 -0.8666
 4988SOL    HW215775   3.919   5.443   6.915 -0.1133 -0.8344  0.6095
 4989SOL     OW15776   6.129   2.906   3.182  0.2334  0.3223 -0.0810
 4989SOL    HW115777   6.134   2.815   3.213 -1.1601 -0.1903 -1.2625
 4989SOL    HW215778   6.111   2.898   3.088  0.3319  1.8279 -0.2421
 4990SOL     OW15779   2.325   1.300   3.019  0.2857 -0.1523 -0.4644
 4990SOL    HW115780   2.399   1.360   3.023  0.0377  0.1356 -0.0633
 4990SOL    HW215781   2.248   1.357   3.021  0.0269 -0.5014  0.9085
 4991SOL     OW15782   7.091   4.774   2.522  0.0794 -0.4106  0.5789
 4991SOL    HW115783   7.103   4.680   2.535  1.1572 -0.3543  0.0827
 4991SOL    HW215784   7.175   4.813   2.547 -0.0829  0.3433 -0.0113
 4992SOL     OW15785   5.654   7.961   6.594 -0.2302  0.5118 -0.1380
 4992SOL    HW115786   5.732   7.917   6.561  0.1644  1.2428 -0.2183
 4992SOL    HW215787   5.640   8.034   6.533 -0.4237  0.9357  0.4001
 4993SOL     OW15788   6.647   5.018   6.477 -0.0391  0.3412  0.0344
 4993SOL    HW115789   6.660   5.090   6.538 -0.8440 -0.4308  1.1499
 4993SOL    HW215790   6.572   5.045   6.424 -0.2428  0.4030  0.3494
 4994SOL     OW15791   5.343   2.223   7.969 -0.2225  0.1043  0.0113
 4994SOL    HW115792   5.434   2.212   7.940 -0.2030 -2.2824  0.7521
 4994SOL    HW215793   5.292   2.168   7.908 -1.2000  1.4511 -0.4255
 4995SOL     OW15794   1.945   6.940   1.162  0.0847  0.3152 -0.0702
 4995SOL    HW115795   1.942   7.012   1.224 -1.0653  0.3084 -0.1067
 4995SOL    HW215796   2.039   6.926   1.146  0.3889  3.8557 -2.4589
 4996SOL     OW15797   4.908   5.636   3.587 -0.0751 -0.7887  0.9838
 4996SOL    HW115798   4.893   5.702   3.656 -1.4524  0.0891 -0.0969
 4996SOL    HW215799   4.967   5.679   3.525 -2.4513  0.2810 -0.7074
 4997SOL     OW15800   7.031   0.107   4.884  0.1804 -0.0978 -0.3413
 4997SOL    HW115801   7.081   0.078   4.808  5.5327  0.4038  2.4963
 4997SOL    HW215802   7.071   0.191   4.908 -2.0172  0.2926  2.4530
 4998SOL     OW15803   2.538   6.296   7.025  0.3529 -0.3411  0.2039
 4998SOL    HW115804   2.529   6.390   7.008  3.0713 -0.0802 -0.2598
 4998SOL    HW215805   2.598   6.265   6.957 -0.6902 -2.5114  0.1783
 4999SOL     OW15806   7.512   4.593   1.703 -0.1793 -0.0758  0.5776
 4999SOL    HW115807   7.592   4.644   1.720 -0.0695  0.9088 -2.2778
 4999SOL    HW215808   7.541   4.521   1.648 -1.3895  1.3854 -2.2021
 5000SOL     OW15809   5.762   4.022   4.790 -0.9512  0.1365  0.5122
 5000SOL    HW115810   5.713   3.962   4.847 -0.0988  0.4282  1.5827
 5000SOL    HW215811   5.838   3.971   4.763 -0.9102  0.2955  0.3275
 5001SOL     OW15812   0.686   6.956   4.661  0.1989 -0.2474  0.1770
 5001SOL    HW115813   0.688   6.919   4.749 -1.5654  0.1994  0.4427
 5001SOL    HW215814   0.665   7.049   4.674 -1.0754 -0.3746 -0.7281
 5002SOL     OW15815   4.442   1.441   7.930  0.5067 -0.0872 -0.0282
 5002SOL    HW115816   4.518   1.493   7.903  0.7279 -1.5564 -2.4767
 5002SOL    HW215817   4.455   1.427   8.024  2.4223  1.0176 -0.0780
 5003SOL     OW15818   4.770   0.528   3.761 -0.4521 -0.1330 -0.2923
 5003SOL    HW115819   4.728   0.524   3.847  0.5865 -0.3860  0.2258
 5003SOL    HW215820   4.769   0.438   3.729  0.4422 -0.3066  0.1175
 5004SOL     OW15821   5.882   3.450   0.122  0.0779 -0.0861  0.2130
 5004SOL    HW115822   5.825   3.526   0.109  1.6041  1.1188  0.2584
 5004SOL    HW215823   5.948   3.456   0.053 -0.1074 -1.7373 -0.1600
 5005SOL     OW15824   5.137   6.669   0.455 -0.6644  0.2012 -0.9173
 5005SOL    HW115825   5.171   6.750   0.492 -0.7074 -0.6736  1.1862
 5005SOL    HW215826   5.214   6.624   0.420 -0.2064  0.0477  0.2078
 5006SOL     OW15827   5.569   6.221   3.944  0.1015 -0.5268  0.0319
 5006SOL    HW115828   5.538   6.199   4.032  1.5402  0.1462  0.7389
 5006SOL    HW215829   5.565   6.316   3.940  0.7129 -0.5136 -0.3733
 5007SOL     OW15830   3.448   7.250   6.049 -0.0440 -0.5407 -0.0493
 5007SOL    HW115831   3.384   7.306   6.092 -0.6422 -1.1457 -0.1395
 5007SOL    HW215832   3.410   7.162   6.052  0.3061 -0.7416 -1.0311
 5008SOL     OW15833   7.063   5.613   0.719 -0.7086  0.3235  0.1558
 5008SOL    HW115834   6.994   5.621   0.785 -0.9302  0.8411 -0.1221
 5008SOL    HW215835   7.053   5.693   0.666  0.0772  0.3813  0.0867
 5009SOL     OW15836   1.368   5.401   2.464 -0.4432  0.2005  0.2328
 5009SOL    HW115837   1.435   5.388   2.397  0.1816  0.5477  0.7803
 5009SOL    HW215838   1.309   5.326   2.454 -0.1025  0.0106 -0.3973
 5010SOL     OW15839   0.317   3.324   1.571 -0.0924  0.2562  0.0263
 5010SOL    HW115840   0.358   3.249   1.615  2.0455  0.8179 -0.8967
 5010SOL    HW215841   0.234   3.290   1.538  0.7755 -1.6902 -0.2746
 5011SOL     OW15842   3.717   2.663   7.485  0.0686  0.7489  0.3645
 5011SOL    HW115843   3.784   2.716   7.528  0.4636 -0.1217  0.8412
 5011SOL    HW215844   3.662   2.727   7.440 -0.4222  1.7175  2.2163
 5012SOL     OW15845   5.195   4.311   7.500  0.0003 -0.1941 -0.7083
 5012SOL    HW115846   5.107   4.349   7.504 -0.5026 -1.3189 -0.8073
 5012SOL    HW215847   5.185   4.233   7.447  1.1676 -0.0833 -1.1166
 5013SOL     OW15848   5.256   7.410   7.537  0.2926  0.0135 -0.4322
 5013SOL    HW115849   5.308   7.425   7.458  1.2230 -0.3398  0.0915
 5013SOL    HW215850   5.320   7.379   7.601 -0.2275  1.4561  0.8287
 5014SOL     OW15851   2.596   5.633   1.744  0.1549 -0.3617  0.3586
 5014SOL    HW115852   2.572   5.573   1.673  1.0003  2.4856 -2.5435
 5014SOL    HW215853   2.513   5.652   1.788 -0.5510 -1.5171 -0.4042
 5015SOL     OW15854   7.144   6.447   4.399 -0.3628  0.3087 -0.6465
 5015SOL    HW115855   7.176   6.475   4.486 -1.3205  0.7796 -0.4365
 5015SOL    HW215856   7.182   6.511   4.339 -2.1695  1.8756 -0.2174
 5016SOL     OW15857   6.579   7.378   6.004 -0.6192 -0.4666 -0.6318
 5016SOL    HW115858   6.488   7.349   6.003 -0.7084 -0.1818 -0.8118
 5016SOL    HW215859   6.577   7.459   6.054 -0.3417 -0.8565  0.0243
 5017SOL     OW15860   7.392   0.490   1.314  0.5212  0.0820  0.0707
 5017SOL    HW115861   7.432   0.572   1.343  2.2569 -1.1459  1.3688
 5017SOL    HW215862   7.333   0.516   1.244  2.5995  2.1970 -1.0513
 5018SOL     OW15863   5.298   1.276   1.462 -0.2456  0.1644  0.6485
 5018SOL    HW115864   5.273   1.248   1.550  1.4949 -0.2297  1.0559
 5018SOL    HW215865   5.381   1.322   1.475  0.8585 -1.2862 -0.9712
 5019SOL     OW15866   7.375   5.394   6.225  0.1278  0.2336 -0.2565
 5019SOL    HW115867   7.305   5.354   6.173 -0.6197  0.2038  0.7404
 5019SOL    HW215868   7.348   5.486   6.234 -0.4940 -0.0673  1.2374
 5020SOL     OW15869   0.352   7.778   4.903 -0.7659  0.3269  0.5734
 5020SOL    HW115870   0.403   7.728   4.838 -1.8059  0.0648 -0.0740
 5020SOL    HW215871   0.392   7.755   4.987  0.7870  0.8846  0.0252
 5021SOL     OW15872   3.789   5.085   0.095  0.6193  0.8992  0.5603
 5021SOL    HW115873   3.736   5.122   0.166  1.7778  0.9497  1.4417
 5021SOL    HW215874   3.837   5.160   0.060 -0.4712  1.0062 -0.8012
 5022SOL     OW15875   3.713   5.559   2.749  0.4911  0.3111  0.3059
 5022SOL    HW115876   3.742   5.575   2.659  0.0182  0.6277  0.2048
 5022SOL    HW215877   3.617   5.560   2.743  0.4496  1.3490  0.9887
 5023SOL     OW15878   0.078   7.765   2.692  0.2114  0.0624  0.3163
 5023SOL    HW115879   0.072   7.857   2.666  1.7966  0.2705  0.5707
 5023SOL    HW215880   0.148   7.729   2.638  0.0335 -0.8427  0.6641
 5024SOL     OW15881   4.999   5.452   0.171 -0.5459  0.1340  0.4199
 5024SOL    HW115882   4.971   5.435   0.260 -0.8574 -0.1532  0.2673
 5024SOL    HW215883   5.087   5.414   0.165  0.4895  2.2038  1.3050
 5025SOL     OW15884   2.516   5.220   2.578  0.6416  0.0934  0.1523
 5025SOL    HW115885   2.543   5.129   2.571  2.0066  0.3928  1.1060
 5025SOL    HW215886   2.438   5.218   2.633  0.5154 -0.5037 -0.0402
 5026SOL     OW15887   6.551   7.509   6.336 -0.0045  0.1733  0.0460
 5026SOL    HW115888   6.497   7.470   6.405 -1.6895  2.8570  0.3880
 5026SOL    HW215889   6.489   7.561   6.284  1.8414  1.1884 -1.2464
 5027SOL     OW15890   5.258   2.018   2.349 -0.6926 -0.0970  0.4479
 5027SOL    HW115891   5.199   2.060   2.286 -1.7354 -0.3662  1.2174
 5027SOL    HW215892   5.211   1.940   2.378  0.3094 -0.6553  0.6312
 5028SOL     OW15893   1.775   0.976   5.920 -0.9632 -0.6531 -0.5672
 5028SOL    HW115894   1.734   1.060   5.939  1.5686  0.3976  0.5724
 5028SOL    HW215895   1.798   0.981   5.828  0.4588  0.5252 -0.1728
 5029SOL     OW15896   3.017   4.554   6.580  0.1273 -0.3856 -0.4038
 5029SOL    HW115897   3.003   4.498   6.656 -0.4337 -0.0865 -0.2807
 5029SOL    HW215898   2.949   4.621   6.587  0.6026  0.1380 -0.7054
 5030SOL     OW15899   6.558   3.962   6.773  0.1345  0.7525  0.0147
 5030SOL    HW115900   6.581   3.991   6.685 -0.7343 -1.0034 -0.8494
 5030SOL    HW215901   6.574   3.868   6.772 -1.5491  0.4062  1.1653
 5031SOL     OW15902   7.465   7.057   1.095 -0.5661 -0.2991  0.3016
 5031SOL    HW115903   7.507   7.046   1.180 -1.3896  1.6927  1.0180
 5031SOL    HW215904   7.393   7.117   1.111 -0.5582  0.3759 -1.8667
 5032SOL     OW15905   1.666   0.261   3.820  0.1935 -0.0183  0.5415
 5032SOL    HW115906   1.728   0.188   3.814 -0.1522 -0.3198  0.5745
 5032SOL    HW215907   1.631   0.255   3.908 -1.1412 -0.9058 -0.0073
 5033SOL     OW15908   5.427   2.710   6.577 -0.1831 -0.4903 -0.2650
 5033SOL    HW115909   5.444   2.634   6.522 -1.1524 -1.1446  0.2996
 5033SOL    HW215910   5.510   2.757   6.580  0.6484 -1.9281 -0.0286
 5034SOL     OW15911   7.465   4.877   7.911  0.2090 -0.0013  0.8333
 5034SOL    HW115912   7.540   4.826   7.881  0.9462  0.8024  1.2642
 5034SOL    HW215913   7.399   4.865   7.844  1.6143  1.2975 -0.8800
 5035SOL     OW15914   7.431   7.708   3.142  0.2313 -0.3741 -0.3454
 5035SOL    HW115915   7.455   7.800   3.128  0.1720  0.4207  3.6827
 5035SOL    HW215916   7.346   7.711   3.186  0.8812 -2.2055  1.1979
 5036SOL     OW15917   6.323   7.264   3.199  0.0908  0.0979 -0.2327
 5036SOL    HW115918   6.375   7.204   3.252 -0.5357 -0.1953  0.0578
 5036SOL    HW215919   6.364   7.262   3.113 -1.2713 -2.5580 -0.9380
 5037SOL     OW15920   4.270   2.620   2.557 -0.0025 -0.4234 -0.2326
 5037SOL    HW115921   4.283   2.710   2.585  1.0868 -0.7362  0.3405
 5037SOL    HW215922   4.181   2.618   2.522 -1.0060  0.3079  2.0383
 5038SOL     OW15923   4.587   4.306   0.113 -0.4313  0.4166  0.6409
 5038SOL    HW115924   4.677   4.276   0.123 -0.2004  1.5978  2.5193
 5038SOL    HW215925   4.535   4.238   0.156 -0.3188  0.4038  0.7575
 5039SOL     OW15926   1.635   4.006   3.933  0.0497  0.0531  0.0128
 5039SOL    HW115927   1.665   4.031   3.845  0.8319  0.3341  0.3537
 5039SOL    HW215928   1.715   3.993   3.983 -0.3720 -1.2307  0.3878
 5040SOL     OW15929   6.925   3.510   6.374  0.2372  0.0866 -0.1356
 5040SOL    HW115930   7.019   3.492   6.384 -0.0759 -1.0341  1.0239
 5040SOL    HW215931   6.882   3.434   6.412 -1.1562  0.2342 -1.3532
 5041SOL     OW15932   0.256   6.069   0.475  0.4948  0.4446 -0.1543
 5041SOL    HW115933   0.240   6.107   0.562 -1.0043 -0.4723  0.0134
 5041SOL    HW215934   0.178   6.093   0.424  0.2463 -1.0221 -0.5063
 5042SOL     OW15935   5.377   6.322   0.002  1.0189  0.5193  0.2957
 5042SOL    HW115936   5.445   6.257   0.020  1.5972  1.3447  1.1811
 5042SOL    HW215937   5.295   6.273   0.008  1.5230 -0.7903 -2.0657
 5043SOL     OW15938   3.282   5.542   7.143  0.0975 -0.4132  0.2448
 5043SOL    HW115939   3.296   5.488   7.221  1.0589 -2.2974 -1.1480
 5043SOL    HW215940   3.191   5.570   7.150  0.4947  0.4957  2.6274
 5044SOL     OW15941   3.482   3.683   5.376 -0.2717  0.2386  0.5051
 5044SOL    HW115942   3.551   3.617   5.370  0.3611  0.8393  0.9102
 5044SOL    HW215943   3.444   3.669   5.463 -0.0378  0.4921  0.6513
 5045SOL     OW15944   5.698   4.000   0.485  0.6554  0.8735 -0.4807
 5045SOL    HW115945   5.636   3.996   0.413 -2.4961  1.2416  1.9690
 5045SOL    HW215946   5.683   3.919   0.534 -0.2127  2.3449  1.8480
 5046SOL     OW15947   6.335   0.200   1.619  0.3067 -0.6067  0.3625
 5046SOL    HW115948   6.270   0.170   1.682 -0.1421  2.0816  1.3225
 5046SOL    HW215949   6.392   0.258   1.670  1.2053 -0.0140 -1.2665
 5047SOL     OW15950   1.954   0.603   3.676  0.7058  0.1071  0.8649
 5047SOL    HW115951   1.945   0.627   3.768  3.0127 -0.8122  1.3995
 5047SOL    HW215952   2.009   0.525   3.677  0.7402  0.0436 -1.3012
 5048SOL     OW15953   4.474   4.999   7.760 -0.1848 -0.3571  0.6564
 5048SOL    HW115954   4.508   5.010   7.671  0.1282 -0.8599  0.7066
 5048SOL    HW215955   4.524   5.061   7.813  0.7046 -1.1161  0.7342
 5049SOL     OW15956   2.809   5.567   6.383  0.7095 -0.1244  0.3851
 5049SOL    HW115957   2.722   5.591   6.415 -0.0767  0.7032 -2.0880
 5049SOL    HW215958   2.863   5.644   6.402  0.2003  0.4517 -0.4264
 5050SOL     OW15959   3.029   2.066   7.824  0.1444  0.0511 -0.6495
 5050SOL    HW115960   2.950   2.017   7.847  1.7117 -1.9691  0.7749
 5050SOL    HW215961   3.010   2.156   7.851 -1.7897 -0.2804 -0.7458
 5051SOL     OW15962   6.471   6.672   2.386  0.0139 -0.1801  0.0263
 5051SOL    HW115963   6.460   6.739   2.318  0.6032  0.6947  0.7762
 5051SOL    HW215964   6.383   6.636   2.398 -0.2770  0.3224 -0.5275
 5052SOL     OW15965   6.329   4.948   2.197  0.3364  0.2005  0.0882
 5052SOL    HW115966   6.291   4.873   2.151 -0.8219  0.9165 -0.1537
 5052SOL    HW215967   6.417   4.919   2.221  0.0095 -1.1316 -0.2432
 5053SOL     OW15968   5.414   5.233   1.488 -0.4808  0.4816 -0.2645
 5053SOL    HW115969   5.353   5.161   1.503  0.1273 -0.2883 -1.3242
 5053SOL    HW215970   5.446   5.219   1.399  1.0901  0.9738  0.1819
 5054SOL     OW15971   3.392   6.940   0.354 -0.0187 -0.2403 -0.1553
 5054SOL    HW115972   3.428   6.871   0.410 -0.5201  0.0933  0.5967
 5054SOL    HW215973   3.450   7.015   0.367 -0.3045 -0.0680  0.1679
 5055SOL     OW15974   2.193   3.384   0.211 -0.2293 -0.4785 -0.2621
 5055SOL    HW115975   2.241   3.424   0.284  0.4207 -0.4174 -0.7071
 5055SOL    HW215976   2.257   3.324   0.171  0.0818  0.8597 -1.9103
 5056SOL     OW15977   7.570   0.565   2.547 -0.4024  0.2420  0.1425
 5056SOL    HW115978   7.603   0.478   2.528 -1.1548  0.2288 -1.2301
 5056SOL    HW215979   7.522   0.591   2.468 -2.1293  0.9734  1.3565
 5057SOL     OW15980   6.202   6.458   5.905 -0.7285 -0.2118  1.0492
 5057SOL    HW115981   6.121   6.445   5.955  0.0134 -0.6224  2.1721
 5057SOL    HW215982   6.265   6.492   5.968 -0.1854  0.7154  0.0464
 5058SOL     OW15983   3.610   1.202   6.695 -0.3998 -0.3928 -0.6958
 5058SOL    HW115984   3.690   1.157   6.722  0.4648  1.1971 -0.4348
 5058SOL    HW215985   3.623   1.220   6.602  0.6734  1.9130 -0.1778
 5059SOL     OW15986   1.585   2.767   1.041 -0.0669 -0.5491  0.6433
 5059SOL    HW115987   1.672   2.760   1.001 -1.1903  0.2206 -2.2525
 5059SOL    HW215988   1.555   2.676   1.048 -0.2494 -0.7228 -1.5189
 5060SOL     OW15989   7.854   0.873   3.042  0.2341  0.8344  0.5233
 5060SOL    HW115990   7.923   0.858   2.977 -1.1511  1.0478 -1.0890
 5060SOL    HW215991   7.876   0.815   3.114  0.8871 -0.8044 -0.9050
 5061SOL     OW15992   7.427   3.166   5.184  0.3416 -0.0361 -0.4069
 5061SOL    HW115993   7.493   3.096   5.187  0.5588  0.1636 -0.5429
 5061SOL    HW215994   7.470   3.242   5.222 -0.8828 -0.7696  2.7270
 5062SOL     OW15995   7.166   6.535   4.976 -0.2167 -0.6373 -0.3348
 5062SOL    HW115996   7.165   6.594   4.901 -1.6410  1.5012  1.2083
 5062SOL    HW215997   7.073   6.514   4.991 -0.2758  0.9990  2.1921
 5063SOL     OW15998   7.265   2.287   3.307 -0.5425 -0.0726 -0.2800
 5063SOL    HW115999   7.268   2.369   3.356  0.9390  2.0280 -3.5640
 5063SOL    HW216000   7.345   2.241   3.333 -1.3397 -0.5203  1.5186
 5064SOL     OW16001   7.721   0.291   7.836  0.6773 -0.2428 -0.2439
 5064SOL    HW116002   7.701   0.293   7.742  1.1616  1.4833 -0.3392
 5064SOL    HW216003   7.637   0.304   7.879  0.1411 -2.8578 -0.3304
 5065SOL     OW16004   3.995   5.158   4.610  0.5648  0.5554  0.8499
 5065SOL    HW116005   3.938   5.220   4.656 -0.1185 -0.1933  1.0305
 5065SOL    HW216006   4.026   5.099   4.678 -0.9373 -0.9347  0.3114
 5066SOL     OW16007   0.150   4.391   1.373 -0.2148 -0.0451 -0.4474
 5066SOL    HW116008   0.118   4.479   1.350  0.7116  0.1712 -0.9845
 5066SOL    HW216009   0.085   4.357   1.435  0.0340  1.4931  0.7247
 5067SOL     OW16010   3.382   2.894   1.806  0.4972 -0.4068  0.1991
 5067SOL    HW116011   3.345   2.970   1.851  0.6525 -0.9295  1.2680
 5067SOL    HW216012   3.310   2.831   1.804  0.4310 -0.3097 -0.4881
 5068SOL     OW16013   5.279   3.950   5.761 -0.5941  0.1266  0.0671
 5068SOL    HW116014   5.288   3.962   5.855  2.6326  0.2614 -0.1407
 5068SOL    HW216015   5.281   3.855   5.749  0.4300  0.1329  0.0869
 5069SOL     OW16016   4.564   1.854   3.509 -0.1889 -0.0575 -0.1039
 5069SOL    HW116017   4.507   1.929   3.494  1.3602  1.0180 -0.8299
 5069SOL    HW216018   4.641   1.871   3.455  0.6579 -1.6637  0.5347
 5070SOL     OW16019   1.198   6.826   7.125  0.4309  0.3510  0.1431
 5070SOL    HW116020   1.239   6.879   7.192 -0.7442  1.1797  0.2371
 5070SOL    HW216021   1.192   6.884   7.049  1.4626 -0.4757 -0.5946
 5071SOL     OW16022   0.078   6.983   2.323 -0.2996 -0.5429  0.4840
 5071SOL    HW116023   0.044   7.055   2.270  2.1571  1.1951  1.0764
 5071SOL    HW216024   0.116   6.922   2.260 -0.4276 -0.2067  0.0794
 5072SOL     OW16025   1.479   4.512   4.634  0.1523 -0.3267  0.1210
 5072SOL    HW116026   1.511   4.603   4.634  0.7355 -0.5265  0.5518
 5072SOL    HW216027   1.389   4.519   4.601 -0.7218  0.7581  2.4817
 5073SOL     OW16028   7.806   0.873   4.280  0.8577  0.3888 -0.2120
 5073SOL    HW116029   7.865   0.948   4.294  1.7872 -0.6161  1.6174
 5073SOL    HW216030   7.836   0.834   4.198  1.2545  1.1945 -0.4650
 5074SOL     OW16031   7.009   5.730   3.921 -0.5460  0.4525  0.0510
 5074SOL    HW116032   7.069   5.730   3.996 -0.7398 -1.3662  0.2711
 5074SOL    HW216033   7.061   5.764   3.849  1.1718 -1.9972  0.0016
 5075SOL     OW16034   5.352   3.825   5.506  0.4101 -0.1164  0.1560
 5075SOL    HW116035   5.324   3.873   5.585  1.2580  1.3384 -0.3812
 5075SOL    HW216036   5.403   3.752   5.539 -0.6415 -0.4985  1.0028
 5076SOL     OW16037   3.126   6.732   3.295 -0.3140  0.2999  0.5400
 5076SOL    HW116038   3.068   6.790   3.246 -0.1615  0.5845  0.6989
 5076SOL    HW216039   3.067   6.682   3.352 -0.5163 -0.1789 -0.0691
 5077SOL     OW16040   0.257   5.375   5.671 -0.1586  0.8675 -0.5025
 5077SOL    HW116041   0.225   5.399   5.584  0.6332 -1.2116 -1.4365
 5077SOL    HW216042   0.337   5.326   5.655 -0.6107 -0.6076  1.3093
 5078SOL     OW16043   6.612   7.232   1.203 -0.7034 -0.1923 -0.1814
 5078SOL    HW116044   6.619   7.277   1.119 -0.9225  0.7479  0.2786
 5078SOL    HW216045   6.527   7.260   1.238 -0.0410  0.5341  0.9368
 5079SOL     OW16046   3.955   4.671   6.005 -0.0366 -0.0800 -0.0240
 5079SOL    HW116047   4.037   4.718   5.991 -0.9871  1.4419 -0.7521
 5079SOL    HW216048   3.912   4.671   5.920 -1.5774  0.7086  0.7234
 5080SOL     OW16049   3.276   3.120   7.160 -0.7690  0.3247  0.0495
 5080SOL    HW116050   3.334   3.170   7.102  0.5547  1.3929  2.1543
 5080SOL    HW216051   3.195   3.171   7.163  0.1123  1.7546  1.1615
 5081SOL     OW16052   6.177   7.446   5.215  0.3035  0.4284  1.2254
 5081SOL    HW116053   6.103   7.465   5.273 -0.2034  0.0870  0.7114
 5081SOL    HW216054   6.167   7.353   5.193  0.2396  0.6495  0.2670
 5082SOL     OW16055   6.666   7.192   2.995 -0.3572  0.6017  0.2971
 5082SOL    HW116056   6.725   7.164   2.925 -0.4631  0.1149  0.3998
 5082SOL    HW216057   6.588   7.137   2.984 -1.1732  1.8190 -0.3815
 5083SOL     OW16058   1.601   5.476   6.683 -0.3054  0.1919 -0.3336
 5083SOL    HW116059   1.546   5.421   6.738  0.9427  1.2679  2.1689
 5083SOL    HW216060   1.540   5.532   6.636 -1.4824 -1.6828 -1.1647
 5084SOL     OW16061   2.480   4.676   0.096 -0.2054  0.0085 -0.0178
 5084SOL    HW116062   2.526   4.693   0.178 -1.3653  0.4107  0.5667
 5084SOL    HW216063   2.506   4.587   0.072 -0.8675 -0.6159  1.4804
 5085SOL     OW16064   7.006   6.882   6.387 -0.4648 -0.1674  0.0977
 5085SOL    HW116065   6.958   6.801   6.373 -0.4977 -0.0526 -0.4600
 5085SOL    HW216066   7.044   6.903   6.302 -0.8393  0.6511  0.1243
 5086SOL     OW16067   2.014   6.676   5.425 -0.1762  0.0241 -0.4490
 5086SOL    HW116068   2.101   6.659   5.388  0.3566 -1.3121  1.3116
 5086SOL    HW216069   1.960   6.603   5.394  0.0470 -0.6228  0.6498
 5087SOL     OW16070   7.360   0.445   2.692  0.2189 -0.0770 -0.5615
 5087SOL    HW116071   7.398   0.470   2.608  2.8148  0.7753  0.7291
 5087SOL    HW216072   7.357   0.526   2.742 -3.7628 -0.0276 -0.5627
 5088SOL     OW16073   6.386   4.233   0.754 -0.3403 -0.1434  0.6715
 5088SOL    HW116074   6.396   4.188   0.669 -2.1510  0.0025  0.3443
 5088SOL    HW216075   6.447   4.187   0.812  0.9292 -0.2652 -0.6810
 5089SOL     OW16076   5.603   2.916   3.555  0.9967  0.1699 -0.3713
 5089SOL    HW116077   5.522   2.927   3.604  0.9786 -0.2798 -0.2977
 5089SOL    HW216078   5.672   2.946   3.615  0.8758  0.6928 -0.4880
 5090SOL     OW16079   2.790   0.374   6.604 -0.3345  0.5923  0.4162
 5090SOL    HW116080   2.761   0.369   6.695 -0.8198  1.0988  0.2895
 5090SOL    HW216081   2.866   0.315   6.601  0.2892  1.3085  1.3702
 5091SOL     OW16082   1.557   2.051   2.510 -0.0343  0.5271 -0.5901
 5091SOL    HW116083   1.610   1.978   2.481  1.2759  0.5455  1.4985
 5091SOL    HW216084   1.537   2.100   2.431  0.8416 -0.9307 -1.7604
 5092SOL     OW16085   4.911   0.245   4.126  0.2040 -0.2845 -0.5618
 5092SOL    HW116086   4.881   0.302   4.055  1.0796  0.0989 -0.6381
 5092SOL    HW216087   4.910   0.301   4.203 -1.4665 -0.9025 -0.0945
 5093SOL     OW16088   6.102   0.067   2.913  0.4682 -0.8033  0.4046
 5093SOL    HW116089   6.173   0.005   2.932  0.1351 -0.9178  1.2945
 5093SOL    HW216090   6.023   0.023   2.941  0.2011 -0.0644  0.8336
 5094SOL     OW16091   2.306   2.516   7.073  0.5182  0.5195 -0.4534
 5094SOL    HW116092   2.234   2.563   7.030  0.0419  0.6207  0.4320
 5094SOL    HW216093   2.327   2.570   7.150  0.1701 -0.5344  0.4103
 5095SOL     OW16094   5.076   2.812   2.918  0.0581 -0.2997  0.1010
 5095SOL    HW116095   5.026   2.746   2.966  1.6392 -1.3266  0.4067
 5095SOL    HW216096   5.022   2.832   2.842 -0.3425 -2.1898 -0.1623
 5096SOL     OW16097   1.500   0.151   4.023  0.2802  0.4130  0.0339
 5096SOL    HW116098   1.437   0.175   4.091  0.2419 -0.0279  0.1575
 5096SOL    HW216099   1.582   0.139   4.070  0.2298  0.0034  0.0174
 5097SOL     OW16100   0.631   7.158   3.892 -0.3644  0.0619  0.1182
 5097SOL    HW116101   0.592   7.189   3.973 -0.4001 -1.5463  0.7476
 5097SOL    HW216102   0.572   7.090   3.861  0.5302 -0.5336 -0.3296
 5098SOL     OW16103   5.133   3.807   2.454 -0.4336  0.1036 -0.2905
 5098SOL    HW116104   5.048   3.800   2.411  0.1554  2.0529 -1.9045
 5098SOL    HW216105   5.196   3.776   2.390  0.2040  0.0099  0.3624
 5099SOL     OW16106   0.013   0.581   1.809 -0.0319  0.1692 -0.3138
 5099SOL    HW116107   0.082   0.575   1.875 -0.2727  1.4750  0.0892
 5099SOL    HW216108  -0.005   0.490   1.784  2.2454 -0.1827 -0.8780
 5100SOL     OW16109   5.431   1.108   2.111 -0.1114 -0.3583  0.3902
 5100SOL    HW116110   5.441   1.203   2.115 -0.3132 -0.2721 -0.8660
 5100SOL    HW216111   5.479   1.081   2.032 -0.6987 -1.2003  0.2981
 5101SOL     OW16112   3.792   0.021   3.807 -0.0135  0.8440 -0.0888
 5101SOL    HW116113   3.755  -0.023   3.731  0.0046  0.4345  0.1359
 5101SOL    HW216114   3.884  -0.006   3.808 -0.3518 -0.3724  0.9270
 5102SOL     OW16115   4.195   5.238   1.755  0.4833  0.5304  0.3547
 5102SOL    HW116116   4.261   5.173   1.781 -0.5876 -0.1801  1.3998
 5102SOL    HW216117   4.240   5.294   1.692  1.5583 -0.9904 -0.2765
 5103SOL     OW16118   0.987   1.178   2.621 -0.3604 -0.2449 -0.0156
 5103SOL    HW116119   1.045   1.211   2.690  2.0380  2.7102 -3.1393
 5103SOL    HW216120   1.041   1.118   2.570 -0.3398  1.5339 -2.2131
 5104SOL     OW16121   5.594   1.536   4.423 -0.2276 -0.4568 -0.2812
 5104SOL    HW116122   5.544   1.485   4.360 -0.7885 -1.6959  1.1176
 5104SOL    HW216123   5.618   1.473   4.492  2.7676  0.1958 -0.5829
 5105SOL     OW16124   6.552   7.084   5.668  0.4325 -0.3803  0.8285
 5105SOL    HW116125   6.466   7.073   5.709  0.5091 -0.0023  1.0974
 5105SOL    HW216126   6.611   7.103   5.741  0.6141  0.0651  0.5718
 5106SOL     OW16127   3.551   4.816   6.094 -0.7776 -0.3444 -0.0705
 5106SOL    HW116128   3.621   4.751   6.095  1.2398  1.7053 -0.1552
 5106SOL    HW216129   3.534   4.835   6.186 -2.2793 -1.8249  0.0066
 5107SOL     OW16130   7.461   1.585   4.183 -0.4471 -0.1972  0.0452
 5107SOL    HW116131   7.459   1.543   4.097  0.5496  0.1714 -0.1616
 5107SOL    HW216132   7.417   1.522   4.240 -2.7343  0.3218 -1.0288
 5108SOL     OW16133   7.662   6.598   0.950  0.4102  0.3974 -0.8543
 5108SOL    HW116134   7.711   6.521   0.979 -0.3008 -0.4362 -1.8027
 5108SOL    HW216135   7.726   6.650   0.901  0.5477 -0.3095 -1.4396
 5109SOL     OW16136   1.519   6.593   4.582 -0.1433 -0.3346 -0.7248
 5109SOL    HW116137   1.529   6.670   4.526 -0.4996  0.6407  0.5275
 5109SOL    HW216138   1.502   6.521   4.520 -0.2941  0.6598 -1.8743
 5110SOL     OW16139   3.576   7.141   1.593  0.1417  0.0109  0.6447
 5110SOL    HW116140   3.649   7.078   1.590 -0.4410 -0.6720  0.3657
 5110SOL    HW216141   3.504   7.091   1.631 -1.5816 -0.8473 -3.3005
 5111SOL     OW16142   6.955   4.835   1.872  0.5169 -0.0079 -0.5477
 5111SOL    HW116143   7.045   4.850   1.846  0.5308  1.2858  0.1364
 5111SOL    HW216144   6.918   4.923   1.882 -0.3061 -0.4717  0.8543
 5112SOL     OW16145   2.143   4.377   1.411  0.4526  0.0199 -0.2214
 5112SOL    HW116146   2.187   4.332   1.484  0.2059  0.5425  0.2589
 5112SOL    HW216147   2.135   4.310   1.343  0.2454 -0.6179  0.4162
 5113SOL     OW16148   7.293   6.959   6.674 -0.4620  0.3311 -0.6479
 5113SOL    HW116149   7.275   6.974   6.581 -2.2108  0.7073 -0.2867
 5113SOL    HW216150   7.362   7.021   6.696 -1.1042  1.3245 -1.3508
 5114SOL     OW16151   5.719   1.960   2.998 -0.4835 -0.3115  0.0719
 5114SOL    HW116152   5.637   1.916   3.018 -0.4516 -0.8415 -0.8733
 5114SOL    HW216153   5.692   2.044   2.959 -0.5469  0.2978  1.3809
 5115SOL     OW16154   3.985   3.433   5.988 -0.0605  0.1439 -0.8054
 5115SOL    HW116155   3.978   3.374   5.912 -0.7160 -1.8769  0.7397
 5115SOL    HW216156   3.901   3.423   6.033  0.8920  0.0828  1.0203
 5116SOL     OW16157   2.039   1.712   7.290  0.5206  0.0371 -0.0355
 5116SOL    HW116158   2.098   1.745   7.357  0.1111 -0.0149  0.3545
 5116SOL    HW216159   2.083   1.636   7.254  1.6040  1.1253 -1.1266
 5117SOL     OW16160   3.095   2.505   3.039 -0.1899 -0.3831 -0.3702
 5117SOL    HW116161   3.152   2.565   3.087 -1.8733  1.9279 -1.0476
 5117SOL    HW216162   3.098   2.424   3.089  2.8554 -0.0662  0.1412
 5118SOL     OW16163   4.770   0.969   6.105  0.1071  0.7528 -0.3483
 5118SOL    HW116164   4.754   0.910   6.032  0.9744  2.8092 -2.3191
 5118SOL    HW216165   4.866   0.975   6.111  0.0398  1.8117 -0.0782
 5119SOL     OW16166   1.813   2.003   1.351  1.0707 -0.1686 -0.0345
 5119SOL    HW116167   1.764   2.027   1.272  0.5602 -0.4150  0.2048
 5119SOL    HW216168   1.805   2.079   1.408  1.8803  0.2191 -0.4184
 5120SOL     OW16169   3.857   8.000   6.931  0.3215  0.4472 -0.0528
 5120SOL    HW116170   3.809   8.074   6.969  1.0257  0.7611  0.2368
 5120SOL    HW216171   3.948   8.014   6.959  0.8912  0.7718 -1.9617
 5121SOL     OW16172   1.583   2.194   2.134  0.6528  0.6586  0.2645
 5121SOL    HW116173   1.582   2.242   2.051  3.1507  0.0938 -0.1495
 5121SOL    HW216174   1.584   2.102   2.109 -2.2301  0.2943  1.0499
 5122SOL     OW16175   7.274   4.686   1.614 -0.0458  0.3030 -0.0279
 5122SOL    HW116176   7.334   4.641   1.674 -1.1460 -2.1446 -0.6247
 5122SOL    HW216177   7.319   4.684   1.529 -0.2054  0.0451 -0.1093
 5123SOL     OW16178   0.427   7.260   1.260  0.0140 -0.1583  0.4913
 5123SOL    HW116179   0.408   7.236   1.351  0.0987  1.5417  1.0048
 5123SOL    HW216180   0.396   7.350   1.252  1.2157  0.1934 -0.7714
 5124SOL     OW16181   0.176   1.223   2.947 -0.3288  0.1408  0.4962
 5124SOL    HW116182   0.262   1.197   2.982  0.6538  1.5939 -0.6920
 5124SOL    HW216183   0.132   1.263   3.022  0.9357  1.3895  0.6219
 5125SOL     OW16184   6.362   6.177   3.435 -0.2440 -0.1255  0.2790
 5125SOL    HW116185   6.439   6.122   3.446 -0.1776  0.1455  1.2509
 5125SOL    HW216186   6.349   6.182   3.340  1.2099  0.2136  0.0842
 5126SOL     OW16187   3.809   3.446   5.571  0.2736  0.4516 -0.4590
 5126SOL    HW116188   3.791   3.514   5.636  1.1155 -1.2195  1.6524
 5126SOL    HW216189   3.733   3.387   5.577  0.9202 -0.3658 -0.0367
 5127SOL     OW16190   7.112   3.720   7.106  0.1994 -0.0966  0.4870
 5127SOL    HW116191   7.192   3.772   7.099 -0.2458  0.4534 -1.1412
 5127SOL    HW216192   7.089   3.723   7.199  0.2182  2.6623  0.5002
 5128SOL     OW16193   1.047   3.275   3.771 -0.0318  0.3206 -0.1779
 5128SOL    HW116194   1.108   3.216   3.727 -0.1155  0.8324 -1.0193
 5128SOL    HW216195   1.099   3.315   3.841  0.2607 -0.1151 -0.1415
 5129SOL     OW16196   7.121   2.950   2.331  0.0137  0.3902 -0.0185
 5129SOL    HW116197   7.094   3.038   2.304 -1.9466 -0.6336 -1.7081
 5129SOL    HW216198   7.216   2.949   2.317 -0.2810  1.4005 -2.8258
 5130SOL     OW16199   2.063   7.805   7.866  0.2017 -0.0028 -0.4480
 5130SOL    HW116200   2.086   7.739   7.931 -0.6218  1.5661  1.5506
 5130SOL    HW216201   1.969   7.818   7.876  0.2698  1.1870 -1.0677
 5131SOL     OW16202   1.356   6.858   5.071  0.2638  0.5142 -0.3634
 5131SOL    HW116203   1.410   6.780   5.056 -0.4348  0.1056 -0.8126
 5131SOL    HW216204   1.361   6.873   5.165 -0.6970 -0.8929 -0.0557
 5132SOL     OW16205   4.847   2.863   2.403 -0.1806  0.1567  0.2372
 5132SOL    HW116206   4.783   2.876   2.333  0.6254  1.5112 -0.2966
 5132SOL    HW216207   4.908   2.936   2.393 -0.1248  0.4797  2.4609
 5133SOL     OW16208   6.500   1.979   1.453 -0.4647 -1.0132  0.4624
 5133SOL    HW116209   6.529   1.967   1.544  2.6901  1.2204 -0.0930
 5133SOL    HW216210   6.555   1.919   1.403  0.7954  0.7234 -0.3056
 5134SOL     OW16211   6.686   4.749   3.639  0.1947 -0.4337 -0.1281
 5134SOL    HW116212   6.704   4.656   3.656  0.3263 -0.3162  0.3946
 5134SOL    HW216213   6.772   4.790   3.637  0.0973 -0.2008  0.3884
 5135SOL     OW16214   1.954   1.923   7.152  0.0675 -0.4830 -0.0322
 5135SOL    HW116215   2.010   1.967   7.216 -1.5033 -1.4965  2.2022
 5135SOL    HW216216   1.950   1.832   7.182 -0.7106 -1.0082 -1.6215
 5136SOL     OW16217   4.938   7.850   5.084  0.0857  1.1732  0.5378
 5136SOL    HW116218   4.991   7.838   5.005 -1.1090  0.2362 -0.1603
 5136SOL    HW216219   4.951   7.770   5.134 -0.4953  1.0185  0.4539
 5137SOL     OW16220   5.620   2.551   4.158  0.2902  0.0428 -0.3242
 5137SOL    HW116221   5.626   2.505   4.074 -1.2927 -1.0640  0.1131
 5137SOL    HW216222   5.543   2.513   4.200 -0.4256  2.3437  0.5726
 5138SOL     OW16223   2.385   7.158   3.369 -0.2427 -0.0865  0.0304
 5138SOL    HW116224   2.440   7.087   3.333  1.0317  0.0039  1.6678
 5138SOL    HW216225   2.296   7.125   3.362  0.3454 -2.0637  1.1051
 5139SOL     OW16226   3.075   0.246   3.288  0.2585 -0.4815 -0.1281
 5139SOL    HW116227   3.037   0.269   3.373 -0.2996 -1.3624 -0.1275
 5139SOL    HW216228   3.148   0.307   3.277  0.7294 -0.7558  1.2756
 5140SOL     OW16229   7.183   1.600   4.448  0.1892 -0.0014  0.5907
 5140SOL    HW116230   7.257   1.540   4.450 -0.5324 -0.9110  0.7608
 5140SOL    HW216231   7.144   1.588   4.362  0.5683  0.9095  0.2758
 5141SOL     OW16232   5.166   3.731   4.497 -0.5600  0.2509 -0.0882
 5141SOL    HW116233   5.235   3.665   4.497  0.3799  1.1487 -1.8038
 5141SOL    HW216234   5.180   3.780   4.578  0.0884 -0.3017  0.1416
 5142SOL     OW16235   6.602   5.244   3.104 -0.2952 -0.4946 -0.1607
 5142SOL    HW116236   6.509   5.229   3.089 -0.7117  0.8114  0.8828
 5142SOL    HW216237   6.645   5.209   3.026 -1.9011  1.4774 -2.0783
 5143SOL     OW16238   6.728   4.506   1.123  0.5858  0.1703 -0.0819
 5143SOL    HW116239   6.758   4.513   1.213  0.7705 -2.5274  0.1562
 5143SOL    HW216240   6.784   4.439   1.084 -1.2498 -0.7168 -1.3688
 5144SOL     OW16241   0.674   2.808   1.968  0.2603  0.3234 -0.4716
 5144SOL    HW116242   0.740   2.876   1.973  1.7648 -1.1782  2.7135
 5144SOL    HW216243   0.719   2.728   1.995 -2.6618 -0.9118  1.1964
 5145SOL     OW16244   4.631   3.217   0.009  1.0014  0.0770  0.0470
 5145SOL    HW116245   4.699   3.253   0.066  0.0525 -0.3648  1.4878
 5145SOL    HW216246   4.555   3.206   0.065  0.9597 -3.4485 -0.4707
 5146SOL     OW16247   0.263   0.498   7.778 -0.3332  0.1812  0.1596
 5146SOL    HW116248   0.193   0.564   7.778 -0.2300  0.2933  0.7162
 5146SOL    HW216249   0.311   0.516   7.697 -0.7452  0.3158 -0.0620
 5147SOL     OW16250   1.668   6.756   2.595 -0.3502 -0.1387  0.3602
 5147SOL    HW116251   1.593   6.752   2.655 -1.4027 -1.1029 -0.9394
 5147SOL    HW216252   1.726   6.687   2.626 -0.7152 -0.3981  0.4787
 5148SOL     OW16253   5.558   3.322   2.618 -0.1484 -0.4086  0.2139
 5148SOL    HW116254   5.616   3.344   2.691 -0.5734  0.2660  0.3573
 5148SOL    HW216255   5.491   3.391   2.619 -1.1483 -1.3643  0.2525
 5149SOL     OW16256   2.843   1.760   6.589  0.0675 -0.0088 -0.0894
 5149SOL    HW116257   2.800   1.701   6.651 -1.4944 -0.6309 -1.6710
 5149SOL    HW216258   2.936   1.747   6.604 -0.2269  0.4429  2.6137
 5150SOL     OW16259   7.419   4.654   6.995 -0.4243 -0.2189 -0.0081
 5150SOL    HW116260   7.421   4.607   6.912 -0.0555  0.1145 -0.1948
 5150SOL    HW216261   7.492   4.716   6.989  0.2223 -0.8618  0.9632
 5151SOL     OW16262   6.625   7.771   5.940  0.2544 -0.4825 -0.1740
 5151SOL    HW116263   6.642   7.764   5.846  0.4940  0.9907 -0.2627
 5151SOL    HW216264   6.709   7.749   5.981  0.6451  0.5268 -0.3909
 5152SOL     OW16265   7.049   6.064   0.587 -0.0098  0.2787 -0.3070
 5152SOL    HW116266   7.062   6.055   0.682 -0.3672  0.8153 -0.2048
 5152SOL    HW216267   6.966   6.110   0.579 -0.1841 -0.1308 -0.8939
 5153SOL     OW16268   0.577   0.953   0.203  0.5711 -0.0717 -0.0288
 5153SOL    HW116269   0.670   0.968   0.189  0.4926 -0.0560 -0.5548
 5153SOL    HW216270   0.573   0.876   0.260  0.8881 -0.5921 -0.6941
 5154SOL     OW16271   5.975   1.024   7.213  0.3209  0.1923 -0.0810
 5154SOL    HW116272   6.053   0.970   7.223 -0.3118 -0.5688  0.9707
 5154SOL    HW216273   5.946   1.041   7.303 -1.0930 -0.1009 -0.4600
 5155SOL     OW16274   1.424   1.355   4.799 -0.4016 -0.0357  0.4216
 5155SOL    HW116275   1.505   1.386   4.840 -1.6748  0.1813  2.9716
 5155SOL    HW216276   1.450   1.332   4.710  2.8753 -1.7029  1.6376
 5156SOL     OW16277   4.518   7.920   6.087 -0.1647  0.1385  0.4656
 5156SOL    HW116278   4.551   8.007   6.066  0.5751 -0.3141 -0.3140
 5156SOL    HW216279   4.595   7.863   6.078 -0.4177 -0.4652  1.8834
 5157SOL     OW16280   5.846   6.276   6.402  0.1760 -0.3458 -0.3635
 5157SOL    HW116281   5.828   6.359   6.357  1.4842 -0.0896 -0.4693
 5157SOL    HW216282   5.920   6.239   6.355  0.3652 -1.0058  0.4226
 5158SOL     OW16283   1.891   1.393   2.134 -0.5189  0.5315  0.3445
 5158SOL    HW116284   1.976   1.419   2.171 -0.6651  0.8111  0.4843
 5158SOL    HW216285   1.911   1.314   2.083 -0.6201 -0.8948  2.4051
 5159SOL     OW16286   7.224   7.872   6.617 -0.1143 -0.3560  0.0837
 5159SOL    HW116287   7.158   7.837   6.558 -0.1206  0.8251 -0.6415
 5159SOL    HW216288   7.177   7.889   6.698 -0.4512 -0.5459 -0.0710
 5160SOL     OW16289   0.022   2.747   1.426 -0.3238  0.3158  0.6156
 5160SOL    HW116290   0.079   2.821   1.450  1.8467 -0.9006 -0.4351
 5160SOL    HW216291  -0.058   2.788   1.392  0.7545  2.1955  0.1682
 5161SOL     OW16292   2.356   4.588   1.798 -0.0683 -0.0043  0.3204
 5161SOL    HW116293   2.307   4.664   1.766  0.2831 -0.1493 -0.5766
 5161SOL    HW216294   2.291   4.534   1.843 -0.6765 -0.0637 -0.6239
 5162SOL     OW16295   0.264   3.839   2.284 -0.3087  0.2089 -0.1186
 5162SOL    HW116296   0.174   3.862   2.263 -0.7343  1.9106  2.9341
 5162SOL    HW216297   0.258   3.752   2.323 -1.2231  1.4409  2.7708
 5163SOL     OW16298   1.316   7.548   5.770  0.2114 -0.0602  0.2854
 5163SOL    HW116299   1.400   7.525   5.810  1.3906 -0.5154 -2.2269
 5163SOL    HW216300   1.285   7.466   5.731 -0.2478  0.5584 -0.7051
 5164SOL     OW16301   3.047   6.968   7.006  0.3028 -0.1858  0.1370
 5164SOL    HW116302   3.022   6.881   7.038  1.1053 -0.4579  0.0553
 5164SOL    HW216303   2.990   7.029   7.053  0.3607 -0.6899  0.8710
 5165SOL     OW16304   2.835   0.924   7.859  0.0591 -0.4425  0.4080
 5165SOL    HW116305   2.929   0.906   7.860 -0.0893 -1.4820 -1.1629
 5165SOL    HW216306   2.829   1.019   7.863  1.1523 -0.3823  1.0354
 5166SOL     OW16307   5.194   0.678   1.957  0.7332  0.1203 -0.1935
 5166SOL    HW116308   5.158   0.750   1.904  2.9992  1.4720 -0.0031
 5166SOL    HW216309   5.136   0.604   1.938 -0.9702  1.6448 -1.3448
 5167SOL     OW16310   0.867   1.271   2.908  0.3802  0.6473  0.0615
 5167SOL    HW116311   0.841   1.193   2.859  1.7011 -1.0111  1.8452
 5167SOL    HW216312   0.791   1.328   2.903 -1.2513 -1.3928 -0.0725
 5168SOL     OW16313   3.266   4.364   3.365 -0.2475  0.2783 -0.1409
 5168SOL    HW116314   3.232   4.275   3.373  0.0341 -0.0434 -2.0285
 5168SOL    HW216315   3.354   4.359   3.401 -0.9549  0.3330  1.7087
 5169SOL     OW16316   7.561   7.151   3.169  0.1467 -0.3140  0.2839
 5169SOL    HW116317   7.541   7.131   3.078  2.7157 -0.0388 -0.4389
 5169SOL    HW216318   7.540   7.244   3.179  1.3995  0.0850 -0.5693
 5170SOL     OW16319   1.592   5.011   6.742 -0.1511 -0.4385 -0.1169
 5170SOL    HW116320   1.497   5.019   6.733 -0.2797 -2.1439 -0.7887
 5170SOL    HW216321   1.625   5.026   6.654  0.2821  0.8391  0.2509
 5171SOL     OW16322   4.600   1.284   4.840 -0.0492 -0.5895  0.3811
 5171SOL    HW116323   4.643   1.365   4.867 -0.0567 -0.3043 -0.4382
 5171SOL    HW216324   4.527   1.312   4.785 -0.3919 -1.1328  0.5433
 5172SOL     OW16325   0.824   6.619   6.126  0.1256 -0.3756  0.6337
 5172SOL    HW116326   0.856   6.596   6.213  1.0064  0.6106  0.5845
 5172SOL    HW216327   0.901   6.613   6.069 -0.3344 -0.5121  0.0117
 5173SOL     OW16328   5.677   7.496   5.129  0.1394 -0.7983 -0.1638
 5173SOL    HW116329   5.646   7.548   5.054 -1.0031 -2.0029 -0.5621
 5173SOL    HW216330   5.597   7.465   5.171  0.7884 -1.5085  0.5733
 5174SOL     OW16331   3.612   6.581   5.553  0.5149  0.0148 -0.4399
 5174SOL    HW116332   3.656   6.655   5.510  0.0286 -0.4162 -1.7430
 5174SOL    HW216333   3.523   6.583   5.518  1.2470 -2.9001 -2.8855
 5175SOL     OW16334   2.848   5.934   0.251  0.1545  0.4280 -0.2744
 5175SOL    HW116335   2.829   5.840   0.261 -1.4060  0.6679 -0.6908
 5175SOL    HW216336   2.944   5.940   0.255  0.3745 -1.3641 -1.6907
 5176SOL     OW16337   3.681   6.007   3.797 -0.0194  0.0449 -0.4452
 5176SOL    HW116338   3.694   6.092   3.754  1.4445 -0.1071 -0.3573
 5176SOL    HW216339   3.646   6.029   3.883 -0.2672  0.5190 -0.6610
 5177SOL     OW16340   2.588   6.190   2.051 -0.1583 -0.5858 -0.4848
 5177SOL    HW116341   2.515   6.154   2.102  0.2537 -2.6416 -1.2458
 5177SOL    HW216342   2.628   6.255   2.109 -0.8778 -1.4511  1.0516
 5178SOL     OW16343   4.251   1.106   1.227 -0.0368 -0.8079  1.0473
 5178SOL    HW116344   4.200   1.182   1.255 -0.8588 -1.1814  0.6035
 5178SOL    HW216345   4.196   1.030   1.250 -0.2394 -1.1724 -0.5192
 5179SOL     OW16346   1.448   3.595   6.624  0.2359 -1.0739 -0.0376
 5179SOL    HW116347   1.400   3.662   6.576  1.9010  1.1388  1.2024
 5179SOL    HW216348   1.461   3.524   6.561  0.4584  0.7696 -2.1936
 5180SOL     OW16349   7.744   2.922   5.758 -0.4942 -0.3809  0.3023
 5180SOL    HW116350   7.698   2.950   5.837  0.7679 -0.1323  0.9786
 5180SOL    HW216351   7.705   2.975   5.688 -0.4279  0.6830  1.0385
 5181SOL     OW16352   1.117   2.837   0.196 -0.1099 -0.0288  0.1495
 5181SOL    HW116353   1.155   2.750   0.208  0.4691 -0.0153 -1.3076
 5181SOL    HW216354   1.173   2.878   0.130 -0.7838  1.2001  0.3092
 5182SOL     OW16355   6.332   4.410   3.083  0.0630  0.3458 -0.2854
 5182SOL    HW116356   6.276   4.425   3.006 -0.2410 -0.9601 -0.3461
 5182SOL    HW216357   6.301   4.473   3.148 -1.3393 -0.1752 -0.4024
 5183SOL     OW16358   2.630   3.885   0.777  0.6960  0.5552  0.5217
 5183SOL    HW116359   2.698   3.825   0.745  0.3152  0.0322  0.6857
 5183SOL    HW216360   2.572   3.829   0.829  1.3763  1.3993  2.2623
 5184SOL     OW16361   0.668   2.785   0.387 -0.3828  0.0480 -0.9027
 5184SOL    HW116362   0.600   2.762   0.450  1.4263  0.3652  1.2901
 5184SOL    HW216363   0.669   2.713   0.325 -1.2018 -1.0609  0.3231
 5185SOL     OW16364   6.295   0.901   3.142 -0.0053 -0.7061  0.0206
 5185SOL    HW116365   6.263   0.813   3.122  0.8974 -1.3635  1.3291
 5185SOL    HW216366   6.365   0.916   3.078  0.6932 -1.4790  0.5707
 5186SOL     OW16367   7.954   4.706   3.578  0.5435  0.0005 -0.2005
 5186SOL    HW116368   8.028   4.680   3.632  1.1021 -0.0726 -0.9965
 5186SOL    HW216369   7.972   4.669   3.492  0.1296  0.9150 -0.6984
 5187SOL     OW16370   1.654   2.789   2.501 -0.6645  0.4371 -0.1352
 5187SOL    HW116371   1.688   2.858   2.559  1.5183 -1.8586  1.5126
 5187SOL    HW216372   1.573   2.826   2.466 -0.4196  3.2200  1.8472
 5188SOL     OW16373   4.636   0.787   4.046 -0.0874 -0.2467  0.1329
 5188SOL    HW116374   4.573   0.721   4.071 -1.4958  0.6935 -0.7914
 5188SOL    HW216375   4.687   0.804   4.125 -1.9177 -0.0373  1.3209
 5189SOL     OW16376   4.908   5.800   4.293  0.7051  0.0383  0.6244
 5189SOL    HW116377   4.998   5.767   4.297  0.0312 -1.9304  0.6652
 5189SOL    HW216378   4.899   5.854   4.372  1.1278 -1.7917  2.0097
 5190SOL     OW16379   4.473   5.357   7.991  0.3694  0.6841  0.3263
 5190SOL    HW116380   4.562   5.327   8.009  0.3546  1.5987  2.1509
 5190SOL    HW216381   4.455   5.327   7.902  2.0451 -0.5736  0.3656
 5191SOL     OW16382   3.614   5.061   3.295 -0.1069 -0.2064 -0.8202
 5191SOL    HW116383   3.592   5.050   3.388 -0.5241 -2.3892 -1.1179
 5191SOL    HW216384   3.708   5.048   3.291 -0.3612 -2.2316 -0.9296
 5192SOL     OW16385   6.370   7.388   1.639 -0.2687  0.8232 -0.0285
 5192SOL    HW116386   6.427   7.450   1.594  3.4737 -2.2415 -0.0363
 5192SOL    HW216387   6.356   7.427   1.726  3.5799  0.9920  0.6748
 5193SOL     OW16388   0.573   0.363   7.712  0.5588  0.2329  0.2073
 5193SOL    HW116389   0.568   0.421   7.788  1.2110  1.4912 -0.6723
 5193SOL    HW216390   0.660   0.379   7.675  0.5633 -0.9631 -0.3421
 5194SOL     OW16391   7.572   2.978   2.787  0.1270  0.7408 -0.1006
 5194SOL    HW116392   7.546   2.888   2.808  0.9022  0.8382  1.4008
 5194SOL    HW216393   7.514   3.033   2.840  0.1883  1.1074 -0.4080
 5195SOL     OW16394   0.995   0.504   4.314  0.0956 -0.0939 -0.3135
 5195SOL    HW116395   1.028   0.552   4.390  1.7800  0.6401 -1.4320
 5195SOL    HW216396   0.934   0.441   4.350  0.3950  0.6285  1.5833
 5196SOL     OW16397   6.450   1.112   4.530 -0.1933  0.3722 -0.1953
 5196SOL    HW116398   6.357   1.104   4.551 -0.2091 -1.5488 -0.8372
 5196SOL    HW216399   6.470   1.204   4.547 -1.9413  0.5834  0.9995
 5197SOL     OW16400   3.983   6.749   4.678 -0.0033  0.0685 -0.0628
 5197SOL    HW116401   3.985   6.675   4.617 -1.4424 -2.5456  2.7377
 5197SOL    HW216402   4.069   6.749   4.718  0.2979  0.5223 -0.6987
 5198SOL     OW16403   3.101   7.341   3.264  0.3873 -0.5000  0.1480
 5198SOL    HW116404   3.161   7.283   3.217 -1.0812 -4.0312  2.2691
 5198SOL    HW216405   3.152   7.376   3.337  0.5619 -1.3730  0.4439
 5199SOL     OW16406   5.898   0.504   3.512 -0.2365  0.0493 -0.3575
 5199SOL    HW116407   5.989   0.509   3.543 -0.4967 -1.8448  0.9024
 5199SOL    HW216408   5.852   0.569   3.564  0.2603  0.4631 -0.4292
 5200SOL     OW16409   3.454   2.431   0.597  0.1580 -0.3953  0.5813
 5200SOL    HW116410   3.424   2.499   0.658  0.0096  0.6028 -0.5381
 5200SOL    HW216411   3.537   2.465   0.563  0.2816 -0.9675  0.3090
 5201SOL     OW16412   3.211   5.085   5.197  0.0032  0.0387 -0.2419
 5201SOL    HW116413   3.221   5.169   5.152  0.0359  0.3165  0.2790
 5201SOL    HW216414   3.274   5.088   5.269 -0.9329  0.1159  0.5896
 5202SOL     OW16415   4.985   4.019   3.415 -0.3733 -0.2118 -0.2222
 5202SOL    HW116416   5.028   4.103   3.399 -1.3205  0.3740  0.1833
 5202SOL    HW216417   4.894   4.034   3.389 -0.2181 -1.6123 -1.6909
 5203SOL     OW16418   1.857   6.429   3.127  0.4286 -0.2048 -0.0069
 5203SOL    HW116419   1.768   6.396   3.139 -0.7242  2.8286  0.6429
 5203SOL    HW216420   1.846   6.524   3.117  3.6537  0.3290  0.6263
 5204SOL     OW16421   2.120   3.632   4.766 -0.2666  0.3752  0.1345
 5204SOL    HW116422   2.068   3.663   4.840 -0.7328 -0.8827  0.3457
 5204SOL    HW216423   2.195   3.588   4.807  0.1023  0.7045 -0.1674
 5205SOL     OW16424   4.559   6.583   0.462 -0.6114  0.4561 -0.9675
 5205SOL    HW116425   4.570   6.528   0.384  0.5297 -0.4409 -0.2063
 5205SOL    HW216426   4.636   6.564   0.516 -0.8914  1.7864 -0.0496
 5206SOL     OW16427   0.651   4.586   6.642  0.5846  0.3905 -0.5190
 5206SOL    HW116428   0.634   4.533   6.721  0.3638 -1.3339 -1.6621
 5206SOL    HW216429   0.719   4.537   6.596  0.7363  1.4004 -1.3847
 5207SOL     OW16430   6.666   5.555   0.252  0.5211  0.1876  0.4486
 5207SOL    HW116431   6.653   5.470   0.295  1.0608 -0.3366 -0.4009
 5207SOL    HW216432   6.720   5.604   0.313  0.7216 -0.3033  0.6765
 5208SOL     OW16433   3.279   3.210   7.556  0.1630 -0.4669 -0.2570
 5208SOL    HW116434   3.198   3.194   7.507 -0.7102  1.1910  0.5542
 5208SOL    HW216435   3.251   3.216   7.647  0.6775  2.7390 -0.1905
 5209SOL     OW16436   4.612   4.829   7.372  0.3486  0.2258 -0.0523
 5209SOL    HW116437   4.547   4.897   7.391 -0.0731 -0.3674  0.6807
 5209SOL    HW216438   4.611   4.772   7.449 -0.5356 -1.5543 -1.2983
 5210SOL     OW16439   1.105   7.287   4.719 -0.0807 -0.0807  0.1213
 5210SOL    HW116440   1.014   7.268   4.698 -0.2827 -0.5096  1.3266
 5210SOL    HW216441   1.119   7.249   4.806  1.9014 -2.1170 -0.9761
 5211SOL     OW16442   2.851   3.058   1.346 -0.0633  0.2154  0.2320
 5211SOL    HW116443   2.768   3.022   1.376  0.9533 -0.9302  1.7903
 5211SOL    HW216444   2.847   3.052   1.250 -1.9070  0.5661  0.2637
 5212SOL     OW16445   1.641   2.720   2.819  0.3256  0.3226  0.2099
 5212SOL    HW116446   1.716   2.771   2.787 -0.0143  0.4777 -0.3631
 5212SOL    HW216447   1.586   2.783   2.865  0.9020  0.0647  1.2886
 5213SOL     OW16448   1.975   6.300   5.595  0.0295  0.6986 -0.6806
 5213SOL    HW116449   1.961   6.226   5.536  1.5346 -2.5026  2.5971
 5213SOL    HW216450   1.887   6.334   5.613 -0.6323  0.3302 -2.8825
 5214SOL     OW16451   1.058   6.629   7.223  0.2665 -0.0859  0.0066
 5214SOL    HW116452   1.100   6.706   7.185  0.3431 -0.3196 -0.3823
 5214SOL    HW216453   0.983   6.665   7.271  0.1635  0.2089 -0.3669
 5215SOL     OW16454   4.983   6.641   6.111 -0.5377  0.8197  0.1896
 5215SOL    HW116455   4.926   6.655   6.186  0.2728  0.0685  0.9716
 5215SOL    HW216456   4.951   6.561   6.070  0.2697  0.0930  0.9512
 5216SOL     OW16457   7.829   0.615   0.428 -0.6858 -0.1545 -0.6641
 5216SOL    HW116458   7.788   0.559   0.361 -1.1398 -0.2532 -0.3090
 5216SOL    HW216459   7.836   0.559   0.505 -0.0462 -0.0792 -0.6622
 5217SOL     OW16460   4.401   3.185   5.233 -1.2020  0.8222 -0.1598
 5217SOL    HW116461   4.403   3.242   5.156  1.6448  1.6608  0.4023
 5217SOL    HW216462   4.446   3.105   5.205 -0.1142  1.1483  0.5835
 5218SOL     OW16463   1.239   5.967   4.712 -0.0361 -0.0672  0.0707
 5218SOL    HW116464   1.269   5.906   4.645  0.2304  0.0673  0.0689
 5218SOL    HW216465   1.143   5.961   4.708 -0.0330  0.3064 -0.6615
 5219SOL     OW16466   0.287   3.518   6.076  0.0844 -0.6666  0.1788
 5219SOL    HW116467   0.249   3.575   6.143  0.0561 -0.6408  0.1409
 5219SOL    HW216468   0.222   3.516   6.006  0.5266  0.0958 -0.2805
 5220SOL     OW16469   7.715   6.178   1.470 -0.1811  0.2412  0.4631
 5220SOL    HW116470   7.653   6.128   1.524 -1.4559  0.4061 -0.7913
 5220SOL    HW216471   7.756   6.239   1.531  0.0258 -1.0461  1.6612
 5221SOL     OW16472   7.227   5.151   1.178  0.0977  0.2188 -0.3511
 5221SOL    HW116473   7.199   5.239   1.152  0.2803  0.3049 -0.2598
 5221SOL    HW216474   7.188   5.138   1.264 -0.6711 -0.1438 -0.7431
 5222SOL     OW16475   1.620   3.733   2.900 -0.4623 -0.2375 -0.3790
 5222SOL    HW116476   1.549   3.693   2.951 -0.7938  0.4642 -0.2739
 5222SOL    HW216477   1.575   3.791   2.838  0.0169  0.2682 -0.2674
 5223SOL     OW16478   7.281   7.824   2.159 -0.5409 -0.3580 -0.1304
 5223SOL    HW116479   7.208   7.764   2.171  0.9131 -1.8317  2.2711
 5223SOL    HW216480   7.261   7.898   2.216 -0.0533 -0.9328  0.8191
 5224SOL     OW16481   6.096   4.180   6.984 -1.3177  0.3526 -0.2248
 5224SOL    HW116482   6.153   4.257   6.976 -1.0683  0.2506  0.4781
 5224SOL    HW216483   6.156   4.105   6.979 -1.5255  0.2116 -0.6273
 5225SOL     OW16484   3.392   2.256   2.114  0.2698 -0.7304 -0.5245
 5225SOL    HW116485   3.354   2.324   2.169 -0.1131 -0.5694 -0.9802
 5225SOL    HW216486   3.479   2.289   2.091  0.8079 -1.2182  0.7345
 5226SOL     OW16487   5.678   1.413   6.681  0.3349  0.0148  0.1992
 5226SOL    HW116488   5.668   1.503   6.650 -0.2739  0.2708  1.0946
 5226SOL    HW216489   5.653   1.359   6.606 -2.4524  0.6239  0.5933
 5227SOL     OW16490   0.359   4.354   7.367  0.5064 -1.0111 -0.1348
 5227SOL    HW116491   0.298   4.304   7.313  1.0019 -1.9412  0.1459
 5227SOL    HW216492   0.374   4.434   7.318 -1.3804 -0.4945  0.0601
 5228SOL     OW16493   6.047   3.805   4.204  0.3381 -0.0131  0.2010
 5228SOL    HW116494   6.058   3.710   4.212  0.9971 -0.2204 -2.2365
 5228SOL    HW216495   6.133   3.841   4.220  0.4061  0.0233 -0.2166
 5229SOL     OW16496   0.350   1.845   6.578  0.2175  0.1093 -0.4921
 5229SOL    HW116497   0.362   1.791   6.657 -0.4385  0.4056 -0.1854
 5229SOL    HW216498   0.430   1.830   6.527  0.6238 -0.1360  0.1969
 5230SOL     OW16499   1.000   3.552   4.026 -0.2787 -0.1982 -0.1818
 5230SOL    HW116500   1.043   3.483   4.076  0.0485 -0.4785 -0.8311
 5230SOL    HW216501   1.071   3.612   4.003 -0.6855  0.7820  1.0376
 5231SOL     OW16502   1.223   1.025   4.128  0.0014  0.5995 -0.0744
 5231SOL    HW116503   1.304   1.025   4.180  0.3487 -2.8024 -0.4330
 5231SOL    HW216504   1.164   0.967   4.174 -1.0592  0.4656 -1.5254
 5232SOL     OW16505   4.983   5.709   5.801 -0.5754 -0.0553 -0.4367
 5232SOL    HW116506   4.906   5.748   5.760 -1.2800 -0.0101  0.8728
 5232SOL    HW216507   4.999   5.763   5.878 -0.1106 -0.9202  0.0863
 5233SOL     OW16508   0.891   2.328   6.224 -0.0508  0.3481 -0.5258
 5233SOL    HW116509   0.843   2.343   6.306 -0.6037 -0.9047 -0.6076
 5233SOL    HW216510   0.825   2.339   6.156 -0.3387 -1.6273 -0.6267
 5234SOL     OW16511   1.783   2.931   2.194 -0.1981 -0.1303  0.6991
 5234SOL    HW116512   1.725   2.964   2.262 -0.7347 -3.1363  1.8560
 5234SOL    HW216513   1.728   2.875   2.139  0.9105 -0.3268 -0.2656
 5235SOL     OW16514   1.111   1.188   1.885 -0.5974  0.0873  0.2696
 5235SOL    HW116515   1.111   1.093   1.886  0.0472  0.0769  0.0089
 5235SOL    HW216516   1.192   1.213   1.930 -0.8504  0.5108  0.4969
 5236SOL     OW16517   2.375   6.798   6.372 -0.0298  0.5612  0.2387
 5236SOL    HW116518   2.412   6.831   6.290 -2.0041 -0.7655 -1.2965
 5236SOL    HW216519   2.397   6.705   6.371 -0.3199  0.4822  1.0835
 5237SOL     OW16520   7.893   3.004   1.831 -0.1116  0.1607 -0.0053
 5237SOL    HW116521   7.913   3.043   1.745  1.3370  0.0820  0.2787
 5237SOL    HW216522   7.965   3.033   1.887 -1.2857  0.5961  1.3195
 5238SOL     OW16523   5.112   5.679   3.401  0.0292 -0.4785 -0.3275
 5238SOL    HW116524   5.093   5.741   3.331  0.9282  0.7395  0.4693
 5238SOL    HW216525   5.198   5.704   3.434  0.3545 -2.0631  0.1380
 5239SOL     OW16526   1.083   4.241   0.042 -0.3670  0.0278  0.2178
 5239SOL    HW116527   1.018   4.179   0.009 -1.1206  0.5745  0.6473
 5239SOL    HW216528   1.059   4.254   0.134 -1.0774  1.9912 -0.1878
 5240SOL     OW16529   2.319   6.328   6.838 -0.5876 -0.5763  0.2391
 5240SOL    HW116530   2.359   6.284   6.913  2.1305 -1.4601 -1.5605
 5240SOL    HW216531   2.228   6.341   6.863  0.7183  1.8438  4.8759
 5241SOL     OW16532   0.831   4.689   3.568 -0.1190  0.0458  0.4713
 5241SOL    HW116533   0.777   4.749   3.516 -1.3038 -0.9106  0.5495
 5241SOL    HW216534   0.919   4.699   3.533 -0.9981 -1.2335 -2.4228
 5242SOL     OW16535   7.518   2.090   2.766 -0.3915  0.0675  0.2397
 5242SOL    HW116536   7.609   2.115   2.781  0.1483 -1.7392  0.2880
 5242SOL    HW216537   7.474   2.110   2.848  0.1147  0.3266  0.4564
 5243SOL     OW16538   1.464   6.932   0.112 -0.4095 -0.3149 -0.0442
 5243SOL    HW116539   1.540   6.923   0.168 -0.3568  1.1049  0.1496
 5243SOL    HW216540   1.390   6.907   0.167 -0.3195  0.6917  0.5484
 5244SOL     OW16541   0.102   4.337   3.825  0.9359  0.5771 -0.0206
 5244SOL    HW116542   0.189   4.351   3.861  1.6310 -0.4429 -1.2384
 5244SOL    HW216543   0.103   4.382   3.741  0.9506 -1.0290 -0.9098
 5245SOL     OW16544   6.271   1.880   2.034 -0.0103  0.2999 -0.1261
 5245SOL    HW116545   6.224   1.956   1.998 -0.1191 -0.1116 -0.8840
 5245SOL    HW216546   6.216   1.805   2.010 -0.2724  0.0297  1.2426
 5246SOL     OW16547   6.462   6.975   7.728 -0.3585  0.7994  0.3312
 5246SOL    HW116548   6.465   6.927   7.811  1.0030  1.4685  0.6914
 5246SOL    HW216549   6.370   6.973   7.703 -0.6284 -0.3519  1.3008
 5247SOL     OW16550   1.166   1.884   2.828  0.5779  0.3640  0.2133
 5247SOL    HW116551   1.093   1.887   2.766  0.5467  0.7999  0.2713
 5247SOL    HW216552   1.241   1.917   2.779  0.4803  1.0263  0.5071
 5248SOL     OW16553   7.389   0.719   6.109  0.1382 -0.0350  0.2407
 5248SOL    HW116554   7.466   0.666   6.129 -1.8866 -2.1301  3.4859
 5248SOL    HW216555   7.398   0.796   6.166 -0.3998 -0.6041  1.1252
 5249SOL     OW16556   6.645   7.662   4.942 -0.0410  0.7075 -0.0711
 5249SOL    HW116557   6.616   7.578   4.978 -0.3203  2.1131  3.2921
 5249SOL    HW216558   6.574   7.689   4.884 -1.0734 -0.2510  0.6971
 5250SOL     OW16559   3.876   0.178   4.436 -0.2902 -0.8282  0.4087
 5250SOL    HW116560   3.896   0.269   4.415 -0.9098 -0.6554  0.5619
 5250SOL    HW216561   3.906   0.167   4.526  0.1410 -0.8872  0.2597
 5251SOL     OW16562   1.300   5.613   7.304  0.0512 -0.2520  0.3464
 5251SOL    HW116563   1.351   5.637   7.381  0.6471  0.7026 -0.3125
 5251SOL    HW216564   1.363   5.616   7.232 -0.4133 -1.4644 -0.1373
 5252SOL     OW16565   1.967   5.185   1.181 -0.2477 -0.4665  0.0240
 5252SOL    HW116566   2.027   5.204   1.253  1.3652 -1.9172 -0.8920
 5252SOL    HW216567   1.923   5.104   1.208 -0.5376 -0.3484 -0.0936
 5253SOL     OW16568   5.180   7.875   4.887  0.1696  0.4612  0.1956
 5253SOL    HW116569   5.225   7.790   4.887 -2.7071 -1.1889 -0.1990
 5253SOL    HW216570   5.171   7.896   4.794  1.7412  1.7892  0.2950
 5254SOL     OW16571   2.572   0.408   0.061 -0.0770  0.0088 -0.0838
 5254SOL    HW116572   2.477   0.419   0.062  0.0462  1.4774  1.3517
 5254SOL    HW216573   2.606   0.496   0.078  1.5223 -0.6056  0.0835
 5255SOL     OW16574   5.158   3.358   5.637 -0.2089 -0.1585 -0.0438
 5255SOL    HW116575   5.113   3.310   5.707 -0.8293  1.0131  0.3781
 5255SOL    HW216576   5.245   3.375   5.673  0.1359 -1.2212 -0.3243
 5256SOL     OW16577   3.175   4.731   5.937  0.6168 -0.2843  0.2165
 5256SOL    HW116578   3.126   4.651   5.916  0.0265  0.5177 -1.6354
 5256SOL    HW216579   3.244   4.735   5.871  1.3243  0.1899  0.9585
 5257SOL     OW16580   6.829   3.290   6.524 -0.2750 -0.1589  0.0235
 5257SOL    HW116581   6.865   3.326   6.605 -0.3810  0.2875 -0.1238
 5257SOL    HW216582   6.884   3.214   6.505  1.7179  1.4211 -1.0694
 5258SOL     OW16583   5.502   2.975   3.308  0.0035 -0.0707  0.0949
 5258SOL    HW116584   5.533   2.989   3.397 -1.6355 -1.5155  0.9320
 5258SOL    HW216585   5.473   2.884   3.305 -2.3438  0.6255 -1.1435
 5259SOL     OW16586   2.660   4.057   2.645 -0.0284 -0.2528 -0.2352
 5259SOL    HW116587   2.701   3.985   2.596  1.0872  0.7399 -0.8221
 5259SOL    HW216588   2.675   4.035   2.736  1.2757 -0.2502 -0.4278
 5260SOL     OW16589   4.568   5.406   7.008 -0.0292 -0.5737 -0.4348
 5260SOL    HW116590   4.541   5.423   7.098 -0.7151 -0.1245 -0.7194
 5260SOL    HW216591   4.592   5.313   7.008  0.3049 -0.4942  0.2874
 5261SOL     OW16592   1.415   5.148   7.735 -0.2088  0.1959 -0.1336
 5261SOL    HW116593   1.341   5.090   7.751  1.2169 -0.8731  3.5043
 5261SOL    HW216594   1.386   5.233   7.769  0.4526 -0.4461  2.1767
 5262SOL     OW16595   3.580   5.476   2.232  0.2024 -0.5454 -0.2734
 5262SOL    HW116596   3.533   5.413   2.178  0.1641  0.5055 -1.5244
 5262SOL    HW216597   3.584   5.555   2.178 -1.2992  1.1245  1.9050
 5263SOL     OW16598   2.322   3.487   0.418 -0.7606  0.7061  0.7513
 5263SOL    HW116599   2.381   3.468   0.491 -0.2356 -0.7400 -0.0180
 5263SOL    HW216600   2.360   3.564   0.375  0.7843 -0.3963  0.0757
 5264SOL     OW16601   3.810   1.486   5.424  0.0018 -0.2915  0.3975
 5264SOL    HW116602   3.875   1.528   5.481  0.1223  1.6883 -1.1006
 5264SOL    HW216603   3.795   1.550   5.354 -2.1298 -1.5180 -0.3397
 5265SOL     OW16604   7.084   7.572   0.521  0.0563 -0.1108  0.8232
 5265SOL    HW116605   7.110   7.647   0.466 -0.1416 -0.7731 -0.1969
 5265SOL    HW216606   7.125   7.497   0.479 -0.2159 -0.6500  1.5170
 5266SOL     OW16607   0.289   5.297   2.147 -0.5673  0.4093  0.1008
 5266SOL    HW116608   0.230   5.229   2.115  2.3341 -2.1604 -0.2332
 5266SOL    HW216609   0.350   5.312   2.075  0.4167  1.4585  1.1023
 5267SOL     OW16610   1.976   1.904   3.455  0.1995 -0.1048 -0.4946
 5267SOL    HW116611   1.961   1.994   3.485  0.0080  0.3202 -1.8301
 5267SOL    HW216612   2.053   1.909   3.399 -0.1363 -0.6682 -1.0233
 5268SOL     OW16613   2.119   6.114   7.892  0.6430 -0.6229  0.0587
 5268SOL    HW116614   2.112   6.045   7.826 -0.3883 -0.9579  0.5085
 5268SOL    HW216615   2.068   6.187   7.856 -0.5293 -1.0578  0.7839
 5269SOL     OW16616   3.858   6.483   7.213  0.4825  0.1031 -0.1030
 5269SOL    HW116617   3.772   6.499   7.175  0.4299 -0.3879 -0.2017
 5269SOL    HW216618   3.903   6.430   7.147  0.4143 -0.7007  0.4899
 5270SOL     OW16619   3.338   0.958   7.526  0.1935 -0.0588  0.0963
 5270SOL    HW116620   3.431   0.953   7.503 -0.1678  0.0219 -1.4982
 5270SOL    HW216621   3.312   0.868   7.540  0.1880 -0.2209 -0.8985
 5271SOL     OW16622   0.677   7.978   2.829  0.1415 -0.0496 -0.1825
 5271SOL    HW116623   0.619   7.961   2.903 -0.0862 -0.3198 -0.4211
 5271SOL    HW216624   0.644   8.060   2.792 -1.0044 -0.9340 -1.1891
 5272SOL     OW16625   4.321   2.169   1.234  0.7334  0.0401  0.2274
 5272SOL    HW116626   4.268   2.107   1.183  1.1051  1.3229 -1.8199
 5272SOL    HW216627   4.272   2.251   1.231  1.2823  0.4113  1.0740
 5273SOL     OW16628   6.968   7.101   0.197 -0.4668  0.5718  0.6801
 5273SOL    HW116629   6.973   7.194   0.175  0.9584  0.3945  0.1775
 5273SOL    HW216630   7.058   7.075   0.217 -1.0396 -0.3711  2.2841
 5274SOL     OW16631   6.998   2.270   6.330  0.2739 -0.4875  0.1045
 5274SOL    HW116632   7.027   2.199   6.272 -0.4195 -0.1255 -0.7061
 5274SOL    HW216633   6.911   2.243   6.360  0.1843 -0.1769  0.1290
 5275SOL     OW16634   6.087   0.774   2.085 -0.0736  0.3657  0.0989
 5275SOL    HW116635   6.118   0.684   2.092  0.5256  0.5779  0.2766
 5275SOL    HW216636   6.049   0.792   2.171  0.8300  0.6435  0.4524
 5276SOL     OW16637   4.283   2.243   5.033  0.5182  0.0852  0.1568
 5276SOL    HW116638   4.251   2.307   4.970  1.1203  1.2401  1.0000
 5276SOL    HW216639   4.211   2.233   5.095  0.6964  0.5110  0.4366
 5277SOL     OW16640   7.198   2.435   0.637 -0.0321  0.0725  0.1144
 5277SOL    HW116641   7.169   2.355   0.593  0.4695  0.5383 -1.1185
 5277SOL    HW216642   7.143   2.441   0.714 -0.0201 -1.5094  0.2844
 5278SOL     OW16643   3.565   2.147   3.026 -0.2948  0.2665 -0.2551
 5278SOL    HW116644   3.554   2.073   2.966  1.1331  2.1136 -2.9860
 5278SOL    HW216645   3.659   2.167   3.021 -0.3427  1.1819  1.8083
 5279SOL     OW16646   7.723   0.329   3.526 -0.3343  0.0835  0.0956
 5279SOL    HW116647   7.814   0.357   3.540  0.2448 -2.5832  2.5371
 5279SOL    HW216648   7.727   0.271   3.451  0.0202 -0.1661  0.3042
 5280SOL     OW16649   5.866   0.174   5.993 -0.0289 -0.5983 -0.2228
 5280SOL    HW116650   5.785   0.167   5.942 -0.8166 -0.2352  0.9263
 5280SOL    HW216651   5.929   0.215   5.934 -1.2937  1.0510 -0.4836
 5281SOL     OW16652   1.011   5.660   6.846  0.3640 -0.2370 -0.4281
 5281SOL    HW116653   1.010   5.732   6.783  2.2674 -0.0598 -0.3227
 5281SOL    HW216654   0.938   5.604   6.820 -0.1997  0.9315 -1.4605
 5282SOL     OW16655   6.193   1.530   1.596  0.0484 -0.0841  0.2317
 5282SOL    HW116656   6.269   1.522   1.655  0.9475  0.9733 -0.7533
 5282SOL    HW216657   6.161   1.619   1.609  0.6130  0.3705 -1.2608
 5283SOL     OW16658   3.862   0.018   5.345 -0.5915  0.1896 -0.1991
 5283SOL    HW116659   3.909  -0.041   5.288  1.2529  1.8644 -0.5054
 5283SOL    HW216660   3.868  -0.023   5.432 -1.3965 -1.1929 -0.7591
 5284SOL     OW16661   5.887   1.638   5.467  0.2763  0.2271 -0.0712
 5284SOL    HW116662   5.944   1.653   5.391  0.2388  0.5927 -0.0265
 5284SOL    HW216663   5.823   1.708   5.464  0.4526  0.4179  0.4666
 5285SOL     OW16664   7.263   2.112   6.573  0.0148  0.1450 -0.1934
 5285SOL    HW116665   7.264   2.033   6.626  0.9831  0.2185 -0.0911
 5285SOL    HW216666   7.177   2.111   6.530 -0.5934 -0.1656  0.9904
 5286SOL     OW16667   6.356   0.228   6.187  0.4036  0.0597  0.1599
 5286SOL    HW116668   6.276   0.174   6.189  0.9536 -1.0011 -2.2922
 5286SOL    HW216669   6.427   0.164   6.182  1.3128  1.0152  0.7188
 5287SOL     OW16670   5.631   1.259   1.085 -0.1785 -0.0256 -0.1207
 5287SOL    HW116671   5.551   1.220   1.122 -0.2957  0.7259  0.4373
 5287SOL    HW216672   5.651   1.332   1.143  0.5642  0.1821 -0.6268
 5288SOL     OW16673   3.589   7.161   1.327  0.0264  0.1538  0.2758
 5288SOL    HW116674   3.527   7.216   1.281 -1.4899 -1.6277  0.0549
 5288SOL    HW216675   3.560   7.162   1.418  0.3021  0.1100  0.3669
 5289SOL     OW16676   2.598   3.752   1.840 -0.5305  0.0288  0.3804
 5289SOL    HW116677   2.615   3.737   1.747 -0.6814 -0.4276  0.4238
 5289SOL    HW216678   2.676   3.718   1.884  0.4936  2.1218  0.3152
 5290SOL     OW16679   4.238   7.680   7.253  0.6979  0.0535  0.3880
 5290SOL    HW116680   4.186   7.651   7.179 -0.5337 -0.6564  1.4965
 5290SOL    HW216681   4.289   7.603   7.278 -0.0977 -0.2042  1.2646
 5291SOL     OW16682   1.273   6.833   2.522 -0.7962 -0.1971 -0.4312
 5291SOL    HW116683   1.237   6.919   2.544 -0.1933 -0.2753  0.9550
 5291SOL    HW216684   1.342   6.852   2.458  0.6228  0.6004  1.2489
 5292SOL     OW16685   1.052   3.313   2.400  0.1051 -0.5061  0.3438
 5292SOL    HW116686   1.075   3.232   2.355 -2.6467 -0.4940 -1.3042
 5292SOL    HW216687   0.987   3.287   2.466 -0.7292  0.3145 -0.1320
 5293SOL     OW16688   3.203   7.954   6.482 -0.1970  0.1608  0.1400
 5293SOL    HW116689   3.287   7.997   6.465 -1.3991  1.4161 -3.5861
 5293SOL    HW216690   3.212   7.868   6.441 -0.0443 -0.6840  1.8250
 5294SOL     OW16691   5.467   4.305   6.317 -0.2675  0.0158 -0.3669
 5294SOL    HW116692   5.412   4.352   6.380 -1.9237 -0.9405 -1.0433
 5294SOL    HW216693   5.501   4.374   6.260 -1.1543  0.5821 -0.2306
 5295SOL     OW16694   6.236   6.752   1.112  0.5606 -0.3363  0.7452
 5295SOL    HW116695   6.225   6.668   1.066 -0.2718  0.7700 -1.1752
 5295SOL    HW216696   6.317   6.741   1.163  0.2602 -2.4283  0.8751
 5296SOL     OW16697   5.012   4.379   1.815  0.6204  0.3246 -0.4104
 5296SOL    HW116698   4.944   4.428   1.861  1.3218  0.0191  1.0239
 5296SOL    HW216699   4.971   4.297   1.790  0.3098  0.3634 -0.0340
 5297SOL     OW16700   0.822   7.295   1.771 -0.6591  0.0622 -0.2861
 5297SOL    HW116701   0.890   7.265   1.711 -1.8933 -0.5358 -1.4482
 5297SOL    HW216702   0.769   7.217   1.788 -1.0955  0.5221  0.5590
 5298SOL     OW16703   3.737   2.745   1.618 -0.3192  0.5274 -0.0919
 5298SOL    HW116704   3.813   2.686   1.617  0.3722  1.2335 -3.6147
 5298SOL    HW216705   3.773   2.829   1.647  0.6124  1.1052 -2.6463
 5299SOL     OW16706   0.291   5.732   6.494 -0.4519  0.2216 -0.0632
 5299SOL    HW116707   0.363   5.765   6.549 -1.4419  2.0978  0.1992
 5299SOL    HW216708   0.247   5.668   6.550 -0.8717  1.4090  1.0312
 5300SOL     OW16709   1.859   0.314   3.188  0.3424  0.0489 -0.4407
 5300SOL    HW116710   1.947   0.351   3.200  0.2046  0.3709 -0.4176
 5300SOL    HW216711   1.804   0.363   3.249 -0.0366  0.5150 -1.1413
 5301SOL     OW16712   1.156   7.731   4.228  0.1937 -0.2114 -0.0205
 5301SOL    HW116713   1.145   7.812   4.178 -0.0648 -0.5761 -0.5625
 5301SOL    HW216714   1.091   7.737   4.298  1.4887  0.9376  1.1343
 5302SOL     OW16715   6.466   6.982   2.946 -0.3614  0.0471 -0.1984
 5302SOL    HW116716   6.393   7.030   2.906 -1.3137  0.3954  1.8424
 5302SOL    HW216717   6.449   6.890   2.925 -0.9029  0.2057 -0.4722
 5303SOL     OW16718   4.748   1.638   0.835 -0.1255 -0.3741 -0.1801
 5303SOL    HW116719   4.761   1.706   0.769  0.7819 -2.6524 -2.4771
 5303SOL    HW216720   4.810   1.569   0.813 -0.8843 -1.9491  2.1362
 5304SOL     OW16721   3.930   3.786   3.592 -0.5528  0.0095 -0.5873
 5304SOL    HW116722   3.876   3.765   3.515 -1.3035  1.1447 -0.3942
 5304SOL    HW216723   3.884   3.745   3.665 -1.8155  1.8531 -0.2648
 5305SOL     OW16724   5.939   4.840   4.436 -0.0252  0.0665 -0.2717
 5305SOL    HW116725   5.872   4.772   4.435 -0.4375  0.4636 -0.9419
 5305SOL    HW216726   6.013   4.802   4.389 -0.6297  0.4165 -1.5667
 5306SOL     OW16727   1.033   0.982   2.228  0.0967  0.5704 -0.0862
 5306SOL    HW116728   1.047   0.982   2.134 -0.0230 -3.8616 -0.3230
 5306SOL    HW216729   0.948   1.023   2.240  0.2471  1.4879 -1.8206
 5307SOL     OW16730   3.598   3.376   1.765  0.5490 -0.3721 -0.1978
 5307SOL    HW116731   3.532   3.425   1.815  1.2295  0.8605 -0.4487
 5307SOL    HW216732   3.647   3.327   1.831 -0.1691 -0.7542  0.0594
 5308SOL     OW16733   1.776   3.011   0.572  0.2082 -0.2405  0.0205
 5308SOL    HW116734   1.797   3.097   0.537 -0.2094 -0.1422  0.0100
 5308SOL    HW216735   1.727   2.968   0.502 -1.0627  0.1341  0.6670
 5309SOL     OW16736   0.359   5.208   7.252 -0.1258  0.3523 -0.3180
 5309SOL    HW116737   0.349   5.157   7.333 -0.0742  0.0429 -0.5070
 5309SOL    HW216738   0.356   5.299   7.281 -1.1541  0.2541 -0.0878
 5310SOL     OW16739   1.207   6.782   7.542  0.3957 -0.3322  0.8508
 5310SOL    HW116740   1.189   6.688   7.545 -0.1471 -0.2051  2.2763
 5310SOL    HW216741   1.218   6.808   7.633  3.8412  0.4166  0.3737
 5311SOL     OW16742   4.164   0.528   7.679 -0.2399 -0.6005 -0.4375
 5311SOL    HW116743   4.078   0.516   7.641  0.2570  1.0832 -2.2155
 5311SOL    HW216744   4.213   0.449   7.655 -0.7408 -0.7427 -0.9873
 5312SOL     OW16745   2.660   6.865   1.739 -0.0509  0.2239 -0.0328
 5312SOL    HW116746   2.720   6.812   1.686  0.4756  1.4815 -0.7457
 5312SOL    HW216747   2.575   6.851   1.699 -0.1844 -1.2194  0.7012
 5313SOL     OW16748   0.294   1.305   0.463  0.0377  0.3392 -0.1833
 5313SOL    HW116749   0.362   1.361   0.427 -2.3889  3.3742 -0.4750
 5313SOL    HW216750   0.290   1.230   0.403  1.6265  1.1335 -1.3504
 5314SOL     OW16751   7.494   0.757   7.076 -0.2216  0.6654  0.2428
 5314SOL    HW116752   7.428   0.825   7.089 -0.3945  0.7542 -1.0454
 5314SOL    HW216753   7.444   0.681   7.048  0.1722  0.5609 -0.1788
 5315SOL     OW16754   2.486   4.627   6.220 -0.8075  0.5369 -0.4454
 5315SOL    HW116755   2.529   4.705   6.183  0.1558 -0.1835 -0.8768
 5315SOL    HW216756   2.493   4.561   6.151  1.0763 -0.8579  0.9888
 5316SOL     OW16757   1.306   1.174   0.434 -0.6291  0.0974  0.6757
 5316SOL    HW116758   1.295   1.107   0.501  0.0555 -0.7373 -0.0307
 5316SOL    HW216759   1.398   1.198   0.438 -0.5256 -0.1253 -0.0977
 5317SOL     OW16760   1.441   4.450   1.761  0.7308 -0.1595 -0.5026
 5317SOL    HW116761   1.380   4.523   1.747  0.5033 -0.6865 -2.5518
 5317SOL    HW216762   1.407   4.405   1.839  1.5292  2.5101  1.5323
 5318SOL     OW16763   0.149   4.275   5.464  0.2724  0.4436 -0.2379
 5318SOL    HW116764   0.201   4.198   5.486 -1.0707 -1.2225 -2.4414
 5318SOL    HW216765   0.067   4.263   5.511 -0.1652  0.2109 -1.0528
 5319SOL     OW16766   0.067   2.465   4.414  0.1326 -0.1972  0.1067
 5319SOL    HW116767   0.118   2.417   4.479 -0.2813  0.5101  0.9809
 5319SOL    HW216768  -0.004   2.405   4.391 -1.0461  0.3516  2.0445
 5320SOL     OW16769   4.894   5.977   2.058 -0.0681 -0.1195  0.1044
 5320SOL    HW116770   4.968   5.923   2.084  0.2355  0.4685  0.4579
 5320SOL    HW216771   4.908   5.995   1.965 -0.4861 -1.1444 -0.1730
 5321SOL     OW16772   5.485   4.916   1.769 -0.2053 -0.5349 -0.0620
 5321SOL    HW116773   5.416   4.981   1.780 -0.2222  0.1820 -3.3863
 5321SOL    HW216774   5.440   4.832   1.778 -0.4178 -0.2279  2.9539
 5322SOL     OW16775   6.784   4.055   0.997 -0.1001  0.9288 -0.0033
 5322SOL    HW116776   6.861   4.110   0.985  0.8608 -0.1940  0.7201
 5322SOL    HW216777   6.758   4.071   1.088  2.3300 -2.3085  1.4277
 5323SOL     OW16778   1.140   2.511   6.283  0.1304 -0.4581  0.6445
 5323SOL    HW116779   1.118   2.595   6.323 -1.4211 -0.7718  0.5178
 5323SOL    HW216780   1.094   2.447   6.337 -1.2360 -0.9726 -1.0405
 5324SOL     OW16781   1.869   5.197   6.056  0.2311 -0.2983  0.5101
 5324SOL    HW116782   1.845   5.167   6.144 -1.8605 -1.5486 -0.4211
 5324SOL    HW216783   1.810   5.150   5.997 -1.5690  3.7372 -1.2861
 5325SOL     OW16784   0.201   1.767   3.214  0.5997 -0.0395 -0.2709
 5325SOL    HW116785   0.278   1.822   3.201  0.3223  0.4660  0.1620
 5325SOL    HW216786   0.153   1.772   3.132  1.4206 -1.0030 -0.8302
 5326SOL     OW16787   2.846   6.613   0.535  0.2586  0.1758 -0.1226
 5326SOL    HW116788   2.862   6.707   0.526 -0.1379  0.5267  2.2328
 5326SOL    HW216789   2.752   6.603   0.519  0.1938  0.2705  0.1976
 5327SOL     OW16790   0.048   4.086   0.992 -0.3243 -0.1879 -0.0437
 5327SOL    HW116791   0.132   4.090   1.038 -0.2300 -0.4676 -0.1919
 5327SOL    HW216792  -0.017   4.106   1.060 -0.1751 -0.4503  0.1767
 5328SOL     OW16793   6.568   2.531   6.420 -0.0669  0.0151  0.5410
 5328SOL    HW116794   6.663   2.533   6.430 -0.1478  0.2842  1.3207
 5328SOL    HW216795   6.534   2.555   6.506 -0.8377  0.4441  0.1283
 5329SOL     OW16796   1.832   7.095   3.087 -0.2469 -0.1482  0.3762
 5329SOL    HW116797   1.870   7.007   3.082 -0.7402 -0.3386 -0.1798
 5329SOL    HW216798   1.876   7.136   3.161 -0.3510 -1.0277  0.9390
 5330SOL     OW16799   4.918   7.676   4.680  0.3494  0.3405  0.1719
 5330SOL    HW116800   4.866   7.756   4.673  0.9516  0.6351 -4.7885
 5330SOL    HW216801   5.008   7.705   4.669  0.8630 -0.8136  1.1139
 5331SOL     OW16802   0.813   2.789   7.216  0.0262  0.1913 -0.2080
 5331SOL    HW116803   0.721   2.815   7.224  0.6845  2.0375  2.6463
 5331SOL    HW216804   0.862   2.871   7.220  1.8685 -0.8735  0.1903
 5332SOL     OW16805   0.803   4.393   0.451  0.4044  0.0497  0.5387
 5332SOL    HW116806   0.723   4.351   0.483 -0.5674 -0.0210 -1.8154
 5332SOL    HW216807   0.773   4.470   0.403  1.8192  0.5629  0.4228
 5333SOL     OW16808   5.210   6.547   1.886 -0.0692 -0.0830  0.0557
 5333SOL    HW116809   5.138   6.488   1.869  1.2152 -1.2004 -1.8278
 5333SOL    HW216810   5.202   6.616   1.820  0.6411 -0.2826 -0.2519
 5334SOL     OW16811   3.329   5.834   2.626  0.7243 -0.1866 -0.0797
 5334SOL    HW116812   3.322   5.882   2.709  0.5049 -1.3664  0.6126
 5334SOL    HW216813   3.398   5.770   2.642  0.8809 -0.2379 -0.9205
 5335SOL     OW16814   1.772   1.921   3.785 -1.0431  0.0491 -0.6093
 5335SOL    HW116815   1.824   2.001   3.789 -0.7676 -0.1669  0.8367
 5335SOL    HW216816   1.721   1.929   3.705 -0.4887  1.3394 -0.8563
 5336SOL     OW16817   7.906   2.059   5.284 -0.5515  0.5177  0.1236
 5336SOL    HW116818   7.872   2.070   5.195 -0.0293  1.4473  0.0298
 5336SOL    HW216819   7.992   2.020   5.272 -0.5148  0.5682  0.2251
 5337SOL     OW16820   4.260   3.804   4.201  0.2119 -0.1767 -0.5989
 5337SOL    HW116821   4.176   3.783   4.159  0.1069  0.6608 -0.8255
 5337SOL    HW216822   4.303   3.719   4.212 -0.4173 -0.5581 -1.0100
 5338SOL     OW16823   7.754   5.160   1.070 -0.0233  0.4998  0.2586
 5338SOL    HW116824   7.735   5.213   1.147 -0.6929  0.1111  0.3680
 5338SOL    HW216825   7.672   5.117   1.049  0.3537 -0.0242 -0.1948
 5339SOL     OW16826   5.803   0.498   6.129 -0.1133 -0.3323  0.0901
 5339SOL    HW116827   5.730   0.501   6.067  0.3907  0.9463 -0.4748
 5339SOL    HW216828   5.820   0.590   6.150  0.2812 -0.7049  1.4727
 5340SOL     OW16829   3.222   6.007   5.853  0.6540  0.0776  0.2489
 5340SOL    HW116830   3.168   5.958   5.915 -0.0324 -1.9229 -1.7748
 5340SOL    HW216831   3.312   5.985   5.877  0.3751 -1.5826 -0.0912
 5341SOL     OW16832   3.641   2.217   0.606 -0.5181  0.0821 -0.5474
 5341SOL    HW116833   3.707   2.285   0.593 -0.1589 -0.2186 -0.3097
 5341SOL    HW216834   3.561   2.265   0.624 -0.6587  0.4876 -2.1055
 5342SOL     OW16835   0.874   7.979   3.401 -0.1591  0.9108  0.3448
 5342SOL    HW116836   0.867   7.997   3.307  0.1077  0.3656  0.2172
 5342SOL    HW216837   0.839   8.058   3.443  2.1270  2.2895 -0.1729
 5343SOL     OW16838   4.183   6.341   0.868 -0.0665 -0.0282 -0.4505
 5343SOL    HW116839   4.227   6.425   0.880  0.4585 -0.2173 -0.9940
 5343SOL    HW216840   4.092   6.364   0.851  0.1605  0.4616 -1.0543
 5344SOL     OW16841   1.149   3.827   7.225  0.0042 -0.1898 -0.5635
 5344SOL    HW116842   1.214   3.855   7.160 -0.9003  3.1068 -0.2230
 5344SOL    HW216843   1.169   3.880   7.303 -0.6668 -2.0128  0.9194
 5345SOL     OW16844   0.965   0.677   4.572 -0.1603  0.1017 -0.6020
 5345SOL    HW116845   0.883   0.698   4.527 -1.0902  1.0813  1.4032
 5345SOL    HW216846   0.938   0.649   4.660  1.6151 -0.4224 -0.1787
 5346SOL     OW16847   1.201   2.966   0.455 -0.3122  0.7114 -0.1563
 5346SOL    HW116848   1.157   3.051   0.461 -3.8033 -0.9146 -0.1610
 5346SOL    HW216849   1.179   2.933   0.368  1.1223 -0.1666 -0.2257
 5347SOL     OW16850   1.891   1.702   5.154  0.2283 -0.5422 -0.5003
 5347SOL    HW116851   1.904   1.662   5.068  0.3752 -0.5830 -0.4577
 5347SOL    HW216852   1.887   1.629   5.215 -0.2180 -0.5333 -0.5157
 5348SOL     OW16853   6.401   1.609   3.139  0.1611  0.3094  0.4153
 5348SOL    HW116854   6.496   1.606   3.133  0.1070  0.9343 -1.5337
 5348SOL    HW216855   6.383   1.633   3.230  1.9777  2.6707  0.2524
 5349SOL     OW16856   0.576   5.282   6.262 -0.1684  0.2404 -0.2137
 5349SOL    HW116857   0.552   5.198   6.222  0.2240 -0.3012  0.6458
 5349SOL    HW216858   0.560   5.347   6.193  2.6323 -0.8771 -2.1322
 5350SOL     OW16859   2.324   3.389   6.916  0.2982  0.6134 -0.0616
 5350SOL    HW116860   2.365   3.470   6.946  0.7422  0.3208  0.1297
 5350SOL    HW216861   2.369   3.369   6.834  0.5504  0.2855  0.1539
 5351SOL     OW16862   7.155   3.010   3.332  0.8143  0.5002 -0.4849
 5351SOL    HW116863   7.194   2.957   3.402  1.4754  0.5244 -0.8243
 5351SOL    HW216864   7.228   3.060   3.297  0.4269  0.7166 -0.9940
 5352SOL     OW16865   3.009   0.216   4.500 -1.1886  0.3727  0.1474
 5352SOL    HW116866   2.945   0.215   4.571 -1.9333 -1.8464 -0.4876
 5352SOL    HW216867   3.000   0.303   4.461 -0.9545  1.5624  2.5331
 5353SOL     OW16868   7.707   0.112   3.712 -0.3603 -0.1554 -0.1716
 5353SOL    HW116869   7.628   0.067   3.684  0.4567 -0.9516 -1.3025
 5353SOL    HW216870   7.722   0.178   3.645 -0.6415  0.7128  0.6067
 5354SOL     OW16871   7.443   0.917   5.920  0.2486  0.2959  0.4663
 5354SOL    HW116872   7.440   0.832   5.965 -0.2082  0.1384  0.1559
 5354SOL    HW216873   7.355   0.927   5.883  1.1863 -0.6324 -2.2985
 5355SOL     OW16874   5.006   1.998   3.892  0.0242  0.3573 -0.0987
 5355SOL    HW116875   5.012   1.903   3.884  0.1048  0.2583  0.9385
 5355SOL    HW216876   4.922   2.014   3.934  0.6639  0.6175  1.1670
 5356SOL     OW16877   2.738   1.446   2.247  1.0325 -0.6286 -0.7029
 5356SOL    HW116878   2.791   1.366   2.242 -0.5647 -1.6839 -1.8204
 5356SOL    HW216879   2.700   1.455   2.159 -0.2608  0.3346 -0.0761
 5357SOL     OW16880   0.049   7.276   1.065 -0.7574  0.0254 -0.6016
 5357SOL    HW116881   0.125   7.331   1.047 -0.8240  0.3526  0.0600
 5357SOL    HW216882   0.078   7.219   1.137 -0.9547 -0.2392 -0.7313
 5358SOL     OW16883   5.297   1.992   7.596  0.0196  0.1427  0.3053
 5358SOL    HW116884   5.352   1.950   7.662  0.6308  1.7896  0.9007
 5358SOL    HW216885   5.211   1.999   7.637  0.1499  0.2821  0.5611
 5359SOL     OW16886   1.040   4.944   6.094  0.3142 -0.1231 -0.7325
 5359SOL    HW116887   1.005   4.959   6.006  0.8566 -1.6978 -1.2393
 5359SOL    HW216888   0.990   4.871   6.128  0.3711  0.2279  0.1302
 5360SOL     OW16889   7.950   7.132   2.103 -0.7995 -0.1209  0.0590
 5360SOL    HW116890   7.909   7.208   2.145  1.2469  0.5215  1.0192
 5360SOL    HW216891   7.892   7.111   2.030 -2.6793  0.8645  1.1817
 5361SOL     OW16892   4.056   2.323   6.625 -0.4312  0.0942  0.0640
 5361SOL    HW116893   4.125   2.389   6.626  0.3548 -0.7022 -0.3303
 5361SOL    HW216894   4.079   2.264   6.697  0.2776 -1.1330 -1.1259
 5362SOL     OW16895   3.493   6.058   6.307  0.2987  0.4064  0.1563
 5362SOL    HW116896   3.455   6.010   6.381 -1.2076  0.1155 -0.7635
 5362SOL    HW216897   3.523   5.990   6.247 -1.0510  0.5721 -0.7512
 5363SOL     OW16898   6.063   1.996   3.365  0.1451  0.3647  0.3937
 5363SOL    HW116899   6.041   1.961   3.278  2.2268 -0.3869  0.1272
 5363SOL    HW216900   6.014   1.941   3.426 -0.9940  0.6141 -0.2670
 5364SOL     OW16901   3.954   5.059   2.211 -0.2676 -0.4231  0.4184
 5364SOL    HW116902   3.901   5.099   2.281 -0.1032  1.1475 -0.3189
 5364SOL    HW216903   3.926   5.103   2.131  1.3129 -0.3982 -0.1616
 5365SOL     OW16904   0.568   5.343   1.617 -0.4983 -0.5766 -0.4583
 5365SOL    HW116905   0.644   5.312   1.666 -0.0998 -1.5952 -1.6952
 5365SOL    HW216906   0.500   5.279   1.635 -1.3885  0.7853  1.3422
 5366SOL     OW16907   2.289   6.380   1.425 -0.1465 -0.2165  0.2893
 5366SOL    HW116908   2.252   6.423   1.502  1.1812  1.4354  0.0796
 5366SOL    HW216909   2.360   6.438   1.397 -0.3347 -0.9526 -1.9565
 5367SOL     OW16910   4.862   5.811   3.133  0.0399  0.4593  0.0720
 5367SOL    HW116911   4.922   5.737   3.137 -0.5147  0.0517  0.9435
 5367SOL    HW216912   4.892   5.862   3.057 -0.1383 -1.1389 -1.1093
 5368SOL     OW16913   3.551   4.788   1.261  0.4495 -0.1070 -0.7833
 5368SOL    HW116914   3.483   4.834   1.212  0.3367 -0.9025 -1.3874
 5368SOL    HW216915   3.566   4.844   1.338 -0.3067  0.4860 -1.0453
 5369SOL     OW16916   3.708   4.732   2.648 -0.0292 -0.1615 -0.2011
 5369SOL    HW116917   3.702   4.660   2.585 -0.2555  0.3656 -0.7860
 5369SOL    HW216918   3.627   4.725   2.699  0.3127 -0.7989  0.2714
 5370SOL     OW16919   7.858   4.993   7.082  0.0988  0.1554 -0.2019
 5370SOL    HW116920   7.813   5.077   7.076  0.2305  0.1614 -1.2824
 5370SOL    HW216921   7.943   5.014   7.120  1.0105  0.8907 -2.4874
 5371SOL     OW16922   3.946   5.849   7.868 -0.9593 -0.9151  0.0769
 5371SOL    HW116923   3.958   5.933   7.911  1.5513 -0.9603 -0.3699
 5371SOL    HW216924   3.930   5.872   7.776  0.9234 -0.8665 -0.2853
 5372SOL     OW16925   4.154   2.304   7.182  0.1049 -0.0550 -0.3991
 5372SOL    HW116926   4.231   2.317   7.236  1.4128  0.0239 -2.1981
 5372SOL    HW216927   4.138   2.209   7.185  0.2448 -0.0641  0.0085
 5373SOL     OW16928   7.313   1.732   3.467 -0.5986 -0.1179 -0.0550
 5373SOL    HW116929   7.279   1.810   3.511 -0.5036  0.1790 -0.5005
 5373SOL    HW216930   7.241   1.669   3.471 -0.6224 -0.0658  0.4417
 5374SOL     OW16931   0.908   0.249   2.515 -0.2501  0.2373 -0.9296
 5374SOL    HW116932   0.924   0.239   2.609  0.5853 -0.8497 -1.1609
 5374SOL    HW216933   0.994   0.263   2.477 -0.3550 -1.0069 -1.6982
 5375SOL     OW16934   2.690   6.099   0.136  0.2158 -0.2632  0.2834
 5375SOL    HW116935   2.769   6.068   0.179  0.8848 -0.3493 -0.9631
 5375SOL    HW216936   2.709   6.094   0.042 -0.1942  2.3845 -0.0416
 5376SOL     OW16937   4.851   6.105   3.836 -0.4405  0.1917  0.1429
 5376SOL    HW116938   4.888   6.078   3.751 -1.6365 -1.5908  0.1176
 5376SOL    HW216939   4.787   6.036   3.856 -0.6582  0.9359  2.1881
 5377SOL     OW16940   0.668   1.360   2.281 -0.0847  0.3900  0.3499
 5377SOL    HW116941   0.676   1.418   2.205  1.5125  0.8739  0.8516
 5377SOL    HW216942   0.710   1.407   2.352 -1.1909 -0.2354  1.4641
 5378SOL     OW16943   5.908   3.472   1.879  0.1047 -0.2931  0.6868
 5378SOL    HW116944   5.895   3.409   1.950 -0.0209 -1.1973 -0.1113
 5378SOL    HW216945   5.894   3.421   1.799  0.3092  0.6847  0.0061
 5379SOL     OW16946   4.222   1.874   6.887 -0.1977  0.1550 -0.2675
 5379SOL    HW116947   4.279   1.948   6.907  0.7902 -0.1099 -1.9323
 5379SOL    HW216948   4.202   1.835   6.972  0.3232  1.5373  0.5232
 5380SOL     OW16949   7.124   2.924   2.985  0.2665  0.2052 -0.2433
 5380SOL    HW116950   7.108   2.901   3.076  0.0431  1.5464  0.0884
 5380SOL    HW216951   7.101   2.846   2.935  2.2936 -1.2474  0.9631
 5381SOL     OW16952   1.768   0.823   6.977  0.2637 -0.2695  0.2666
 5381SOL    HW116953   1.861   0.809   6.956  0.0457 -0.5884 -0.5370
 5381SOL    HW216954   1.746   0.905   6.933  0.0696 -0.3952  0.1274
 5382SOL     OW16955   6.065   7.179   2.687  0.4091 -0.2407 -0.2414
 5382SOL    HW116956   6.122   7.146   2.757 -0.4626 -0.2480  0.4720
 5382SOL    HW216957   6.115   7.251   2.648  2.1205 -1.9778 -1.4695
 5383SOL     OW16958   7.519   5.617   0.177  0.1115 -0.0166  0.3640
 5383SOL    HW116959   7.546   5.576   0.259  0.6550  0.1945  0.2905
 5383SOL    HW216960   7.536   5.550   0.110 -1.4271 -0.6377  0.5458
 5384SOL     OW16961   7.673   0.405   1.112 -0.6064  0.3158  0.3281
 5384SOL    HW116962   7.675   0.488   1.161 -2.0354  0.9592 -0.6590
 5384SOL    HW216963   7.588   0.404   1.069 -0.2008 -1.2034 -0.5082
 5385SOL     OW16964   2.574   3.036   1.470  0.8128  0.1453  0.4003
 5385SOL    HW116965   2.615   2.989   1.542  0.3857  1.1685  1.3381
 5385SOL    HW216966   2.591   3.128   1.489 -0.3678  0.4944 -0.1608
 5386SOL     OW16967   1.846   7.405   4.657 -0.1242 -0.3669 -0.0983
 5386SOL    HW116968   1.823   7.487   4.611  1.0631 -0.2579 -0.5311
 5386SOL    HW216969   1.937   7.389   4.632 -0.6300 -2.3590 -0.8157
 5387SOL     OW16970   5.897   3.000   6.614  0.4640 -0.4236  0.4983
 5387SOL    HW116971   5.901   3.075   6.674  0.3666  1.6567 -1.9504
 5387SOL    HW216972   5.810   3.004   6.576  0.3784 -1.9599  0.4439
 5388SOL     OW16973   0.201   3.254   6.825 -0.1095 -0.3587 -0.7198
 5388SOL    HW116974   0.182   3.232   6.734  0.2680 -0.0847 -0.8638
 5388SOL    HW216975   0.278   3.202   6.847 -1.3298 -1.9328  0.0535
 5389SOL     OW16976   0.284   2.555   1.945 -0.0636  0.4896 -0.3381
 5389SOL    HW116977   0.283   2.593   1.857 -1.2369  0.7762 -0.2260
 5389SOL    HW216978   0.191   2.552   1.971  0.1510 -0.7820  0.3825
 5390SOL     OW16979   3.718   3.208   0.284 -0.1119  0.4897 -0.0974
 5390SOL    HW116980   3.712   3.304   0.281 -4.2667  0.4077 -0.9449
 5390SOL    HW216981   3.648   3.182   0.345  0.6387 -2.0461 -0.2224
 5391SOL     OW16982   3.771   4.180   1.508 -0.0811 -0.0303 -0.3847
 5391SOL    HW116983   3.767   4.225   1.424 -1.6480  0.6373  0.0084
 5391SOL    HW216984   3.724   4.098   1.494 -1.6051  0.7077  0.1633
 5392SOL     OW16985   4.135   7.057   0.190 -0.4289 -0.3383 -0.7892
 5392SOL    HW116986   4.173   7.066   0.103  0.0695  1.7812 -0.4036
 5392SOL    HW216987   4.194   6.997   0.237 -0.2913 -0.9009 -1.6696
 5393SOL     OW16988   7.557   5.913   1.537  0.4138  0.5413 -0.5762
 5393SOL    HW116989   7.624   5.847   1.550 -0.9241 -0.4968  1.6993
 5393SOL    HW216990   7.521   5.895   1.450 -0.6487 -2.5438  0.3629
 5394SOL     OW16991   5.453   5.258   7.308  0.4622 -0.8189 -0.1421
 5394SOL    HW116992   5.462   5.244   7.214  0.3242 -0.1848 -0.2560
 5394SOL    HW216993   5.363   5.232   7.328  0.2125 -0.1098 -0.3464
 5395SOL     OW16994   7.648   7.232   1.790  0.7506  0.1383 -0.3981
 5395SOL    HW116995   7.663   7.326   1.777 -2.1597  0.5901 -1.2596
 5395SOL    HW216996   7.560   7.217   1.754 -0.2633 -2.2699  2.6854
 5396SOL     OW16997   4.461   1.102   7.257 -0.3428  0.2041 -0.5474
 5396SOL    HW116998   4.518   1.076   7.330 -0.5354  0.7331 -0.2000
 5396SOL    HW216999   4.479   1.195   7.244 -0.8708  0.2949 -0.6665
 5397SOL     OW17000   1.463   7.023   7.046  0.2789  0.8901  0.1388
 5397SOL    HW117001   1.397   7.040   7.113 -0.3380  1.9889 -0.7110
 5397SOL    HW217002   1.480   7.109   7.007 -0.4408  0.1032 -2.0741
 5398SOL     OW17003   3.489   3.268   6.733 -0.4939  0.4175  0.0384
 5398SOL    HW117004   3.509   3.199   6.670  2.6415  1.4191 -0.2213
 5398SOL    HW217005   3.412   3.312   6.697 -0.2671 -0.5743 -1.7588
 5399SOL     OW17006   5.245   7.154   1.569 -0.4638  0.8385 -0.4876
 5399SOL    HW117007   5.280   7.188   1.652  0.1791 -0.4636 -0.1965
 5399SOL    HW217008   5.150   7.163   1.577 -0.5493 -0.8889  1.1664
 5400SOL     OW17009   1.597   2.974   6.665  0.0352 -0.0710  0.0010
 5400SOL    HW117010   1.589   2.892   6.617 -2.0272 -0.8081  1.4881
 5400SOL    HW217011   1.551   3.038   6.611 -3.1482 -1.0951  1.2242
 5401SOL     OW17012   1.323   1.921   0.509 -0.3916 -0.2970  0.2239
 5401SOL    HW117013   1.236   1.914   0.547 -0.2991 -1.5471  0.2598
 5401SOL    HW217014   1.350   2.011   0.527 -1.7861  0.2104 -0.0618
 5402SOL     OW17015   3.104   3.689   3.432  0.2551  0.0403 -0.0085
 5402SOL    HW117016   3.169   3.727   3.374 -1.4453  1.5415 -1.0484
 5402SOL    HW217017   3.044   3.761   3.451 -2.3898 -1.7546 -0.9533
 5403SOL     OW17018   6.932   0.758   2.705 -0.3632  0.5155 -0.0818
 5403SOL    HW117019   6.904   0.692   2.641  0.1441 -0.1571  0.3807
 5403SOL    HW217020   7.019   0.784   2.676  0.4125 -0.7322  1.0371
 5404SOL     OW17021   7.008   4.813   7.136  0.2550 -0.2695  0.4402
 5404SOL    HW117022   6.948   4.781   7.204  0.2362  0.1456  0.6229
 5404SOL    HW217023   7.017   4.907   7.154 -0.1685 -0.0450 -0.4441
 5405SOL     OW17024   5.470   6.837   1.956 -0.1641 -0.2689 -0.9818
 5405SOL    HW117025   5.498   6.754   1.918 -0.2096 -0.4956 -0.5238
 5405SOL    HW217026   5.546   6.869   2.003 -1.0330 -1.6157  1.5328
 5406SOL     OW17027   3.116   2.914   5.411  0.0612  0.2723 -0.0995
 5406SOL    HW117028   3.209   2.893   5.409  0.3043  1.3321 -1.2144
 5406SOL    HW217029   3.073   2.830   5.423  1.1351 -0.3200 -0.2668
 5407SOL     OW17030   0.555   0.032   1.677  0.2762 -0.1317  0.0860
 5407SOL    HW117031   0.579   0.022   1.769  2.6283 -0.6840 -0.5165
 5407SOL    HW217032   0.596  -0.043   1.634 -1.9434 -0.6447 -1.2423
 5408SOL     OW17033   4.499   5.247   1.346  0.5579  0.4316  0.0363
 5408SOL    HW117034   4.419   5.297   1.356 -1.9292 -3.2738  0.5148
 5408SOL    HW217035   4.511   5.204   1.431  0.0991 -2.9142 -1.4495
 5409SOL     OW17036   3.480   5.396   3.835  0.2366 -0.2618 -0.0508
 5409SOL    HW117037   3.479   5.340   3.757 -0.1658  0.6126 -0.6888
 5409SOL    HW217038   3.529   5.345   3.900 -0.4143 -1.5060 -0.4889
 5410SOL     OW17039   1.874   1.903   0.703  0.2324  0.5537  0.3900
 5410SOL    HW117040   1.912   1.962   0.638  1.1149 -1.3165 -0.8995
 5410SOL    HW217041   1.941   1.835   0.716 -1.5575 -1.3761  0.1106
 5411SOL     OW17042   3.055   7.468   1.281 -0.3642  0.9306  0.5646
 5411SOL    HW117043   3.035   7.561   1.285 -0.7762  0.8565  0.2539
 5411SOL    HW217044   2.982   7.429   1.232  1.6481  0.9854 -2.7910
 5412SOL     OW17045   3.701   1.415   3.142  0.7049  0.1635 -0.1267
 5412SOL    HW117046   3.675   1.491   3.194 -0.9083 -0.3117 -0.2005
 5412SOL    HW217047   3.757   1.450   3.073  0.0683  1.2624 -0.0911
 5413SOL     OW17048   0.209   1.174   5.996  0.0001  0.4327  0.1131
 5413SOL    HW117049   0.269   1.102   5.974  0.6953  0.7354  0.9583
 5413SOL    HW217050   0.259   1.253   5.979 -0.0054  0.6839  1.2058
 5414SOL     OW17051   4.577   3.517   7.170  0.2278  0.7020  0.1889
 5414SOL    HW117052   4.551   3.609   7.164 -1.1517  0.2907 -0.6790
 5414SOL    HW217053   4.530   3.483   7.246  2.1628  1.1122  1.6423
 5415SOL     OW17054   1.819   1.154   2.401 -0.5945 -0.2335 -0.3186
 5415SOL    HW117055   1.889   1.093   2.424  0.3785  0.5680 -1.0676
 5415SOL    HW217056   1.817   1.154   2.305 -0.1689  1.3292 -0.3559
 5416SOL     OW17057   1.278   7.527   0.518 -0.2459 -0.0652 -1.1034
 5416SOL    HW117058   1.334   7.592   0.560  1.3845 -1.4314 -1.0279
 5416SOL    HW217059   1.223   7.577   0.458  0.8156  1.3959 -0.9092
 5417SOL     OW17060   6.860   1.657   1.636 -0.2594 -0.0586  0.4474
 5417SOL    HW117061   6.849   1.568   1.603 -0.9266 -0.3450  1.3941
 5417SOL    HW217062   6.949   1.659   1.673 -1.0832 -1.1131  2.6350
 5418SOL     OW17063   1.550   4.271   4.071  0.3428 -0.0357 -0.2100
 5418SOL    HW117064   1.641   4.282   4.098 -0.3834 -0.1742  2.6099
 5418SOL    HW217065   1.550   4.190   4.020  1.9839  0.6612 -1.3873
 5419SOL     OW17066   6.872   2.390   6.952  0.5491  0.0076 -0.0780
 5419SOL    HW117067   6.837   2.466   6.998  1.8584 -0.4700  1.8225
 5419SOL    HW217068   6.806   2.321   6.966  0.0152  0.4033 -0.6205
 5420SOL     OW17069   2.807   7.431   1.179  0.0425 -0.0212 -0.0416
 5420SOL    HW117070   2.722   7.471   1.197  0.3818  0.5587  0.3078
 5420SOL    HW217071   2.799   7.341   1.212 -1.2152 -0.7384 -2.1418
 5421SOL     OW17072   5.469   4.326   4.725  0.2205 -0.6241  0.2414
 5421SOL    HW117073   5.518   4.374   4.792  0.1197 -0.1504 -0.0204
 5421SOL    HW217074   5.535   4.270   4.684  0.2814 -0.9272  0.7405
 5422SOL     OW17075   2.183   6.454   1.665 -0.4552 -0.5690 -0.1719
 5422SOL    HW117076   2.217   6.408   1.742 -0.3971 -0.8278 -0.3530
 5422SOL    HW217077   2.104   6.406   1.641  0.0171 -1.0481 -0.8193
 5423SOL     OW17078   0.339   4.361   4.578  0.3486  0.9425  0.2400
 5423SOL    HW117079   0.257   4.346   4.625  0.7206 -0.7403  0.4219
 5423SOL    HW217080   0.379   4.274   4.571  0.9533  1.3353 -2.0332
 5424SOL     OW17081   5.586   6.024   4.815  0.4254  0.0621  1.0133
 5424SOL    HW117082   5.585   5.984   4.902  0.1355 -3.1690 -0.3344
 5424SOL    HW217083   5.520   5.975   4.766  1.7743  0.5978 -1.4835
 5425SOL     OW17084   4.448   4.747   7.056  0.4189  0.3396 -0.2425
 5425SOL    HW117085   4.385   4.693   7.008  1.2717  0.1954 -1.2275
 5425SOL    HW217086   4.465   4.698   7.136 -1.1949  0.6912  0.3658
 5426SOL     OW17087   4.328   4.534   4.718  0.0749 -0.0978  1.0122
 5426SOL    HW117088   4.358   4.484   4.794 -1.6912 -0.8753  1.2400
 5426SOL    HW217089   4.242   4.499   4.698 -0.7017  1.9982  0.3756
 5427SOL     OW17090   5.503   3.963   2.647  0.2044 -0.5979 -0.5088
 5427SOL    HW117091   5.595   3.988   2.638 -0.4709  2.5940  0.3243
 5427SOL    HW217092   5.465   3.981   2.561  0.0295 -0.3616 -0.3808
 5428SOL     OW17093   2.209   4.856   7.412 -0.2382  0.1283 -0.1493
 5428SOL    HW117094   2.237   4.826   7.499 -2.0618 -0.3167  0.3333
 5428SOL    HW217095   2.288   4.895   7.374  0.4993  0.8707  1.9415
 5429SOL     OW17096   6.804   7.452   4.467 -0.9391 -0.6010 -0.1629
 5429SOL    HW117097   6.826   7.538   4.430  1.5988 -1.9782 -2.2096
 5429SOL    HW217098   6.796   7.395   4.390 -0.5867 -2.5966  1.2093
 5430SOL     OW17099   3.368   7.307   4.879 -0.6608 -0.0686  0.2503
 5430SOL    HW117100   3.432   7.369   4.915 -0.1922  0.2072 -1.0294
 5430SOL    HW217101   3.369   7.322   4.785 -1.8231 -0.8275  0.0958
 5431SOL     OW17102   1.891   6.446   5.321 -0.0161 -0.4083 -0.1264
 5431SOL    HW117103   1.879   6.359   5.359  0.5839 -0.6918 -0.5727
 5431SOL    HW217104   1.927   6.430   5.234 -1.1826  0.2479 -0.7412
 5432SOL     OW17105   7.532   1.189   5.839 -0.5630  0.7168 -0.7365
 5432SOL    HW117106   7.542   1.222   5.749  1.5263 -0.2720 -0.9128
 5432SOL    HW217107   7.524   1.095   5.829  0.8478  0.4742  0.1354
 5433SOL     OW17108   7.995   4.614   6.241 -0.4334 -0.3944 -0.1302
 5433SOL    HW117109   7.941   4.561   6.299  0.0062  1.6774  2.3733
 5433SOL    HW217110   7.938   4.686   6.213  0.2524  0.3766  0.4024
 5434SOL     OW17111   7.182   2.954   6.328  0.3687 -0.0913 -0.5304
 5434SOL    HW117112   7.132   2.892   6.274  0.5960 -0.7346 -0.0159
 5434SOL    HW217113   7.168   3.038   6.286 -0.5838 -0.3676 -0.8044
 5435SOL     OW17114   4.692   1.459   3.154 -0.1663  0.1469  0.5470
 5435SOL    HW117115   4.666   1.367   3.152 -1.5814  0.5021 -1.7349
 5435SOL    HW217116   4.778   1.461   3.112 -1.0785  0.0221 -1.4742
 5436SOL     OW17117   2.102   0.389   3.674  0.4825  0.0563 -0.0262
 5436SOL    HW117118   2.114   0.329   3.749  1.5387  0.2132 -0.0497
 5436SOL    HW217119   2.138   0.341   3.600 -0.1592  0.0824 -0.3611
 5437SOL     OW17120   0.685   0.082   6.320  0.3780  0.7223  0.3945
 5437SOL    HW117121   0.753   0.034   6.272 -1.7989 -2.0149 -0.2411
 5437SOL    HW217122   0.705   0.065   6.412  1.0273  0.6289  0.2409
 5438SOL     OW17123   7.028   6.542   1.416  0.0141  0.1423 -0.7352
 5438SOL    HW117124   6.943   6.580   1.393  0.4109  1.5358 -0.0045
 5438SOL    HW217125   7.032   6.549   1.512  1.0215  0.2776 -0.7744
 5439SOL     OW17126   2.239   5.183   4.940  0.3351 -0.1003 -0.8034
 5439SOL    HW117127   2.261   5.123   5.011 -2.2650 -1.0190 -0.6642
 5439SOL    HW217128   2.232   5.126   4.863  0.8574  0.5155 -1.3139
 5440SOL     OW17129   1.232   4.790   7.611 -0.1951 -0.4400  0.4651
 5440SOL    HW117130   1.180   4.710   7.616  0.5230 -0.9730 -0.2718
 5440SOL    HW217131   1.200   4.835   7.533  0.0180 -0.4589  0.3656
 5441SOL     OW17132   1.047   1.738   6.322 -0.1441  0.7929  0.1285
 5441SOL    HW117133   1.109   1.790   6.270  1.3024 -0.2606  0.7280
 5441SOL    HW217134   1.095   1.658   6.343 -2.2599 -0.8170 -0.7409
 5442SOL     OW17135   5.355   5.327   0.458 -0.0506  1.1723 -0.5155
 5442SOL    HW117136   5.340   5.316   0.364  1.6100  1.3204 -0.8220
 5442SOL    HW217137   5.447   5.351   0.465  0.1258  0.0947  1.2431
 5443SOL     OW17138   0.866   6.247   5.438 -0.4508 -0.3622  0.2747
 5443SOL    HW117139   0.905   6.185   5.375  1.2610  1.1737 -0.2654
 5443SOL    HW217140   0.937   6.266   5.499 -0.9373  1.0358  0.4322
 5444SOL     OW17141   0.129   4.749   0.126  0.3875 -0.5030 -0.5197
 5444SOL    HW117142   0.091   4.709   0.205 -0.9866  0.9312 -0.3957
 5444SOL    HW217143   0.184   4.820   0.159 -0.6766  0.5020 -0.8132
 5445SOL     OW17144   1.596   4.016   6.221 -0.0791 -0.5132 -0.5329
 5445SOL    HW117145   1.601   3.927   6.257  0.2904  0.4848  2.0539
 5445SOL    HW217146   1.685   4.049   6.225 -0.3708  0.3138 -0.6066
 5446SOL     OW17147   0.396   2.660   5.698 -0.0592 -0.3663  0.3172
 5446SOL    HW117148   0.490   2.669   5.716 -0.1339 -0.1723  0.6190
 5446SOL    HW217149   0.391   2.656   5.603  0.1410  1.0930  0.2177
 5447SOL     OW17150   2.127   4.492   0.630  0.5724  0.2252 -0.0695
 5447SOL    HW117151   2.195   4.559   0.640  1.5139 -0.6456 -0.4692
 5447SOL    HW217152   2.148   4.427   0.697  0.4086 -0.2844 -0.5087
 5448SOL     OW17153   4.793   0.073   4.990  0.7856 -0.0384 -0.2026
 5448SOL    HW117154   4.826   0.155   5.028 -1.2321  0.5478  0.3739
 5448SOL    HW217155   4.820   0.005   5.051  0.0497  0.5526  0.7936
 5449SOL     OW17156   4.803   6.525   2.004 -0.2675  0.4528 -0.1306
 5449SOL    HW117157   4.827   6.611   1.969  0.6239  0.1233 -0.3357
 5449SOL    HW217158   4.754   6.545   2.084 -0.3074  1.1557 -0.3243
 5450SOL     OW17159   1.329   7.963   0.874  0.3909 -0.0799  0.1255
 5450SOL    HW117160   1.377   7.920   0.802  1.0038  1.8715 -0.6949
 5450SOL    HW217161   1.396   7.980   0.940 -0.2388 -2.2216  1.4267
 5451SOL     OW17162   4.085   4.530   1.566  0.2828 -0.2414  0.1588
 5451SOL    HW117163   4.012   4.554   1.623  2.0843 -0.3804  2.6809
 5451SOL    HW217164   4.111   4.444   1.596  1.0075 -0.5334 -1.2409
 5452SOL     OW17165   0.103   2.517   4.059  0.3602 -0.0514 -0.1047
 5452SOL    HW117166   0.028   2.539   4.114  0.2746  0.2068 -0.3220
 5452SOL    HW217167   0.083   2.429   4.026  0.0154  0.1310 -0.3915
 5453SOL     OW17168   7.253   3.977   0.029  0.0614 -0.6196 -0.3441
 5453SOL    HW117169   7.177   3.933  -0.009 -1.5841  0.8521  1.0429
 5453SOL    HW217170   7.306   3.906   0.066 -0.5965 -1.6883 -1.3692
 5454SOL     OW17171   4.808   0.830   6.834  0.1228  0.2188  0.2065
 5454SOL    HW117172   4.747   0.765   6.797  0.0419  0.7080 -0.5522
 5454SOL    HW217173   4.768   0.855   6.917  0.4893 -1.1716  0.8280
 5455SOL     OW17174   4.677   5.446   0.214 -0.1345 -0.7502  0.7673
 5455SOL    HW117175   4.717   5.533   0.205 -0.7689 -0.4395  0.8675
 5455SOL    HW217176   4.637   5.447   0.301 -0.0805 -1.1681  0.7962
 5456SOL     OW17177   1.597   1.609   0.853  0.0951  0.0425  0.7268
 5456SOL    HW117178   1.541   1.654   0.790 -0.3497  0.7331  1.5877
 5456SOL    HW217179   1.538   1.588   0.926  0.5217 -1.0431  0.7704
 5457SOL     OW17180   3.457   0.374   2.905  0.1002  0.0262  0.2187
 5457SOL    HW117181   3.519   0.440   2.872 -0.1255  0.1826  0.1051
 5457SOL    HW217182   3.371   0.413   2.891 -0.0364 -0.2929  0.1512
 5458SOL     OW17183   3.060   2.774   3.779 -0.1227 -0.1828  0.0094
 5458SOL    HW117184   2.965   2.777   3.765 -0.2058  1.9664  0.7678
 5458SOL    HW217185   3.094   2.851   3.733  1.3928 -1.2993 -0.8737
 5459SOL     OW17186   1.475   6.213   3.053  0.7110 -0.6696 -0.0555
 5459SOL    HW117187   1.544   6.256   3.002 -0.7514  1.5596 -0.3090
 5459SOL    HW217188   1.432   6.154   2.991  0.0264  0.7688 -1.0178
 5460SOL     OW17189   6.440   5.136   6.299  0.2146  0.3069  0.2306
 5460SOL    HW117190   6.364   5.097   6.256  0.5602 -1.7892  1.3686
 5460SOL    HW217191   6.404   5.210   6.348 -1.6641 -2.0764  2.7708
 5461SOL     OW17192   0.878   2.301   4.705  0.1533  0.2360  0.6105
 5461SOL    HW117193   0.834   2.237   4.650 -0.4094 -0.2577  1.6060
 5461SOL    HW217194   0.812   2.327   4.769 -0.1801  3.1122 -0.7577
 5462SOL     OW17195   7.366   0.678   2.870 -0.6684 -0.0636 -0.4107
 5462SOL    HW117196   7.368   0.759   2.818 -1.7514 -0.4072 -1.0146
 5462SOL    HW217197   7.356   0.709   2.960  0.0905  0.5036 -0.5052
 5463SOL     OW17198   7.301   1.409   7.710  0.4965  0.5897 -0.2277
 5463SOL    HW117199   7.249   1.478   7.752  0.9857  1.4930 -1.0710
 5463SOL    HW217200   7.371   1.456   7.665 -1.1003 -0.1299 -3.7525
 5464SOL     OW17201   7.480   2.416   2.339  0.1103  0.0130  0.6643
 5464SOL    HW117202   7.395   2.375   2.354 -1.1057  1.6500 -1.0871
 5464SOL    HW217203   7.522   2.361   2.274 -0.2262 -0.0907  0.5293
 5465SOL     OW17204   0.179   1.368   2.037 -0.7031  0.2677 -0.2441
 5465SOL    HW117205   0.160   1.293   1.981 -1.0419 -1.1224  1.6096
 5465SOL    HW217206   0.094   1.390   2.077  0.1893 -1.8988  3.2849
 5466SOL     OW17207   1.831   5.731   5.234  0.1864 -0.5854 -0.0348
 5466SOL    HW117208   1.739   5.758   5.231  0.5700  1.0033  1.0667
 5466SOL    HW217209   1.830   5.648   5.281 -0.7966 -1.3137 -1.2749
 5467SOL     OW17210   0.884   6.514   4.687  0.3014  0.9052 -0.1866
 5467SOL    HW117211   0.880   6.609   4.673  1.7101  0.9503 -0.4154
 5467SOL    HW217212   0.950   6.483   4.624 -0.9508 -0.3949 -0.9080
 5468SOL     OW17213   2.746   0.018   2.457  0.3453 -0.2756  0.3119
 5468SOL    HW117214   2.725  -0.021   2.372  1.7416  0.9885 -0.6531
 5468SOL    HW217215   2.841   0.031   2.456  0.0684  2.3862  0.8738
 5469SOL     OW17216   0.954   2.319   5.876 -0.3939 -0.6289 -0.4643
 5469SOL    HW117217   0.986   2.366   5.953  0.4454 -1.5576 -0.2165
 5469SOL    HW217218   0.948   2.228   5.906 -1.3813 -0.7911 -1.1074
 5470SOL     OW17219   7.987   2.372   0.342  0.6565  0.0227 -0.4640
 5470SOL    HW117220   8.061   2.315   0.319 -1.6453 -2.8324 -1.3912
 5470SOL    HW217221   7.953   2.402   0.257  0.0300  0.3282 -0.1067
 5471SOL     OW17222   0.196   2.020   2.527 -0.2557  0.7170 -0.5802
 5471SOL    HW117223   0.281   2.063   2.536  0.4309 -0.9721  2.0736
 5471SOL    HW217224   0.185   2.009   2.432  2.4352  1.0146 -1.0107
 5472SOL     OW17225   0.658   6.384   7.046  0.1914 -0.4292  0.2630
 5472SOL    HW117226   0.600   6.318   7.084  0.7114 -0.4129  1.1293
 5472SOL    HW217227   0.618   6.408   6.963 -0.7026 -0.8723  0.5613
 5473SOL     OW17228   2.054   1.706   2.431 -0.2570 -0.1984 -0.3892
 5473SOL    HW117229   2.004   1.626   2.445  1.4659 -1.8231 -2.5760
 5473SOL    HW217230   2.106   1.687   2.352  1.0817  2.6631 -0.3062
 5474SOL     OW17231   4.724   7.439   3.875  0.4620  0.0232 -0.4158
 5474SOL    HW117232   4.701   7.524   3.840  1.5388 -0.0626 -1.3928
 5474SOL    HW217233   4.741   7.455   3.968 -1.4171  0.4450 -0.1125
 5475SOL     OW17234   1.689   2.432   0.012  0.3064  0.1827 -0.1906
 5475SOL    HW117235   1.619   2.474  -0.039  0.7292  0.8515 -0.2261
 5475SOL    HW217236   1.752   2.403  -0.053 -0.1292 -0.7977 -0.1887
 5476SOL     OW17237   4.971   1.442   3.450 -0.1983 -0.0776 -0.7286
 5476SOL    HW117238   5.031   1.466   3.521  1.6918 -0.1540 -2.2240
 5476SOL    HW217239   4.911   1.516   3.444  0.3417  0.4562  0.1963
 5477SOL     OW17240   2.482   1.531   3.354 -0.1737 -0.3583 -0.5844
 5477SOL    HW117241   2.392   1.554   3.329 -0.2970  1.3670  1.2050
 5477SOL    HW217242   2.536   1.593   3.305 -0.2026  0.6881  0.6460
 5478SOL     OW17243   5.318   1.610   3.257  0.0865 -0.7867  0.2961
 5478SOL    HW117244   5.376   1.534   3.247  0.9995 -0.0750  0.0372
 5478SOL    HW217245   5.328   1.635   3.349  0.8676 -0.1562  0.0552
 5479SOL     OW17246   7.954   6.562   1.067 -0.2507  0.1647 -1.2173
 5479SOL    HW117247   7.918   6.473   1.074  0.8409 -0.1701  2.2618
 5479SOL    HW217248   8.030   6.552   1.009  0.3057 -1.4003 -0.2905
 5480SOL     OW17249   2.067   4.605   6.045  0.4078  0.5070  0.2310
 5480SOL    HW117250   2.012   4.649   6.111  1.2432  1.0725  0.5680
 5480SOL    HW217251   2.146   4.579   6.093  0.7477  0.3557 -0.4075
 5481SOL     OW17252   5.166   6.572   1.464  0.3951  0.4712 -0.5205
 5481SOL    HW117253   5.216   6.503   1.419 -1.1696 -1.2588  0.2559
 5481SOL    HW217254   5.134   6.628   1.393  4.0234  2.2266 -1.0301
 5482SOL     OW17255   6.740   3.261   2.492 -0.3917 -0.1952  0.7524
 5482SOL    HW117256   6.723   3.168   2.501 -0.9517 -0.1083  0.6257
 5482SOL    HW217257   6.703   3.300   2.571 -2.8992  0.2560 -0.5102
 5483SOL     OW17258   5.940   0.169   3.304 -0.0868  0.4285  0.2356
 5483SOL    HW117259   5.932   0.193   3.396 -1.1633  1.5069 -0.1106
 5483SOL    HW217260   5.924   0.074   3.303  3.0831 -0.2363  1.4896
 5484SOL     OW17261   5.618   4.313   1.052 -0.2344  0.0398 -0.4468
 5484SOL    HW117262   5.683   4.343   0.988 -0.9152 -0.5697 -1.4549
 5484SOL    HW217263   5.588   4.229   1.018 -0.8278 -0.1563  0.5307
 5485SOL     OW17264   6.006   6.747   6.025 -0.1059 -0.6328  0.0221
 5485SOL    HW117265   5.934   6.705   6.071 -0.2886 -1.2582 -0.7947
 5485SOL    HW217266   6.080   6.687   6.037 -0.1288 -0.7491 -0.3934
 5486SOL     OW17267   4.234   2.362   5.433  0.3803  0.5398 -0.0962
 5486SOL    HW117268   4.166   2.419   5.469  2.3710  2.6747  0.5876
 5486SOL    HW217269   4.285   2.335   5.510 -0.7335 -2.5963 -0.3615
 5487SOL     OW17270   2.983   6.771   0.097 -0.1726 -0.0747  0.4352
 5487SOL    HW117271   2.899   6.724   0.090 -0.0284 -0.0433 -2.0589
 5487SOL    HW217272   2.976   6.842   0.034  0.9638  1.2310  1.7199
 5488SOL     OW17273   5.271   3.500   2.472 -0.2834  0.3540 -0.3014
 5488SOL    HW117274   5.299   3.561   2.405 -0.0637  2.1508  1.3418
 5488SOL    HW217275   5.313   3.531   2.552 -1.4979 -0.9739  0.9136
 5489SOL     OW17276   1.481   7.181   4.622 -0.2394 -0.2139 -0.6913
 5489SOL    HW117277   1.399   7.222   4.648  0.8202  1.9838 -0.5215
 5489SOL    HW217278   1.502   7.122   4.694 -0.8532  0.4734  0.0761
 5490SOL     OW17279   1.967   5.517   1.204  0.0332  0.0842 -0.0326
 5490SOL    HW117280   2.039   5.457   1.224 -0.6945 -0.8176 -0.0195
 5490SOL    HW217281   1.982   5.543   1.113 -0.5427 -1.4901 -0.6246
 5491SOL     OW17282   0.667   4.069   1.318 -0.0953  0.4701 -0.1757
 5491SOL    HW117283   0.685   3.987   1.272  1.4820  0.3365  0.6156
 5491SOL    HW217284   0.652   4.132   1.248  0.2789 -0.1566 -0.8394
 5492SOL     OW17285   2.462   5.243   0.450 -0.1742  0.4981 -0.4341
 5492SOL    HW117286   2.425   5.303   0.386  0.5722  1.4190 -0.0292
 5492SOL    HW217287   2.557   5.243   0.433 -0.2414 -1.3378 -1.0576
 5493SOL     OW17288   6.545   6.148   1.085  0.3633 -0.2523 -0.5213
 5493SOL    HW117289   6.557   6.158   1.179 -0.3999  1.0639 -0.5509
 5493SOL    HW217290   6.599   6.072   1.062 -1.1300 -1.9575  1.3142
 5494SOL     OW17291   4.728   3.796   1.151  1.3564  0.0968  0.0780
 5494SOL    HW117292   4.696   3.886   1.159 -0.9595 -0.7592  1.8223
 5494SOL    HW217293   4.768   3.777   1.236  0.9084 -0.7933  0.1087
 5495SOL     OW17294   6.091   6.045   3.798 -0.0053  0.2199  0.9078
 5495SOL    HW117295   6.012   5.998   3.771  0.9576 -0.2112 -1.3915
 5495SOL    HW217296   6.081   6.133   3.760  0.4359  0.2807  0.9236
 5496SOL     OW17297   7.526   2.254   3.163  0.3019 -0.2354  0.2491
 5496SOL    HW117298   7.469   2.285   3.092  0.6087 -2.0337 -0.8152
 5496SOL    HW217299   7.603   2.311   3.158  1.0208 -1.2832 -1.9070
 5497SOL     OW17300   0.428   2.202   5.057 -0.3424 -0.7906 -0.9750
 5497SOL    HW117301   0.382   2.285   5.064 -1.1004 -0.9632 -3.2134
 5497SOL    HW217302   0.449   2.193   4.964  2.0743 -1.8982 -0.4017
 5498SOL     OW17303   5.331   0.853   2.875 -0.1183  0.0327 -0.0728
 5498SOL    HW117304   5.342   0.804   2.793  1.8474  0.0016  0.1466
 5498SOL    HW217305   5.238   0.846   2.896 -0.2505 -1.8725 -1.1089
 5499SOL     OW17306   1.318   6.629   1.076  0.1714  0.3665  0.3278
 5499SOL    HW117307   1.322   6.586   1.161 -0.1030 -2.1165 -0.8170
 5499SOL    HW217308   1.408   6.629   1.044  0.8060  3.8252  1.6451
 5500SOL     OW17309   5.961   5.371   0.099 -0.2955  0.6188 -0.6060
 5500SOL    HW117310   6.020   5.412   0.162 -0.5388  1.3234 -0.8321
 5500SOL    HW217311   5.899   5.321   0.152 -0.0579  0.6153 -0.3275
 5501SOL     OW17312   4.045   1.268   5.373 -0.0710  0.3532 -0.0158
 5501SOL    HW117313   4.048   1.256   5.468  1.2216 -0.3327 -0.1209
 5501SOL    HW217314   4.034   1.363   5.362  0.8203  0.5781  0.8240
 5502SOL     OW17315   4.822   6.059   2.343 -0.2101  0.5793  0.3091
 5502SOL    HW117316   4.908   6.095   2.323 -0.1652  0.0765 -0.4313
 5502SOL    HW217317   4.792   6.020   2.261  0.1758 -1.9579  1.2841
 5503SOL     OW17318   4.762   1.527   7.697  0.0684  0.3027 -0.2803
 5503SOL    HW117319   4.789   1.462   7.761 -0.1515  0.8913  0.4179
 5503SOL    HW217320   4.843   1.570   7.671  0.0496  0.7229  0.3378
 5504SOL     OW17321   2.142   1.635   4.613  0.6884  0.0921 -0.4960
 5504SOL    HW117322   2.089   1.578   4.556 -2.1172  0.3337  1.6588
 5504SOL    HW217323   2.100   1.720   4.607  1.8095  0.7128  0.1339
 5505SOL     OW17324   0.385   3.063   6.955 -0.4620  0.2712 -0.1894
 5505SOL    HW117325   0.416   3.027   6.872 -0.3261 -0.0149 -0.0159
 5505SOL    HW217326   0.312   3.006   6.980  0.3637 -0.4906  0.5685
 5506SOL     OW17327   2.611   4.004   5.231  0.1898 -0.2291  0.1700
 5506SOL    HW117328   2.618   4.026   5.324  1.3241  0.5731 -0.0856
 5506SOL    HW217329   2.541   4.061   5.198  1.5501  1.4332  0.0050
 5507SOL     OW17330   2.645   7.092   7.753 -0.5586  0.1995  0.4807
 5507SOL    HW117331   2.689   7.176   7.740 -1.5519  0.7383  0.5273
 5507SOL    HW217332   2.680   7.060   7.837 -1.0139  1.1250  1.0432
 5508SOL     OW17333   1.967   4.768   3.452  1.0283 -0.0962 -0.1228
 5508SOL    HW117334   1.974   4.776   3.356 -1.7104 -0.0029 -0.3747
 5508SOL    HW217335   1.896   4.705   3.466  0.9357  0.3873  1.8640
 5509SOL     OW17336   2.040   0.302   5.833  0.1993 -0.3457 -0.1095
 5509SOL    HW117337   1.958   0.268   5.868  0.1288  0.0454  0.1056
 5509SOL    HW217338   2.055   0.383   5.881  0.3562 -0.0573 -0.6429
 5510SOL     OW17339   6.798   0.056   4.773 -0.5984  0.2934 -0.0926
 5510SOL    HW117340   6.735   0.015   4.832  0.6039 -0.8211  0.4580
 5510SOL    HW217341   6.868   0.088   4.831  0.8905 -1.3312 -0.9056
 5511SOL     OW17342   5.255   2.991   4.826  0.0002  0.2663 -0.5087
 5511SOL    HW117343   5.303   2.983   4.744  0.9677  2.1072 -0.1730
 5511SOL    HW217344   5.319   3.025   4.889 -1.0989  0.3679  0.6178
 5512SOL     OW17345   2.556   2.184   3.354  0.0305 -0.3543 -0.0295
 5512SOL    HW117346   2.550   2.181   3.259  1.2031 -1.7652 -0.0876
 5512SOL    HW217347   2.474   2.145   3.385 -1.1092  1.6153 -0.3857
 5513SOL     OW17348   2.607   1.118   3.194 -0.3440 -0.3066  0.2792
 5513SOL    HW117349   2.651   1.173   3.129  0.3252 -1.1874 -0.0394
 5513SOL    HW217350   2.552   1.059   3.143  1.2141 -1.9203  0.3595
 5514SOL     OW17351   4.495   0.749   7.576  0.2406  0.2809  0.7423
 5514SOL    HW117352   4.585   0.716   7.572  0.0823 -0.4336  2.5362
 5514SOL    HW217353   4.441   0.672   7.594 -0.6612  0.8165  0.4351
 5515SOL     OW17354   4.924   1.791   2.262 -0.1258 -0.1787 -0.2149
 5515SOL    HW117355   5.010   1.803   2.301 -0.4249 -1.5154  0.9515
 5515SOL    HW217356   4.931   1.710   2.212 -0.2234  0.6553 -1.6292
 5516SOL     OW17357   7.975   7.694   6.792  0.1414 -0.4197  0.3432
 5516SOL    HW117358   8.064   7.717   6.817  0.2863  0.9818 -1.2288
 5516SOL    HW217359   7.920   7.750   6.847  0.3975  1.3595 -1.0985
 5517SOL     OW17360   2.680   6.033   7.074  0.0468 -0.0751  0.1580
 5517SOL    HW117361   2.614   6.102   7.069  0.0027 -0.1756 -1.2990
 5517SOL    HW217362   2.630   5.952   7.076  0.1004 -0.1445 -0.7676
 5518SOL     OW17363   6.041   4.357   3.935  0.0081  0.0450  0.3427
 5518SOL    HW117364   6.041   4.279   3.879  0.0525  0.4895 -0.2841
 5518SOL    HW217365   6.116   4.408   3.905 -0.4201  0.6550  0.2898
 5519SOL     OW17366   0.971   4.124   2.103  0.5054 -0.1778 -0.3499
 5519SOL    HW117367   0.958   4.040   2.059 -2.3827  0.1504 -0.3489
 5519SOL    HW217368   0.969   4.189   2.033  2.5017 -0.0541 -0.3293
 5520SOL     OW17369   0.609   3.563   7.551  0.3582 -0.0102 -0.3829
 5520SOL    HW117370   0.611   3.475   7.515 -0.2913 -0.1797 -0.0127
 5520SOL    HW217371   0.651   3.617   7.484 -1.0711 -0.2592 -1.5313
 5521SOL     OW17372   2.362   6.578   4.560  0.5125 -0.2192 -0.1929
 5521SOL    HW117373   2.301   6.534   4.620 -2.1811  0.7932 -2.0474
 5521SOL    HW217374   2.402   6.647   4.614  0.0713 -0.9121  1.0789
 5522SOL     OW17375   2.286   4.473   3.951  0.3560  0.0830 -0.2647
 5522SOL    HW117376   2.257   4.392   3.994  0.0818  0.5328  0.4134
 5522SOL    HW217377   2.205   4.520   3.931  0.5487  1.8299  2.5770
 5523SOL     OW17378   0.007   2.138   2.667  0.2130  0.3335 -0.1091
 5523SOL    HW117379   0.008   2.221   2.620 -1.8293 -0.3082 -1.3960
 5523SOL    HW217380   0.073   2.084   2.623 -0.5575  0.2909 -1.2634
 5524SOL     OW17381   0.452   5.223   5.564 -0.3875  0.1150 -0.5260
 5524SOL    HW117382   0.416   5.199   5.479 -2.5475  0.2407  0.2945
 5524SOL    HW217383   0.509   5.150   5.588 -2.0672 -1.3662 -0.8015
 5525SOL     OW17384   2.942   4.600   1.366  0.6399 -0.2288 -0.2346
 5525SOL    HW117385   2.973   4.520   1.408 -0.8947 -0.1648  1.0972
 5525SOL    HW217386   2.876   4.635   1.425 -0.6871  0.5797 -2.1000
 5526SOL     OW17387   7.517   2.525   7.615  0.3793  0.5756 -0.0073
 5526SOL    HW117388   7.500   2.589   7.546 -1.0251 -0.2304 -0.4462
 5526SOL    HW217389   7.576   2.461   7.574 -1.2524 -0.4651 -0.8766
 5527SOL     OW17390   1.470   3.206   3.452 -0.0561 -0.2304 -0.1852
 5527SOL    HW117391   1.532   3.133   3.450  1.2874  0.7711  1.7269
 5527SOL    HW217392   1.524   3.283   3.466 -1.5080  1.0837 -1.4395
 5528SOL     OW17393   7.076   4.672   0.122 -0.0123 -0.0673  0.2296
 5528SOL    HW117394   7.090   4.743   0.185  2.6618 -0.4613  0.1870
 5528SOL    HW217395   7.076   4.592   0.174  0.0712 -0.2413 -0.0348
 5529SOL     OW17396   0.171   7.064   2.579  0.0609 -0.7945  0.3433
 5529SOL    HW117397   0.112   7.056   2.653 -1.0535 -0.1575 -0.4459
 5529SOL    HW217398   0.117   7.040   2.503  0.6674  0.2879 -0.4462
 5530SOL     OW17399   1.290   6.514   3.179 -0.1972 -0.3570 -0.1075
 5530SOL    HW117400   1.382   6.491   3.181 -0.3284 -0.9414 -0.5333
 5530SOL    HW217401   1.244   6.431   3.175 -0.8402 -0.1590  2.2281
 5531SOL     OW17402   4.780   6.713   4.050 -0.0917 -0.6606 -0.1713
 5531SOL    HW117403   4.773   6.711   3.955 -0.7847 -2.2732 -0.1225
 5531SOL    HW217404   4.842   6.643   4.071 -0.2558 -0.5872  0.5902
 5532SOL     OW17405   3.606   5.523   6.786  0.1928 -0.7155  0.1901
 5532SOL    HW117406   3.669   5.451   6.784  0.7064 -0.2641 -0.2126
 5532SOL    HW217407   3.659   5.602   6.799 -0.1842 -0.2335 -0.9680
 5533SOL     OW17408   0.397   2.920   2.230  0.0418 -0.0680  0.3312
 5533SOL    HW117409   0.429   2.854   2.169 -0.2659 -0.0954  0.1984
 5533SOL    HW217410   0.303   2.903   2.237 -0.0887  0.5271  0.0830
 5534SOL     OW17411   0.980   3.366   5.823  0.1230 -0.3036  0.2756
 5534SOL    HW117412   0.925   3.415   5.763  1.1803  1.3714  0.5920
 5534SOL    HW217413   0.928   3.358   5.903 -0.8988 -1.6739 -0.4783
 5535SOL     OW17414   1.133   6.961   4.972 -0.3112 -0.2497  0.0192
 5535SOL    HW117415   1.133   7.054   4.993 -0.2361 -0.1259 -0.5162
 5535SOL    HW217416   1.217   6.929   5.004  0.3825  0.2144 -1.2567
 5536SOL     OW17417   7.234   7.469   5.392 -0.4309  0.2983  0.2565
 5536SOL    HW117418   7.178   7.536   5.430 -0.9746  0.4487 -0.8021
 5536SOL    HW217419   7.219   7.475   5.298 -2.2329 -2.8240  0.2369
 5537SOL     OW17420   7.042   6.127   3.395 -0.3808 -0.5139 -0.4924
 5537SOL    HW117421   6.972   6.062   3.393 -0.0253 -0.9202 -0.0940
 5537SOL    HW217422   7.003   6.203   3.438 -0.4787 -0.8654  0.0563
 5538SOL     OW17423   0.150   4.280   4.860 -1.1034  0.8120 -0.2043
 5538SOL    HW117424   0.212   4.316   4.922 -0.5197  0.5397 -0.6197
 5538SOL    HW217425   0.064   4.311   4.890 -0.8943  0.2636  1.0302
 5539SOL     OW17426   2.197   1.649   0.304 -0.1001  0.8141  0.2134
 5539SOL    HW117427   2.154   1.639   0.219  0.1375 -0.5819  0.2432
 5539SOL    HW217428   2.132   1.622   0.368  0.3860 -0.0727  0.3403
 5540SOL     OW17429   2.027   4.611   1.482  0.4949 -0.1342 -0.1880
 5540SOL    HW117430   2.080   4.674   1.434 -0.1641  0.4529 -0.1521
 5540SOL    HW217431   2.059   4.525   1.452 -0.0503  0.2048 -1.8478
 5541SOL     OW17432   6.787   6.097   2.964  0.4003 -0.6052 -0.4033
 5541SOL    HW117433   6.851   6.077   2.896  0.4928  2.7686 -1.4817
 5541SOL    HW217434   6.702   6.089   2.920  0.5032  3.0886 -1.5764
 5542SOL     OW17435   1.927   6.242   4.109 -0.4786 -0.2585 -0.1369
 5542SOL    HW117436   1.899   6.204   4.026 -0.6399 -0.2134 -0.1038
 5542SOL    HW217437   1.852   6.296   4.137 -0.9910 -1.4007  0.7510
 5543SOL     OW17438   4.792   1.990   4.117  0.0790 -0.6282  0.3055
 5543SOL    HW117439   4.737   1.912   4.120 -0.4222 -0.3785 -1.3313
 5543SOL    HW217440   4.854   1.978   4.189 -1.9223 -1.0416  2.0652
 5544SOL     OW17441   5.475   2.613   2.368 -0.5616  0.6808  0.0955
 5544SOL    HW117442   5.422   2.647   2.441 -0.4760 -1.7086  1.3589
 5544SOL    HW217443   5.422   2.543   2.331  0.9494 -0.6198  0.2964
 5545SOL     OW17444   5.439   7.676   1.601  0.1671  0.1228  0.5890
 5545SOL    HW117445   5.397   7.590   1.603  0.7281 -0.1614  0.2859
 5545SOL    HW217446   5.524   7.660   1.561 -0.9486  1.3574 -2.5976
 5546SOL     OW17447   3.250   2.171   7.954  0.0049  0.4288 -0.1757
 5546SOL    HW117448   3.192   2.109   7.910  0.8051  0.0641 -0.7366
 5546SOL    HW217449   3.258   2.138   8.043  0.2307 -0.1326 -0.4048
 5547SOL     OW17450   2.335   1.503   5.547 -0.0509  0.1555  0.1637
 5547SOL    HW117451   2.346   1.497   5.642  1.9730 -0.6364 -0.0653
 5547SOL    HW217452   2.423   1.489   5.512 -0.7329  0.5350 -1.8391
 5548SOL     OW17453   7.610   3.819   3.044  0.5834  0.3226  0.0560
 5548SOL    HW117454   7.536   3.795   2.989  0.7703 -1.2497  0.4336
 5548SOL    HW217455   7.589   3.907   3.075 -1.0282 -0.0045 -0.0027
 5549SOL     OW17456   6.350   2.762   6.572 -0.4148  0.7993  0.0043
 5549SOL    HW117457   6.265   2.777   6.530  0.1992 -1.4957 -2.3235
 5549SOL    HW217458   6.414   2.779   6.503  0.6825 -2.5214 -0.0048
 5550SOL     OW17459   5.019   1.087   7.068  0.4084 -0.1679 -0.1466
 5550SOL    HW117460   5.058   1.082   6.981  1.8891  0.6969  0.4357
 5550SOL    HW217461   5.088   1.122   7.124 -0.9450  0.6253  1.1089
 5551SOL     OW17462   4.299   7.185   0.760  0.1100 -0.0849 -0.0783
 5551SOL    HW117463   4.320   7.188   0.667  1.4459 -1.1598  0.1553
 5551SOL    HW217464   4.224   7.125   0.766 -0.4802  0.5991 -0.5262
 5552SOL     OW17465   6.186   6.833   7.631 -0.4956  0.0588 -0.0891
 5552SOL    HW117466   6.161   6.752   7.675  0.3893  0.8143  1.9375
 5552SOL    HW217467   6.270   6.812   7.589 -0.6497 -0.2751 -0.2356
 5553SOL     OW17468   3.219   3.831   4.353 -0.5040 -0.2739  0.7205
 5553SOL    HW117469   3.237   3.840   4.259  0.7199  1.9825  1.0955
 5553SOL    HW217470   3.124   3.823   4.358 -0.7095  0.7685 -0.6765
 5554SOL     OW17471   7.593   6.873   3.238  0.1464 -0.3487  0.2451
 5554SOL    HW117472   7.661   6.873   3.306 -0.7356  2.4595  1.3230
 5554SOL    HW217473   7.546   6.956   3.253 -2.4988 -1.4285 -1.4452
 5555SOL     OW17474   3.939   0.343   5.952  0.6229  0.3418 -0.3100
 5555SOL    HW117475   3.867   0.330   5.891 -0.7444  3.0920  0.5336
 5555SOL    HW217476   3.973   0.255   5.969 -2.9690 -1.1865 -0.2320
 5556SOL     OW17477   1.520   4.348   7.298  0.1401 -0.5212 -0.6867
 5556SOL    HW117478   1.428   4.352   7.324  0.3099 -0.1531 -0.1317
 5556SOL    HW217479   1.531   4.423   7.239 -0.0703 -0.9465 -1.2792
 5557SOL     OW17480   0.194   2.075   1.401  0.3602 -0.4497  0.5077
 5557SOL    HW117481   0.193   2.165   1.368 -0.6106 -0.7842 -0.4477
 5557SOL    HW217482   0.242   2.026   1.334  1.6646 -0.5099  1.4559
 5558SOL     OW17483   0.273   5.735   2.287  0.6548  0.1182  0.6999
 5558SOL    HW117484   0.338   5.805   2.290  1.7289 -0.8486  0.5430
 5558SOL    HW217485   0.250   5.720   2.379  0.2391  0.8299  0.7175
 5559SOL     OW17486   0.255   6.864   4.396  0.5470  0.0427  0.0270
 5559SOL    HW117487   0.250   6.812   4.316  1.4012 -1.3715  0.8533
 5559SOL    HW217488   0.318   6.818   4.451 -0.9577  0.2220  2.0462
 5560SOL     OW17489   2.586   3.574   6.244 -0.1343 -0.3938  0.0657
 5560SOL    HW117490   2.504   3.619   6.225 -0.2074 -0.3270  0.5421
 5560SOL    HW217491   2.653   3.634   6.211 -0.1597  0.7750  1.9920
 5561SOL     OW17492   5.980   1.795   4.985 -0.0366  0.7558 -0.5697
 5561SOL    HW117493   5.993   1.745   4.905 -0.0402  0.3756 -0.3371
 5561SOL    HW217494   5.937   1.875   4.956 -0.7764  0.2692 -0.8568
 5562SOL     OW17495   6.416   2.548   4.670  0.0059 -0.6852  1.0220
 5562SOL    HW117496   6.334   2.553   4.622 -0.0398  0.4131  1.1718
 5562SOL    HW217497   6.448   2.459   4.655 -0.7051 -0.8042  0.1349
 5563SOL     OW17498   4.563   0.118   3.627 -0.2210  0.0939  0.0488
 5563SOL    HW117499   4.615   0.131   3.547 -1.0281 -0.0353 -0.5090
 5563SOL    HW217500   4.617   0.061   3.682 -0.7542 -2.0903 -1.5394
 5564SOL     OW17501   4.538   6.441   2.787 -0.1526  0.2466  0.0191
 5564SOL    HW117502   4.550   6.523   2.834  0.0428  1.1872 -1.6197
 5564SOL    HW217503   4.443   6.433   2.776 -0.0975  1.5228 -1.8919
 5565SOL     OW17504   5.828   4.887   2.594  0.9110  0.1567 -0.0390
 5565SOL    HW117505   5.821   4.798   2.628  0.7927 -1.7667 -4.3766
 5565SOL    HW217506   5.920   4.910   2.604  1.4740 -1.5163 -0.9872
 5566SOL     OW17507   5.932   5.591   5.393  0.2390  0.4083  0.3425
 5566SOL    HW117508   6.022   5.565   5.377  0.1170  0.5549 -0.6063
 5566SOL    HW217509   5.879   5.529   5.342 -0.1988  0.4244  0.7609
 5567SOL     OW17510   0.800   7.235   6.509 -0.1590  0.5342  0.0569
 5567SOL    HW117511   0.841   7.195   6.433  1.8143 -0.5212  1.5661
 5567SOL    HW217512   0.770   7.161   6.562 -2.0020  1.2515  0.0774
 5568SOL     OW17513   2.021   1.763   3.682 -0.5837 -0.1610  0.1140
 5568SOL    HW117514   1.966   1.802   3.750 -0.0484  2.0838 -0.6717
 5568SOL    HW217515   1.994   1.806   3.601 -0.4632 -2.0120 -0.9719
 5569SOL     OW17516   5.575   3.656   1.532  0.2439  0.3069  0.4288
 5569SOL    HW117517   5.615   3.706   1.460  1.0059  2.1322  2.0335
 5569SOL    HW217518   5.515   3.596   1.488  0.4690  1.5304 -1.7234
 5570SOL     OW17519   7.862   6.617   5.069 -0.1765  0.0247 -0.0890
 5570SOL    HW117520   7.886   6.661   4.988  1.7217 -1.1686 -0.2441
 5570SOL    HW217521   7.920   6.655   5.135 -0.7413  0.0055  0.4267
 5571SOL     OW17522   7.287   7.272   2.512  0.0386  0.1487  0.1059
 5571SOL    HW117523   7.321   7.290   2.600  2.8342 -1.1248 -0.5952
 5571SOL    HW217524   7.317   7.183   2.493  1.7838  1.2513 -3.0719
 5572SOL     OW17525   4.834   3.333   3.083 -1.2005 -0.0634  0.2165
 5572SOL    HW117526   4.908   3.277   3.058 -2.2765 -1.6457  0.4455
 5572SOL    HW217527   4.771   3.322   3.012 -1.9054 -0.0699  0.8308
 5573SOL     OW17528   6.921   5.499   2.828  0.0230  0.5381  0.8140
 5573SOL    HW117529   6.876   5.582   2.842 -1.0843 -0.0772  1.0380
 5573SOL    HW217530   6.986   5.517   2.761  0.7393  1.9125  1.8489
 5574SOL     OW17531   3.874   2.619   7.101  0.5791 -0.1181  0.2389
 5574SOL    HW117532   3.840   2.707   7.117  0.7024 -0.4026  2.5253
 5574SOL    HW217533   3.798   2.562   7.105  0.7330 -0.2952  0.8287
 5575SOL     OW17534   3.627   0.942   4.782 -0.1375  0.0550  0.0964
 5575SOL    HW117535   3.668   0.908   4.702 -0.0117  1.3190 -0.4013
 5575SOL    HW217536   3.651   0.878   4.849  2.4001  0.5204 -0.2377
 5576SOL     OW17537   0.110   1.209   7.607 -0.2773  0.0783  0.2574
 5576SOL    HW117538   0.015   1.203   7.617 -0.5741  2.0488 -0.7442
 5576SOL    HW217539   0.144   1.199   7.696 -1.2333 -2.5788  0.3964
 5577SOL     OW17540   7.410   1.923   0.567 -0.1304  0.0510  0.8175
 5577SOL    HW117541   7.386   1.887   0.482  0.3296 -1.0300  1.1216
 5577SOL    HW217542   7.503   1.942   0.559  0.0897 -0.7619  1.2951
 5578SOL     OW17543   0.663   2.621   6.240  0.0453  0.0971 -0.2635
 5578SOL    HW117544   0.695   2.538   6.277  1.1392  0.6901  0.1646
 5578SOL    HW217545   0.602   2.594   6.171  0.7477 -1.0763 -0.4611
 5579SOL     OW17546   6.026   6.876   1.583  0.2112  0.5644 -0.4719
 5579SOL    HW117547   6.113   6.916   1.596 -0.2101  2.1227 -2.0467
 5579SOL    HW217548   6.012   6.824   1.661  2.8448 -0.2392 -0.4401
 5580SOL     OW17549   5.757   6.846   0.113 -0.0635  0.1981 -0.4247
 5580SOL    HW117550   5.728   6.901   0.040 -1.1750  0.6839  0.3782
 5580SOL    HW217551   5.757   6.903   0.189  0.5864 -0.4409  0.0781
 5581SOL     OW17552   4.257   4.605   3.166 -0.2122 -0.1948 -0.5829
 5581SOL    HW117553   4.170   4.577   3.195 -0.2732  0.6770  0.1119
 5581SOL    HW217554   4.255   4.594   3.071 -1.3393  0.4765 -0.6581
 5582SOL     OW17555   7.244   6.315   2.321  0.4949  0.0384 -0.0794
 5582SOL    HW117556   7.155   6.289   2.343  0.0967 -0.4603 -2.0768
 5582SOL    HW217557   7.296   6.236   2.332  1.0466  0.7069  2.6270
 5583SOL     OW17558   1.783   7.621   4.528 -0.2187  0.3597  0.4192
 5583SOL    HW117559   1.760   7.703   4.571  1.0357  0.4001  1.0921
 5583SOL    HW217560   1.760   7.634   4.436 -1.7862  0.7482  0.8450
 5584SOL     OW17561   7.731   7.380   4.046  0.2233  0.2038 -0.2308
 5584SOL    HW117562   7.712   7.398   3.954 -1.6823 -1.5989 -0.2557
 5584SOL    HW217563   7.785   7.301   4.044  0.7862  0.5680  0.2056
 5585SOL     OW17564   4.935   3.326   0.912 -0.6031 -0.8945 -0.3363
 5585SOL    HW117565   4.972   3.278   0.986  0.9339  3.3157  1.9392
 5585SOL    HW217566   4.847   3.350   0.941 -0.0340  0.6854  0.1463
 5586SOL     OW17567   1.613   1.069   0.982  0.5024  0.0195  0.0382
 5586SOL    HW117568   1.706   1.090   0.973  0.9253 -1.6426  0.2561
 5586SOL    HW217569   1.575   1.148   1.020  2.1636  0.0864  1.7114
 5587SOL     OW17570   2.447   1.604   0.823  0.0547 -0.2957  0.2782
 5587SOL    HW117571   2.537   1.598   0.857 -0.7493 -1.5509  2.4552
 5587SOL    HW217572   2.440   1.692   0.788  2.4368 -0.5166 -0.9641
 5588SOL     OW17573   5.756   4.760   7.238  0.3127  0.5873 -0.2819
 5588SOL    HW117574   5.670   4.789   7.269  0.4619 -0.3879  1.1666
 5588SOL    HW217575   5.738   4.684   7.183  0.2723 -0.0844  0.6372
 5589SOL     OW17576   2.927   1.683   2.914 -0.1070  0.2298 -0.1512
 5589SOL    HW117577   2.859   1.750   2.921  0.2200  0.4836  0.8052
 5589SOL    HW217578   3.007   1.731   2.894 -0.1774 -0.0552 -1.1530
 5590SOL     OW17579   5.837   4.893   7.621 -0.2643  0.0280  0.6394
 5590SOL    HW117580   5.888   4.871   7.543 -0.4948  1.3488  0.1044
 5590SOL    HW217581   5.898   4.878   7.693  0.6582  0.8573  0.0572
 5591SOL     OW17582   0.911   3.451   7.705 -0.4293 -0.3740 -0.1878
 5591SOL    HW117583   0.988   3.433   7.760  0.8047  0.4768 -1.5788
 5591SOL    HW217584   0.925   3.540   7.673 -1.8580 -0.3231 -0.7158
 5592SOL     OW17585   5.287   6.297   5.200 -0.0564 -0.7023  0.3885
 5592SOL    HW117586   5.236   6.264   5.274  0.5954  2.6212  2.5531
 5592SOL    HW217587   5.239   6.375   5.171  0.2875 -1.3263 -2.0803
 5593SOL     OW17588   7.056   0.855   3.698 -0.5660  1.1593 -0.4181
 5593SOL    HW117589   7.118   0.877   3.768 -1.0814  2.0424 -0.2251
 5593SOL    HW217590   7.111   0.816   3.630 -0.0710  0.1639  0.5110
 5594SOL     OW17591   1.292   6.536   0.167  0.3008 -0.4443  0.3108
 5594SOL    HW117592   1.267   6.592   0.240 -0.3071 -0.5475  0.1850
 5594SOL    HW217593   1.247   6.573   0.091  1.3404 -0.0248 -0.1187
 5595SOL     OW17594   4.889   2.231   3.337 -0.6098  0.2408 -0.2236
 5595SOL    HW117595   4.954   2.235   3.267 -0.0762 -0.4601  0.2209
 5595SOL    HW217596   4.929   2.176   3.404 -2.1627 -1.3207 -0.5084
 5596SOL     OW17597   2.370   1.961   2.615  0.3542  0.4723  0.5594
 5596SOL    HW117598   2.392   1.868   2.617 -3.5384 -0.6444  0.4244
 5596SOL    HW217599   2.345   1.981   2.706 -3.9483 -0.2882 -0.2386
 5597SOL     OW17600   1.300   0.282   7.773  0.1876  0.8912 -0.2584
 5597SOL    HW117601   1.295   0.300   7.867 -0.9874  0.7501 -0.2832
 5597SOL    HW217602   1.381   0.232   7.763  0.1638  0.6270  0.7282
 5598SOL     OW17603   0.269   5.802   7.813 -0.0176  0.5336  0.2597
 5598SOL    HW117604   0.336   5.735   7.803 -0.1904  0.3853  0.0827
 5598SOL    HW217605   0.187   5.758   7.788 -0.1814  0.7096  0.4793
 5599SOL     OW17606   3.121   3.333   0.633 -0.2584  0.1506  0.1741
 5599SOL    HW117607   3.033   3.338   0.596 -0.1887  0.1090  0.0025
 5599SOL    HW217608   3.161   3.417   0.611 -0.4642  0.4160  0.7871
 5600SOL     OW17609   6.984   5.669   3.262  0.2781 -0.5798  0.4297
 5600SOL    HW117610   6.995   5.744   3.204  1.1492 -0.3922  0.8113
 5600SOL    HW217611   6.905   5.688   3.312  1.0730  0.6472  1.2898
 5601SOL     OW17612   7.683   5.359   2.256  0.3749 -0.2466 -0.0352
 5601SOL    HW117613   7.681   5.438   2.311  1.4506 -0.8851  0.9658
 5601SOL    HW217614   7.665   5.391   2.168  0.3059  1.0492  0.4222
 5602SOL     OW17615   1.770   6.559   3.741 -0.8520  0.5973 -0.0245
 5602SOL    HW117616   1.697   6.502   3.766 -0.6565  0.6612  0.7331
 5602SOL    HW217617   1.804   6.592   3.824 -0.7039  1.5003 -0.4324
 5603SOL     OW17618   3.739   2.721   3.576  0.0739 -0.2852  0.6813
 5603SOL    HW117619   3.740   2.783   3.504  1.3696 -0.1671  0.7685
 5603SOL    HW217620   3.648   2.693   3.583 -0.3671  0.9222  0.0608
 5604SOL     OW17621   7.665   4.214   2.373  0.6082  0.0288 -0.5375
 5604SOL    HW117622   7.604   4.160   2.323  1.3577 -0.8767 -0.5082
 5604SOL    HW217623   7.641   4.304   2.351 -2.6494 -0.1102  1.7478
 5605SOL     OW17624   7.187   6.110   0.931 -0.4451 -0.2737 -0.4502
 5605SOL    HW117625   7.222   6.183   0.880 -2.5429  0.1414 -1.3736
 5605SOL    HW217626   7.174   6.147   1.019  1.5698 -0.5127 -0.0038
 5606SOL     OW17627   7.592   1.092   2.121 -0.1523 -0.2092  0.1292
 5606SOL    HW117628   7.645   1.012   2.120  0.2921  0.0872 -0.1523
 5606SOL    HW217629   7.617   1.136   2.202  1.3063  0.7688 -0.8137
 5607SOL     OW17630   7.184   4.273   0.851 -0.2030 -0.1963 -0.0920
 5607SOL    HW117631   7.183   4.369   0.851 -0.7437 -0.1952  0.1993
 5607SOL    HW217632   7.276   4.250   0.866 -0.0352  0.2748 -0.3866
 5608SOL     OW17633   2.580   0.931   3.843  0.6062 -0.2221 -0.1624
 5608SOL    HW117634   2.511   0.912   3.780 -0.1664  1.0092  0.2936
 5608SOL    HW217635   2.535   0.941   3.927  1.3190  0.6613  0.1322
 5609SOL     OW17636   4.017   5.040   1.021 -0.4578  0.2514  0.2675
 5609SOL    HW117637   4.096   4.988   1.006 -2.0427 -2.6678  1.1751
 5609SOL    HW217638   4.028   5.077   1.108  0.5970  1.3412 -0.2989
 5610SOL     OW17639   0.360   3.619   7.685  0.4393 -0.6004 -0.4848
 5610SOL    HW117640   0.334   3.554   7.749 -2.7482 -0.4337 -1.4773
 5610SOL    HW217641   0.422   3.573   7.628  1.8787 -1.2809  1.4896
 5611SOL     OW17642   6.242   4.553   3.320 -0.2570  0.6850  0.5330
 5611SOL    HW117643   6.210   4.642   3.311 -2.2266 -0.2257 -3.5812
 5611SOL    HW217644   6.175   4.508   3.372 -0.9984  0.8695 -0.2524
 5612SOL     OW17645   1.134   2.045   1.887  0.2071 -0.6039  0.9308
 5612SOL    HW117646   1.203   2.099   1.849 -0.0833 -0.7537  0.1806
 5612SOL    HW217647   1.173   2.008   1.966  0.3175  0.9373  1.6270
 5613SOL     OW17648   6.235   1.935   5.147  0.0097  0.3225  0.1261
 5613SOL    HW117649   6.326   1.921   5.120 -0.6165 -1.9139 -1.0597
 5613SOL    HW217650   6.207   2.012   5.099  1.0480  0.5687 -0.1090
 5614SOL     OW17651   5.438   1.130   1.283  0.8129  0.0116  0.4116
 5614SOL    HW117652   5.382   1.165   1.352  0.0203  0.1436 -0.2862
 5614SOL    HW217653   5.493   1.065   1.328 -1.0303 -1.3389  0.8263
 5615SOL     OW17654   7.885   4.414   6.980  0.7151 -0.5452  0.2456
 5615SOL    HW117655   7.949   4.437   7.048  1.7327 -1.4341 -0.3638
 5615SOL    HW217656   7.863   4.323   6.999  0.5731 -0.6217 -0.2780
 5616SOL     OW17657   4.439   5.514   2.359 -0.0239  0.4219 -0.0022
 5616SOL    HW117658   4.485   5.497   2.441  0.7036 -0.6996 -0.6048
 5616SOL    HW217659   4.476   5.451   2.297  0.5286  2.2013 -1.6023
 5617SOL     OW17660   2.543   2.152   7.968  1.0015 -0.2829  0.3927
 5617SOL    HW117661   2.497   2.158   7.884  0.7495 -0.5395  0.5141
 5617SOL    HW217662   2.592   2.235   7.974  1.8820 -0.7285 -0.5041
 5618SOL     OW17663   3.880   1.778   6.295  0.1008  0.8534 -0.9306
 5618SOL    HW117664   3.874   1.690   6.332 -1.2905  0.1956 -2.5558
 5618SOL    HW217665   3.948   1.822   6.346  1.0398 -1.2567 -0.2782
 5619SOL     OW17666   7.859   5.444   5.710 -0.2256  0.1367 -0.1039
 5619SOL    HW117667   7.899   5.523   5.675 -0.6979  0.5376  0.2451
 5619SOL    HW217668   7.915   5.419   5.783 -1.2307  1.3724  1.1420
 5620SOL     OW17669   1.095   0.258   7.218  0.2209  0.5653  0.2299
 5620SOL    HW117670   1.190   0.245   7.218  0.0241 -0.9633 -0.2907
 5620SOL    HW217671   1.067   0.237   7.130 -0.6967  0.3467  0.5636
 5621SOL     OW17672   3.446   7.505   3.058 -0.0743  0.0484 -0.3888
 5621SOL    HW117673   3.492   7.578   3.100 -0.0759  0.9234 -1.8538
 5621SOL    HW217674   3.483   7.427   3.100 -0.9548  0.8739  2.1061
 5622SOL     OW17675   2.805   6.222   3.814  0.2447  0.1014  0.2848
 5622SOL    HW117676   2.855   6.293   3.854  0.2109  0.0177  0.4786
 5622SOL    HW217677   2.831   6.144   3.863 -0.3053  0.1049  0.5940
 5623SOL     OW17678   1.899   7.741   5.357 -0.5718 -0.2979 -0.4534
 5623SOL    HW117679   1.899   7.827   5.400  0.8200 -0.3739 -0.2724
 5623SOL    HW217680   1.906   7.761   5.264  1.4281 -0.2093 -0.3256
 5624SOL     OW17681   0.612   4.911   7.501 -0.0792 -0.2124 -0.0868
 5624SOL    HW117682   0.527   4.950   7.480 -1.8803 -2.3377  2.5281
 5624SOL    HW217683   0.638   4.953   7.583  1.0464 -0.1318 -0.4681
 5625SOL     OW17684   5.151   3.324   7.004 -0.0221 -0.2995  0.3026
 5625SOL    HW117685   5.076   3.303   7.060  0.1761  0.8755  1.0598
 5625SOL    HW217686   5.193   3.398   7.048 -0.2705  1.1695 -1.7718
 5626SOL     OW17687   0.872   4.705   7.974 -0.4721 -0.5472 -0.5529
 5626SOL    HW117688   0.778   4.704   7.992 -0.7066  0.3398 -1.6544
 5626SOL    HW217689   0.910   4.742   8.054 -0.9035 -2.1436  0.4398
 5627SOL     OW17690   5.824   7.472   2.023  0.6691  0.0314 -0.4902
 5627SOL    HW117691   5.758   7.432   2.079  0.3926  0.1465 -0.7341
 5627SOL    HW217692   5.861   7.543   2.076  2.2479 -1.4722  0.5441
 5628SOL     OW17693   7.233   5.536   3.414 -0.6630 -0.0024  0.0516
 5628SOL    HW117694   7.328   5.547   3.412 -0.8892  2.8071  0.7145
 5628SOL    HW217695   7.210   5.547   3.506 -1.5631 -1.9709  0.1030
 5629SOL     OW17696   1.166   6.244   7.081 -0.2268 -0.1777  0.4790
 5629SOL    HW117697   1.164   6.159   7.038  0.8168  0.5149 -1.0770
 5629SOL    HW217698   1.075   6.265   7.098 -0.4511 -1.9754  1.7215
 5630SOL     OW17699   1.983   3.288   2.484 -0.0705  0.3867  0.1057
 5630SOL    HW117700   2.009   3.317   2.396 -0.7771 -0.0854 -0.2714
 5630SOL    HW217701   2.059   3.305   2.539  1.0516 -0.9477 -0.9576
 5631SOL     OW17702   5.353   3.037   7.481  0.8009 -0.0093  0.2420
 5631SOL    HW117703   5.379   3.118   7.437 -0.0850  0.0984 -0.1057
 5631SOL    HW217704   5.422   3.021   7.544  1.6621  0.3031 -0.6036
 5632SOL     OW17705   5.033   2.758   6.309 -0.4950 -1.0128  0.1603
 5632SOL    HW117706   5.102   2.798   6.362 -1.5709  1.0179  0.1541
 5632SOL    HW217707   5.025   2.669   6.343  0.4102 -0.4948  1.8535
 5633SOL     OW17708   7.824   0.688   3.767  0.1608 -0.1008  0.3677
 5633SOL    HW117709   7.780   0.604   3.782  1.3209 -1.7182 -3.8759
 5633SOL    HW217710   7.759   0.742   3.723  0.1395  0.3674  0.9637
 5634SOL     OW17711   6.904   1.733   0.117  0.1394  0.5477  0.0172
 5634SOL    HW117712   6.980   1.759   0.065 -0.2697 -1.0489 -1.4595
 5634SOL    HW217713   6.889   1.642   0.093 -1.2424  0.3258  1.5510
 5635SOL     OW17714   5.791   2.232   1.837 -0.0953  0.0121  0.0150
 5635SOL    HW117715   5.800   2.139   1.818  0.3148 -0.2146  1.2130
 5635SOL    HW217716   5.783   2.274   1.751  1.5588 -0.9331 -0.6488
 5636SOL     OW17717   3.361   3.869   1.309  0.3606 -0.6238 -0.0900
 5636SOL    HW117718   3.319   3.794   1.266  3.9730 -2.7173 -0.3502
 5636SOL    HW217719   3.345   3.942   1.249 -1.5972 -1.5696 -0.8336
 5637SOL     OW17720   1.217   1.549   5.542 -0.7327 -0.0837  0.2286
 5637SOL    HW117721   1.241   1.569   5.451  0.4560  3.2896  1.1551
 5637SOL    HW217722   1.152   1.615   5.564 -1.4960 -1.2818  1.6513
 5638SOL     OW17723   6.284   0.529   0.408 -0.2759  0.0431 -0.3389
 5638SOL    HW117724   6.255   0.560   0.323  0.1435  1.1921 -0.0846
 5638SOL    HW217725   6.216   0.468   0.436 -0.3454 -0.4556 -1.5425
 5639SOL     OW17726   5.868   2.792   5.346 -0.3003 -0.4219 -0.4477
 5639SOL    HW117727   5.791   2.736   5.351 -1.3098  0.8053 -1.6031
 5639SOL    HW217728   5.840   2.876   5.383  0.7313 -0.1802 -0.1603
 5640SOL     OW17729   4.413   5.386   1.024  0.0943 -0.4731  0.4693
 5640SOL    HW117730   4.324   5.411   1.047  0.8438  0.6862  2.3505
 5640SOL    HW217731   4.455   5.368   1.108  1.3989 -1.8841 -0.4404
 5641SOL     OW17732   0.216   2.429   5.099  0.1690 -0.0113 -0.4562
 5641SOL    HW117733   0.135   2.386   5.072  0.5621 -1.1760  0.1523
 5641SOL    HW217734   0.213   2.430   5.194 -0.0061  1.7138 -0.4442
 5642SOL     OW17735   1.473   4.414   5.305 -0.5544 -0.3113 -0.0476
 5642SOL    HW117736   1.472   4.348   5.236 -2.2800  0.1212 -0.4775
 5642SOL    HW217737   1.563   4.448   5.304 -0.0229 -1.6804 -0.7340
 5643SOL     OW17738   6.184   0.651   3.067  0.1188  0.1345  0.0105
 5643SOL    HW117739   6.093   0.632   3.089  0.2618 -0.3475  0.2024
 5643SOL    HW217740   6.186   0.653   2.971  0.1133 -0.9292 -0.0207
 5644SOL     OW17741   7.628   7.789   0.344 -0.1979  0.4948 -0.6976
 5644SOL    HW117742   7.605   7.718   0.284 -0.1392  0.3831 -0.5900
 5644SOL    HW217743   7.563   7.782   0.415  1.3893 -1.1868  0.7170
 5645SOL     OW17744   2.899   5.589   7.479  0.3001 -0.4704  0.0324
 5645SOL    HW117745   2.977   5.635   7.450  0.1430  1.7084  2.7033
 5645SOL    HW217746   2.835   5.659   7.496 -0.7246 -1.8149  2.0958
 5646SOL     OW17747   0.145   4.563   4.744  0.2241 -0.1827  0.1403
 5646SOL    HW117748   0.156   4.614   4.824  1.8709 -2.9325  1.8741
 5646SOL    HW217749   0.071   4.505   4.762  0.6633 -0.8915 -0.2645
 5647SOL     OW17750   3.229   4.527   7.598 -0.0298 -0.0168  0.2387
 5647SOL    HW117751   3.280   4.607   7.609  0.4780 -0.1615 -0.9158
 5647SOL    HW217752   3.224   4.515   7.503 -2.3761  0.1030  0.2777
 5648SOL     OW17753   2.858   3.387   5.206  0.7875  0.1933 -0.4160
 5648SOL    HW117754   2.765   3.375   5.227  0.6294  2.8604  0.8525
 5648SOL    HW217755   2.885   3.304   5.167 -1.3456 -1.8262  2.0414
 5649SOL     OW17756   1.077   4.044   0.520 -0.4004 -0.0543 -0.0038
 5649SOL    HW117757   1.096   4.133   0.549  0.6643 -0.2076 -0.1874
 5649SOL    HW217758   1.124   3.987   0.581 -0.6027 -0.4729 -0.2268
 5650SOL     OW17759   1.084   0.579   3.010 -0.3046  0.6514  0.0080
 5650SOL    HW117760   1.140   0.505   3.031 -1.1608  0.2864  1.1342
 5650SOL    HW217761   1.037   0.553   2.931  0.6548  0.7142 -0.5891
 5651SOL     OW17762   2.470   0.965   2.830 -0.0115 -0.0819  0.1341
 5651SOL    HW117763   2.540   0.901   2.847 -0.2829 -0.2249  0.7223
 5651SOL    HW217764   2.503   1.017   2.757  0.3870 -0.6372 -0.0892
 5652SOL     OW17765   6.910   7.180   3.224  0.4293  0.0635  0.4386
 5652SOL    HW117766   6.843   7.161   3.159  0.4415 -0.7717  0.6664
 5652SOL    HW217767   6.978   7.226   3.175 -0.7997  2.0096  0.4235
 5653SOL     OW17768   7.619   1.096   7.640 -0.2076 -0.0567 -0.5366
 5653SOL    HW117769   7.526   1.085   7.620 -0.1427 -3.3652  0.4714
 5653SOL    HW217770   7.628   1.066   7.730  2.0082 -0.8713 -0.9786
 5654SOL     OW17771   3.415   4.493   7.145  0.2960  0.6645 -0.4631
 5654SOL    HW117772   3.457   4.407   7.138 -0.2201  0.0761  2.2419
 5654SOL    HW217773   3.488   4.555   7.150  0.8349 -0.0338  1.0635
 5655SOL     OW17774   6.303   3.860   0.517 -0.0024  0.0219  0.2944
 5655SOL    HW117775   6.303   3.947   0.557  1.1945  0.1694 -0.0079
 5655SOL    HW217776   6.243   3.867   0.444 -0.2943  0.4497  0.5722
 5656SOL     OW17777   0.302   3.592   4.429  0.4279 -0.1529 -0.2770
 5656SOL    HW117778   0.242   3.643   4.374  0.3552  0.5811  0.4790
 5656SOL    HW217779   0.245   3.548   4.492  0.6891  0.7276  0.5907
 5657SOL     OW17780   7.936   4.801   2.008  0.0931  0.1124 -0.2288
 5657SOL    HW117781   7.956   4.891   1.982 -1.1742  0.1493 -1.1449
 5657SOL    HW217782   7.912   4.808   2.100 -1.3360  0.9657 -0.6265
 5658SOL     OW17783   5.199   5.151   7.338 -0.2537 -0.3561  1.0999
 5658SOL    HW117784   5.106   5.171   7.337 -0.0259  0.7722  1.3222
 5658SOL    HW217785   5.211   5.088   7.267 -0.6928  1.8065 -0.9765
 5659SOL     OW17786   1.216   0.745   6.884  0.3142 -0.2683  0.6325
 5659SOL    HW117787   1.191   0.702   6.803 -2.3237 -0.0629  1.2396
 5659SOL    HW217788   1.250   0.830   6.857 -1.0304  0.0160 -0.2911
 5660SOL     OW17789   0.423   7.944   2.155 -0.0916  0.2057 -0.1610
 5660SOL    HW117790   0.478   7.912   2.227  0.6375  1.3605 -0.1707
 5660SOL    HW217791   0.379   8.021   2.192 -1.3089 -0.4007 -0.3256
 5661SOL     OW17792   0.890   0.057   7.830 -0.0634 -0.2372  0.2732
 5661SOL    HW117793   0.800   0.042   7.801  0.1725  0.0886 -0.6783
 5661SOL    HW217794   0.883   0.071   7.924 -1.0068 -0.2527  0.2146
 5662SOL     OW17795   2.877   5.224   6.106 -0.2580 -0.2753  0.1841
 5662SOL    HW117796   2.955   5.185   6.067  1.1601 -0.4045  2.8469
 5662SOL    HW217797   2.895   5.318   6.107  1.0130 -0.4373  2.7367
 5663SOL     OW17798   0.711   7.283   3.369 -0.2501  0.2717 -0.0013
 5663SOL    HW117799   0.660   7.303   3.447 -1.8662  0.0640 -0.9609
 5663SOL    HW217800   0.717   7.366   3.321  0.7940  0.4153  0.3482
 5664SOL     OW17801   4.686   5.162   7.592  0.1687 -0.1026  0.1746
 5664SOL    HW117802   4.666   5.252   7.566  2.0148  0.4360  0.4780
 5664SOL    HW217803   4.770   5.143   7.549  0.3071 -1.3126  0.9335
 5665SOL     OW17804   1.682   0.502   3.648 -0.0785 -0.2639  0.3156
 5665SOL    HW117805   1.776   0.521   3.642  0.0423 -0.9374 -0.0469
 5665SOL    HW217806   1.675   0.439   3.721 -0.5362  1.4869  1.8654
 5666SOL     OW17807   6.354   6.250   5.510  0.0392  0.4326 -0.0143
 5666SOL    HW117808   6.363   6.277   5.602  0.6392 -0.8225  0.3206
 5666SOL    HW217809   6.442   6.225   5.483  0.1769  2.2520 -1.4560
 5667SOL     OW17810   1.452   4.391   6.718  0.1896 -0.0878 -0.3853
 5667SOL    HW117811   1.448   4.308   6.671 -1.1103  0.5582 -1.5025
 5667SOL    HW217812   1.432   4.457   6.651 -0.8036  0.9511  0.8888
 5668SOL     OW17813   3.178   4.708   0.269  0.3741 -0.3671 -0.2765
 5668SOL    HW117814   3.184   4.669   0.356  0.8398 -1.5784 -0.8297
 5668SOL    HW217815   3.088   4.742   0.264  0.1023 -0.9650  0.4096
 5669SOL     OW17816   5.286   7.506   6.328  0.4002  0.1243 -0.1319
 5669SOL    HW117817   5.194   7.503   6.303  0.1156  0.4617  0.8325
 5669SOL    HW217818   5.314   7.414   6.328 -0.6450 -0.2550  2.0168
 5670SOL     OW17819   7.097   5.171   7.647 -0.0040  0.6376 -0.1338
 5670SOL    HW117820   7.043   5.250   7.643  0.5724  1.0122 -0.7072
 5670SOL    HW217821   7.076   5.124   7.566  0.8154  0.9891 -0.5646
 5671SOL     OW17822   3.955   0.539   6.105 -0.3099  0.1315 -0.4034
 5671SOL    HW117823   4.045   0.569   6.115 -0.7445  1.8820 -1.3869
 5671SOL    HW217824   3.961   0.461   6.050  0.4701  1.2027 -1.8757
 5672SOL     OW17825   1.274   7.458   0.167 -0.3330  0.6078 -0.2450
 5672SOL    HW117826   1.236   7.472   0.254 -0.1259  0.6922 -0.1669
 5672SOL    HW217827   1.205   7.414   0.117  0.0607 -0.8221  0.4225
 5673SOL     OW17828   0.827   5.504   5.784  0.8702  0.4252  0.2865
 5673SOL    HW117829   0.740   5.465   5.770  0.0601  2.0425  0.5966
 5673SOL    HW217830   0.885   5.428   5.794 -0.1757 -0.7216 -1.7139
 5674SOL     OW17831   2.331   6.513   5.684 -0.1061  0.5652  0.2529
 5674SOL    HW117832   2.393   6.585   5.673  0.8953  0.2386  2.9183
 5674SOL    HW217833   2.339   6.489   5.776 -3.1786 -0.4886  0.3431
 5675SOL     OW17834   0.814   4.425   3.621 -0.2333 -0.1742 -0.2052
 5675SOL    HW117835   0.886   4.397   3.563  1.0842  0.7262  0.9424
 5675SOL    HW217836   0.805   4.519   3.604 -0.4109 -0.0726  0.4411
 5676SOL     OW17837   6.970   2.734   0.230 -0.6353  0.0969 -0.7120
 5676SOL    HW117838   6.965   2.734   0.135 -3.0119 -1.1013 -0.6606
 5676SOL    HW217839   6.905   2.800   0.257  0.4605  0.8867  0.1014
 5677SOL     OW17840   4.532   3.066   6.489 -0.8463  0.5230  0.0959
 5677SOL    HW117841   4.608   3.104   6.446  1.6549 -2.3601  1.5781
 5677SOL    HW217842   4.490   3.013   6.421  2.3632 -3.0168  0.5313
 5678SOL     OW17843   4.208   0.292   1.281  0.1088 -0.4466 -0.7791
 5678SOL    HW117844   4.143   0.225   1.261 -0.2325 -1.0489  1.9566
 5678SOL    HW217845   4.250   0.261   1.362 -0.9176  3.1934  1.3405
 5679SOL     OW17846   3.112   6.498   0.956  0.3797 -0.2669 -0.1018
 5679SOL    HW117847   3.043   6.433   0.946  0.0823  0.2512 -1.6319
 5679SOL    HW217848   3.070   6.581   0.937  0.8995  0.3337  1.2581
 5680SOL     OW17849   5.305   4.310   1.833  0.1205  0.5284 -0.2489
 5680SOL    HW117850   5.242   4.318   1.762  0.6596 -1.0972 -0.9625
 5680SOL    HW217851   5.313   4.216   1.848  0.3384  0.8235  1.6945
 5681SOL     OW17852   4.045   2.401   2.285 -0.3106 -0.3356 -0.8276
 5681SOL    HW117853   3.977   2.368   2.343  0.9419 -0.6566  0.5300
 5681SOL    HW217854   4.022   2.493   2.269 -1.2431 -0.5463 -0.7065
 5682SOL     OW17855   2.787   0.077   7.410 -0.1446  0.5436 -0.3400
 5682SOL    HW117856   2.727   0.002   7.400 -1.7347  1.8620 -1.1506
 5682SOL    HW217857   2.792   0.091   7.504 -1.5053  0.6621 -0.2586
 5683SOL     OW17858   2.977   4.991   7.601  0.1963  0.4868 -0.1224
 5683SOL    HW117859   2.886   5.010   7.581  0.1444  0.9677  0.5439
 5683SOL    HW217860   3.026   5.022   7.525 -0.2302 -0.2875 -0.7357
 5684SOL     OW17861   5.197   3.303   3.896  0.0812 -0.3243 -0.2472
 5684SOL    HW117862   5.291   3.310   3.912  0.6582 -1.6629 -2.6439
 5684SOL    HW217863   5.172   3.389   3.863  0.8082 -0.4137 -1.0756
 5685SOL     OW17864   6.042   1.499   4.553  0.1872  0.0232  0.2171
 5685SOL    HW117865   5.983   1.453   4.613 -0.2786 -0.3485 -0.5099
 5685SOL    HW217866   5.990   1.514   4.474  0.9844 -0.0782 -0.3438
 5686SOL     OW17867   1.036   2.549   3.859 -0.0610 -0.1916  0.3136
 5686SOL    HW117868   0.991   2.483   3.807 -1.1072 -0.3722  1.4050
 5686SOL    HW217869   1.043   2.625   3.800  1.9530 -1.4929 -1.2664
 5687SOL     OW17870   4.684   1.211   2.389  0.1798  0.1769 -0.1781
 5687SOL    HW117871   4.773   1.212   2.355  1.4909 -0.9095  2.8820
 5687SOL    HW217872   4.674   1.295   2.435  0.0510 -0.1666  0.4330
 5688SOL     OW17873   1.579   2.187   6.503 -0.2082  0.2644  0.4172
 5688SOL    HW117874   1.551   2.188   6.411  0.9565  1.8456  0.0329
 5688SOL    HW217875   1.675   2.189   6.498 -0.1439  1.0152  1.6622
 5689SOL     OW17876   2.190   0.189   7.336 -0.3576 -0.5078 -0.2667
 5689SOL    HW117877   2.242   0.180   7.256 -1.2650  0.4495 -0.9909
 5689SOL    HW217878   2.232   0.131   7.399  1.4588  0.0847 -0.8868
 5690SOL     OW17879   3.982   5.233   6.634  0.9094 -0.0722 -0.2895
 5690SOL    HW117880   3.983   5.209   6.727 -0.9360  1.8524  0.3206
 5690SOL    HW217881   4.019   5.322   6.633 -1.7680  1.1327 -0.8930
 5691SOL     OW17882   1.378   2.603   0.659 -0.3912 -0.3033  0.4946
 5691SOL    HW117883   1.324   2.679   0.681  0.0044 -0.2241  1.2364
 5691SOL    HW217884   1.444   2.636   0.599  0.2619  0.1283  1.4288
 5692SOL     OW17885   4.433   0.441   4.807 -0.6087  0.2557  0.7228
 5692SOL    HW117886   4.473   0.388   4.876  0.8363  0.5963  0.1899
 5692SOL    HW217887   4.503   0.499   4.778 -1.5371  0.9454 -0.2157
 5693SOL     OW17888   5.674   6.346   2.374 -0.0881 -0.1901  0.2737
 5693SOL    HW117889   5.684   6.389   2.289 -0.1854  1.7116  1.1901
 5693SOL    HW217890   5.699   6.255   2.357  1.8543  0.5791 -1.3461
 5694SOL     OW17891   4.708   1.574   5.806  0.4174 -0.5872 -0.1212
 5694SOL    HW117892   4.720   1.537   5.719 -0.3613  0.2080 -0.5812
 5694SOL    HW217893   4.665   1.658   5.791  1.1180 -0.0017  0.9660
 5695SOL     OW17894   7.360   5.249   7.721  0.0685 -0.8905 -0.3808
 5695SOL    HW117895   7.407   5.171   7.690 -1.0337 -1.9535  0.5234
 5695SOL    HW217896   7.270   5.237   7.690 -0.0113  0.2848 -0.6508
 5696SOL     OW17897   1.553   3.190   2.654  0.3451 -0.2909 -0.7440
 5696SOL    HW117898   1.522   3.279   2.637  1.3676  0.0408 -0.9023
 5696SOL    HW217899   1.647   3.199   2.667  0.5198 -1.4049 -1.1379
 5697SOL     OW17900   7.980   5.878   7.489 -0.4415  0.4085  0.0998
 5697SOL    HW117901   7.886   5.870   7.502 -0.2427 -0.5333  1.0345
 5697SOL    HW217902   8.000   5.968   7.516 -1.1701  0.8485 -0.7867
 5698SOL     OW17903   1.287   4.413   0.100  0.1118  0.2063 -0.4771
 5698SOL    HW117904   1.282   4.318   0.091  0.7827 -0.0001  1.1212
 5698SOL    HW217905   1.226   4.434   0.171  1.0426  0.8046  0.1602
 5699SOL     OW17906   5.783   5.842   2.676  0.5268 -0.3213 -0.1315
 5699SOL    HW117907   5.834   5.787   2.736  0.1911 -0.0596  0.4009
 5699SOL    HW217908   5.792   5.798   2.591  0.8236 -0.8227  0.1471
 5700SOL     OW17909   7.816   2.868   5.392 -0.0138  0.1560  0.0363
 5700SOL    HW117910   7.900   2.897   5.426 -0.2156  0.1846  0.5274
 5700SOL    HW217911   7.781   2.811   5.460 -0.4028  0.1691 -0.1491
 5701SOL     OW17912   6.781   5.455   1.043  0.0989  0.0786  0.1894
 5701SOL    HW117913   6.746   5.425   0.959  0.3908 -1.0471  0.4468
 5701SOL    HW217914   6.829   5.535   1.022  1.5740 -1.0644 -1.0399
 5702SOL     OW17915   7.938   1.145   6.585  0.7446 -0.6140  0.1405
 5702SOL    HW117916   8.021   1.118   6.625  0.7804  0.0252  0.5066
 5702SOL    HW217917   7.902   1.210   6.646  1.1669  0.9673 -1.2326
 5703SOL     OW17918   1.505   0.006   1.382 -0.1295 -0.1492 -0.1889
 5703SOL    HW117919   1.464  -0.061   1.328  0.8139 -0.9636  0.0611
 5703SOL    HW217920   1.598  -0.018   1.383 -0.2423 -0.8458  2.6746
 5704SOL     OW17921   4.859   4.560   7.902  0.3193  0.2737 -0.9071
 5704SOL    HW117922   4.941   4.553   7.950 -0.2150  0.7912  0.1191
 5704SOL    HW217923   4.883   4.593   7.815  1.0713  1.5239 -0.2347
 5705SOL     OW17924   1.156   6.129   6.503 -0.4963  0.0879  0.2052
 5705SOL    HW117925   1.117   6.172   6.579 -0.7086  0.7603 -0.2772
 5705SOL    HW217926   1.144   6.036   6.519 -0.2885  0.2098  1.1318
 5706SOL     OW17927   0.986   0.230   4.225  0.3384  0.2631  0.4800
 5706SOL    HW117928   1.015   0.319   4.242 -0.9193  0.7081  0.3240
 5706SOL    HW217929   0.896   0.238   4.194  0.7069 -0.9452 -1.0410
 5707SOL     OW17930   6.752   1.213   0.701 -0.1862  0.5219 -0.2693
 5707SOL    HW117931   6.771   1.306   0.707 -0.7203  0.6203  0.0130
 5707SOL    HW217932   6.656   1.208   0.697 -0.1296  0.0598 -1.7075
 5708SOL     OW17933   1.581   6.202   7.252 -0.4092  0.0736 -0.4295
 5708SOL    HW117934   1.512   6.256   7.212  0.7014  0.3167 -2.1324
 5708SOL    HW217935   1.631   6.264   7.305 -0.5598  0.2101 -0.4438
 5709SOL     OW17936   3.403   5.362   4.302  0.6324 -0.7562 -0.2268
 5709SOL    HW117937   3.489   5.390   4.269  0.4364  0.0957 -0.0371
 5709SOL    HW217938   3.365   5.442   4.339 -0.3879 -1.0577 -0.6190
 5710SOL     OW17939   7.207   4.519   2.496 -0.0601 -0.3705  0.0515
 5710SOL    HW117940   7.125   4.470   2.505  0.7389 -1.7577  0.1071
 5710SOL    HW217941   7.266   4.459   2.450  1.3692  0.0399  1.2636
 5711SOL     OW17942   0.852   7.278   5.271 -0.3398  0.0929  0.1433
 5711SOL    HW117943   0.887   7.193   5.299  2.3351  0.8741 -0.4986
 5711SOL    HW217944   0.783   7.298   5.335 -1.0743 -2.5424  0.2752
 5712SOL     OW17945   5.040   3.098   7.968 -0.1354 -0.1760 -0.4768
 5712SOL    HW117946   5.028   3.147   7.887 -0.8656 -0.0463 -0.2958
 5712SOL    HW217947   5.042   3.165   8.037 -0.9247 -0.3698 -0.2513
 5713SOL     OW17948   2.714   1.147   5.378  0.7946  0.3205 -0.1986
 5713SOL    HW117949   2.790   1.095   5.405  0.5263  0.7255  1.4200
 5713SOL    HW217950   2.658   1.086   5.330  1.2745 -0.4394  0.2038
 5714SOL     OW17951   0.931   4.129   1.418  0.1853 -0.3901  0.2833
 5714SOL    HW117952   0.836   4.128   1.408  0.1524 -0.0175  0.5720
 5714SOL    HW217953   0.962   4.063   1.355 -0.2637 -0.5473  0.2237
 5715SOL     OW17954   1.059   6.310   2.231 -0.2665  0.4207  0.2650
 5715SOL    HW117955   1.126   6.327   2.164  1.0786 -0.0363  1.4352
 5715SOL    HW217956   0.988   6.268   2.184  0.8127 -0.2679 -0.8228
 5716SOL     OW17957   1.705   7.697   1.462  0.3067 -0.1365  0.5986
 5716SOL    HW117958   1.685   7.715   1.370 -0.0394  1.7723  1.0218
 5716SOL    HW217959   1.781   7.752   1.481  1.7849 -2.1501  0.9072
 5717SOL     OW17960   5.495   2.208   5.727  0.4405 -0.7831  0.2632
 5717SOL    HW117961   5.413   2.171   5.758 -0.2866 -0.2761 -0.9666
 5717SOL    HW217962   5.555   2.133   5.723  0.2377 -1.0452  1.7491
 5718SOL     OW17963   3.702   4.654   0.701  0.1949  0.2620 -0.6808
 5718SOL    HW117964   3.671   4.683   0.787  1.4620  1.1419 -0.4920
 5718SOL    HW217965   3.622   4.633   0.653 -0.4992 -1.2541  1.0333
 5719SOL     OW17966   4.761   3.289   7.585 -0.7740 -0.0157 -0.3235
 5719SOL    HW117967   4.747   3.194   7.578  0.2818 -0.2861  0.9372
 5719SOL    HW217968   4.681   3.322   7.626  0.0708 -0.8442  2.1765
 5720SOL     OW17969   4.659   6.937   7.683 -0.3239 -0.4434  0.0227
 5720SOL    HW117970   4.676   6.893   7.600 -2.4180 -1.0424 -0.1578
 5720SOL    HW217971   4.613   6.871   7.735  1.6582 -0.3704  2.0147
 5721SOL     OW17972   1.652   3.741   0.789 -0.0601  0.0612 -0.6438
 5721SOL    HW117973   1.744   3.759   0.773 -0.4392  0.5433 -2.3786
 5721SOL    HW217974   1.605   3.814   0.750 -1.2753 -1.2551 -1.7853
 5722SOL     OW17975   0.817   6.174   2.834  0.3535 -0.4527 -0.5317
 5722SOL    HW117976   0.862   6.111   2.778 -2.3681 -1.5841 -1.6265
 5722SOL    HW217977   0.761   6.120   2.889  0.3304  0.8841  0.7887
 5723SOL     OW17978   5.511   2.926   0.218  0.3810  0.4735  0.1871
 5723SOL    HW117979   5.555   2.969   0.291 -0.1344 -0.2611  0.9445
 5723SOL    HW217980   5.500   2.995   0.153 -0.5253  1.5219  1.4034
 5724SOL     OW17981   1.017   7.560   4.438  0.1442  0.1289  0.3102
 5724SOL    HW117982   1.041   7.496   4.372  0.4443  0.1352  0.4094
 5724SOL    HW217983   1.089   7.557   4.501  0.6438  1.2571 -0.1866
 5725SOL     OW17984   7.334   5.012   4.715 -0.3806  0.2576 -0.2875
 5725SOL    HW117985   7.312   4.982   4.803  3.1958  0.1841  0.7216
 5725SOL    HW217986   7.390   5.089   4.729 -1.2686  1.4302 -2.5886
 5726SOL     OW17987   4.048   3.138   2.562 -0.4204 -0.5718 -0.0355
 5726SOL    HW117988   4.132   3.153   2.606 -0.0626  0.2641 -0.9702
 5726SOL    HW217989   4.024   3.224   2.527 -0.5142 -1.2873 -1.7938
 5727SOL     OW17990   7.357   4.887   5.564  0.1144 -0.3878 -0.5045
 5727SOL    HW117991   7.289   4.954   5.566  0.8257  0.3262  0.7859
 5727SOL    HW217992   7.429   4.924   5.614  0.3410 -2.2980  0.6726
 5728SOL     OW17993   6.519   1.864   7.837 -0.2358 -0.1525 -0.7293
 5728SOL    HW117994   6.484   1.849   7.749  2.0498 -0.8353 -1.6071
 5728SOL    HW217995   6.593   1.924   7.823  0.5734 -0.7903  0.6061
 5729SOL     OW17996   3.889   5.142   7.762  0.0105  0.4830  0.3843
 5729SOL    HW117997   3.867   5.203   7.692 -2.0790 -0.4954  0.0950
 5729SOL    HW217998   3.894   5.057   7.719 -0.2782  0.0109  1.2565
 5730SOL     OW17999   3.481   7.562   5.883  0.1279 -0.5804 -0.2590
 5730SOL    HW118000   3.533   7.482   5.886 -0.8502 -1.2532 -0.9603
 5730SOL    HW218001   3.405   7.540   5.830 -0.7552  0.4605  0.5336
 5731SOL     OW18002   0.057   3.474   5.909 -0.3651  0.5437  0.2349
 5731SOL    HW118003   0.023   3.468   5.998  2.5119 -1.3262  1.3780
 5731SOL    HW218004   0.029   3.392   5.867 -1.1247  1.1050 -0.3813
 5732SOL     OW18005   3.128   6.058   5.372 -0.2419  0.4753  0.5132
 5732SOL    HW118006   3.040   6.070   5.407 -0.5331  0.8422 -0.3343
 5732SOL    HW218007   3.185   6.068   5.449 -0.9181  0.4203  1.0340
 5733SOL     OW18008   4.693   7.996   1.798  0.3223 -0.3726 -0.2605
 5733SOL    HW118009   4.783   7.966   1.786 -0.1421 -2.8732  1.7432
 5733SOL    HW218010   4.698   8.091   1.784  2.9410 -0.6167 -1.6695
 5734SOL     OW18011   1.893   0.735   2.969 -0.2088  0.4818  0.1569
 5734SOL    HW118012   1.858   0.662   2.918  0.0842  0.5762 -0.1888
 5734SOL    HW218013   1.819   0.793   2.983 -0.8363 -0.6438  1.8348
 5735SOL     OW18014   5.470   6.962   3.816  0.3192 -0.5261 -0.2538
 5735SOL    HW118015   5.400   6.918   3.767  0.0968  0.6889 -1.0938
 5735SOL    HW218016   5.550   6.918   3.788  0.1501 -0.1195 -1.4642
 5736SOL     OW18017   1.381   5.232   6.527 -0.5332 -0.2362 -0.1457
 5736SOL    HW118018   1.461   5.195   6.490 -0.9377 -0.4168 -0.8545
 5736SOL    HW218019   1.359   5.174   6.600  0.0215 -0.1369  0.1079
 5737SOL     OW18020   6.530   4.648   4.571  0.2711 -0.0531  0.2523
 5737SOL    HW118021   6.460   4.585   4.549  1.4846 -1.4507  0.2298
 5737SOL    HW218022   6.549   4.631   4.663  2.6873 -1.9499 -0.4855
 5738SOL     OW18023   5.229   4.194   2.728 -0.8889  0.1963 -0.2332
 5738SOL    HW118024   5.171   4.131   2.770  0.5877 -0.3898  1.0249
 5738SOL    HW218025   5.230   4.168   2.636 -0.7235 -1.3098  0.1637
 5739SOL     OW18026   4.034   4.497   1.260  0.4135  0.3021 -0.3354
 5739SOL    HW118027   4.018   4.503   1.354  0.4560 -0.0140 -0.3076
 5739SOL    HW218028   3.967   4.554   1.221 -0.9014 -1.0810 -0.2286
 5740SOL     OW18029   5.524   7.105   3.508 -0.3334  0.2287 -1.0596
 5740SOL    HW118030   5.479   7.160   3.573 -0.9633 -0.5276 -0.8455
 5740SOL    HW218031   5.455   7.078   3.448 -0.2741 -1.2938 -0.4932
 5741SOL     OW18032   1.728   1.592   4.589  0.3470 -0.5273 -0.5426
 5741SOL    HW118033   1.661   1.627   4.529 -0.1179 -0.7594 -0.1669
 5741SOL    HW218034   1.681   1.576   4.670  0.7402 -1.2361 -0.4495
 5742SOL     OW18035   1.295   6.232   4.196 -0.4166  0.0360  0.0143
 5742SOL    HW118036   1.294   6.171   4.269  0.6340  1.7645  1.5665
 5742SOL    HW218037   1.227   6.200   4.136 -0.2984 -2.2597  1.0214
 5743SOL     OW18038   1.123   1.776   4.145  0.1541  0.6800  0.2184
 5743SOL    HW118039   1.095   1.813   4.062  0.1572 -3.0261 -1.5815
 5743SOL    HW218040   1.218   1.764   4.135  0.5138  1.9723  1.6027
 5744SOL     OW18041   5.416   1.678   3.485 -0.3847  0.7688 -0.0709
 5744SOL    HW118042   5.425   1.586   3.509  0.3361  0.1937 -2.3026
 5744SOL    HW218043   5.506   1.711   3.484 -0.4524  0.9560 -1.1178
 5745SOL     OW18044   6.855   2.280   0.691 -0.0498  0.2891  0.1446
 5745SOL    HW118045   6.842   2.343   0.620  1.6990  1.9077  1.1428
 5745SOL    HW218046   6.779   2.291   0.748 -0.0363  1.1056  0.0099
 5746SOL     OW18047   0.867   5.983   0.388 -0.3153 -0.3487 -0.0273
 5746SOL    HW118048   0.772   5.975   0.379 -0.7415  2.2441  1.1508
 5746SOL    HW218049   0.879   6.045   0.460  2.1112  2.4009 -2.5149
 5747SOL     OW18050   0.432   6.048   4.133  0.4585 -0.2096 -0.1036
 5747SOL    HW118051   0.427   6.056   4.228 -0.1843 -0.0293 -0.1433
 5747SOL    HW218052   0.464   6.133   4.103 -2.0409  0.7725 -0.2197
 5748SOL     OW18053   1.142   3.555   7.315 -0.4799  0.3509  0.4204
 5748SOL    HW118054   1.229   3.536   7.281 -0.0307  1.1109  1.1038
 5748SOL    HW218055   1.122   3.642   7.283 -1.2270 -0.0197 -0.1640
 5749SOL     OW18056   7.588   0.495   7.401  0.1273  0.1841  0.0592
 5749SOL    HW118057   7.614   0.588   7.398  1.4987 -0.1932 -0.8253
 5749SOL    HW218058   7.593   0.466   7.310 -0.4097 -0.7316  0.3135
 5750SOL     OW18059   5.707   6.672   4.567 -0.0183  0.2412 -0.1337
 5750SOL    HW118060   5.791   6.716   4.558 -0.2813  1.2756  1.8927
 5750SOL    HW218061   5.643   6.739   4.543 -0.3513  0.4752  1.3053
 5751SOL     OW18062   0.645   0.923   5.818  0.3083 -0.3871  0.2955
 5751SOL    HW118063   0.694   0.845   5.843  0.7788 -0.2517 -0.1664
 5751SOL    HW218064   0.670   0.939   5.727  1.1664  0.9638  0.7171
 5752SOL     OW18065   1.397   7.178   5.234  0.0584 -0.1350 -0.7295
 5752SOL    HW118066   1.463   7.177   5.303 -0.7628  0.7165  0.1072
 5752SOL    HW218067   1.443   7.213   5.157  0.9752 -1.0792 -0.6241
 5753SOL     OW18068   7.140   7.225   3.967  0.3265  0.6905  0.1514
 5753SOL    HW118069   7.168   7.304   3.921  1.5726 -0.2261 -0.7381
 5753SOL    HW218070   7.177   7.234   4.054  0.0167  1.3199  0.2259
 5754SOL     OW18071   0.297   0.531   3.795  0.0488 -0.4374 -0.4612
 5754SOL    HW118072   0.269   0.440   3.808 -0.6009  0.0887  2.4750
 5754SOL    HW218073   0.217   0.579   3.774 -0.0881 -0.1016  0.7926
 5755SOL     OW18074   0.842   3.311   5.080 -0.0992 -0.3800 -0.3405
 5755SOL    HW118075   0.842   3.376   5.150 -1.5866 -2.0941  1.3545
 5755SOL    HW218076   0.934   3.299   5.059  0.2742  1.4410  0.0719
 5756SOL     OW18077   8.001   2.933   6.380 -0.0859 -0.2206  0.2153
 5756SOL    HW118078   8.083   2.935   6.429 -0.4345  0.4392  0.7777
 5756SOL    HW218079   8.024   2.892   6.296  0.2397 -2.6283  1.4025
 5757SOL     OW18080   1.656   2.562   1.198  0.1400  0.1001 -0.4270
 5757SOL    HW118081   1.722   2.622   1.234  0.0644  0.7926 -1.4094
 5757SOL    HW218082   1.586   2.562   1.263  0.5389  0.3697  0.0108
 5758SOL     OW18083   2.015   2.334   2.957 -0.0637  0.0328  0.0368
 5758SOL    HW118084   1.939   2.346   3.013  0.3929  1.5300  0.3891
 5758SOL    HW218085   1.985   2.364   2.870 -0.4875 -1.3935 -0.3349
 5759SOL     OW18086   3.758   3.682   7.606  0.5110 -0.0791 -0.0711
 5759SOL    HW118087   3.745   3.624   7.532 -3.1210 -0.6095  0.7607
 5759SOL    HW218088   3.674   3.727   7.616  1.2029  0.8011  2.9765
 5760SOL     OW18089   5.935   3.331   3.444 -0.4300 -0.4844  0.0976
 5760SOL    HW118090   5.840   3.331   3.431 -0.5259 -0.7181  0.7643
 5760SOL    HW218091   5.959   3.238   3.448 -0.1299 -0.4294 -0.3394
 5761SOL     OW18092   5.810   6.847   2.112 -0.2243  0.8092  0.0857
 5761SOL    HW118093   5.801   6.878   2.202 -1.4514  2.3885 -0.5241
 5761SOL    HW218094   5.903   6.857   2.092  0.3138 -0.8077  1.5593
 5762SOL     OW18095   6.039   1.394   5.200 -0.0484  0.0049 -0.4060
 5762SOL    HW118096   6.052   1.489   5.208 -1.7984  0.1681  1.2900
 5762SOL    HW218097   6.122   1.356   5.228  0.4705  1.0232 -0.5159
 5763SOL     OW18098   7.847   3.195   0.613 -0.2266  0.1069  0.0076
 5763SOL    HW118099   7.765   3.208   0.564  0.5851  1.1958 -1.1311
 5763SOL    HW218100   7.900   3.272   0.592 -0.0179  0.9336  3.0772
 5764SOL     OW18101   3.158   6.562   0.599 -0.4013  0.5905 -0.4228
 5764SOL    HW118102   3.131   6.647   0.633  0.4830  0.7082  0.0097
 5764SOL    HW218103   3.077   6.523   0.564 -0.6649  1.9443 -1.3875
 5765SOL     OW18104   0.715   3.769   0.932 -0.3921  0.1577  0.4017
 5765SOL    HW118105   0.677   3.762   0.844  0.0669  0.9690  0.1209
 5765SOL    HW218106   0.751   3.682   0.950  0.7713  0.3568 -0.8228
 5766SOL     OW18107   5.855   2.929   4.597  0.0770 -0.3905  0.7732
 5766SOL    HW118108   5.888   2.845   4.564  0.2736  0.0225 -0.1214
 5766SOL    HW218109   5.876   2.928   4.690 -0.0547 -1.3954  0.8036
 5767SOL     OW18110   1.665   1.038   1.307  0.2390  0.1666 -0.1466
 5767SOL    HW118111   1.617   0.984   1.370  0.3827  1.1905  0.8809
 5767SOL    HW218112   1.603   1.053   1.236 -0.5977  0.5285  0.6341
 5768SOL     OW18113   4.863   0.680   0.358  0.2852  0.3245  1.1509
 5768SOL    HW118114   4.864   0.591   0.393 -1.0118  0.9165  2.8522
 5768SOL    HW218115   4.834   0.734   0.432 -2.1891  1.7227 -0.7009
 5769SOL     OW18116   6.023   1.646   0.301  0.8105  0.1217 -0.1807
 5769SOL    HW118117   5.987   1.719   0.350  0.4254 -0.9857  1.2638
 5769SOL    HW218118   5.995   1.661   0.211 -0.3879  1.0589  0.3241
 5770SOL     OW18119   5.871   3.561   7.273  0.0852  0.0770  0.2433
 5770SOL    HW118120   5.889   3.646   7.232  0.7548  0.2611  0.8973
 5770SOL    HW218121   5.932   3.501   7.230 -0.6708 -0.1614 -0.5080
 5771SOL     OW18122   6.907   1.543   3.001 -0.3214 -0.7013 -0.2777
 5771SOL    HW118123   6.911   1.455   2.963 -2.4334  0.1854 -2.8594
 5771SOL    HW218124   6.927   1.602   2.928 -2.4897  1.0722  0.4382
 5772SOL     OW18125   4.344   3.995   4.000  0.3432 -0.1368  0.4235
 5772SOL    HW118126   4.261   4.009   3.954  1.0594 -0.3865 -0.9839
 5772SOL    HW218127   4.320   3.945   4.078 -0.7882 -0.4783 -0.1242
 5773SOL     OW18128   5.528   5.753   7.121  0.0770 -0.3678 -0.3268
 5773SOL    HW118129   5.591   5.681   7.117  1.2815  0.6406 -0.1009
 5773SOL    HW218130   5.563   5.812   7.187 -1.1648  0.1931 -0.1368
 5774SOL     OW18131   3.892   4.360   6.263  0.5814 -0.3485  0.7434
 5774SOL    HW118132   3.814   4.305   6.259 -0.0325  0.4993  0.5172
 5774SOL    HW218133   3.964   4.302   6.239 -0.1293 -0.8873 -0.1878
 5775SOL     OW18134   1.473   2.131   0.604 -0.0720 -0.1327  0.0303
 5775SOL    HW118135   1.401   2.185   0.639 -0.9948 -0.7194 -0.8997
 5775SOL    HW218136   1.533   2.194   0.565 -0.9401  0.2779 -0.6875
 5776SOL     OW18137   4.841   5.666   0.561  0.3322 -0.0756  0.4361
 5776SOL    HW118138   4.850   5.577   0.595  0.9665 -0.8437 -1.6128
 5776SOL    HW218139   4.747   5.676   0.544  0.1983 -0.1805  1.0944
 5777SOL     OW18140   3.226   5.752   2.191 -0.1678 -0.0626  0.6131
 5777SOL    HW118141   3.182   5.802   2.260 -1.4944 -1.0210  0.4953
 5777SOL    HW218142   3.255   5.672   2.235  1.3048  0.4431  0.6303
 5778SOL     OW18143   4.014   0.392   4.151 -0.5659 -0.7983 -0.0061
 5778SOL    HW118144   4.080   0.427   4.091 -0.1484 -1.5271  0.0233
 5778SOL    HW218145   4.039   0.425   4.237 -0.0941 -1.2707  0.0414
 5779SOL     OW18146   6.811   6.421   0.979 -0.2276 -0.2986 -0.2972
 5779SOL    HW118147   6.775   6.414   1.068  0.3254  1.1621  0.0783
 5779SOL    HW218148   6.898   6.459   0.992  0.0745 -0.5703 -1.4359
 5780SOL     OW18149   2.961   7.718   6.063  0.7111 -0.6549 -0.1264
 5780SOL    HW118150   2.894   7.657   6.094 -1.9691  1.1801 -1.8646
 5780SOL    HW218151   2.972   7.780   6.136  1.1266 -1.3804  0.4458
 5781SOL     OW18152   3.876   3.400   1.863  0.1451 -0.3123  0.1523
 5781SOL    HW118153   3.822   3.321   1.853 -1.4006  0.9579 -3.0766
 5781SOL    HW218154   3.824   3.458   1.918 -0.1020 -0.4644  0.0818
 5782SOL     OW18155   4.820   7.128   5.482 -0.4050  0.6646  0.3902
 5782SOL    HW118156   4.821   7.186   5.406 -0.4859  0.6732  0.3946
 5782SOL    HW218157   4.751   7.164   5.539  0.1683  1.1011  0.8161
 5783SOL     OW18158   0.550   6.604   7.954  0.3323  0.0254  0.6942
 5783SOL    HW118159   0.473   6.635   7.905  1.0329 -1.1076 -1.2427
 5783SOL    HW218160   0.539   6.509   7.957  0.6034  0.0244  2.3204
 5784SOL     OW18161   2.713   1.557   0.055 -0.0186  0.2494  0.0688
 5784SOL    HW118162   2.698   1.635   0.002  1.1262 -1.4889 -3.1750
 5784SOL    HW218163   2.633   1.506   0.047 -0.6332  0.8725  1.8785
 5785SOL     OW18164   5.988   6.893   1.088 -0.4518 -0.1188  0.5261
 5785SOL    HW118165   6.079   6.863   1.085 -0.2924  0.4146 -0.0795
 5785SOL    HW218166   5.957   6.865   1.174 -0.0484 -1.2531  0.3189
 5786SOL     OW18167   5.151   0.851   3.198  0.3347  0.4755 -0.6847
 5786SOL    HW118168   5.148   0.868   3.103  3.3715  0.2078 -0.9447
 5786SOL    HW218169   5.185   0.933   3.235  0.0134  0.2708  0.0703
 5787SOL     OW18170   0.712   3.588   0.315 -0.7773  0.1375 -0.3096
 5787SOL    HW118171   0.796   3.627   0.338 -0.2402  0.2519 -2.2424
 5787SOL    HW218172   0.733   3.525   0.246 -2.3063  0.4233 -1.0867
 5788SOL     OW18173   4.326   2.144   2.228  0.0614  0.2293  0.2514
 5788SOL    HW118174   4.346   2.131   2.321  0.0362 -1.8076  0.0058
 5788SOL    HW218175   4.398   2.101   2.181 -0.2241  0.7350 -0.6835
 5789SOL     OW18176   4.231   3.665   2.253 -0.2783  0.0656 -0.5983
 5789SOL    HW118177   4.223   3.668   2.348 -0.6285  0.3938 -0.6360
 5789SOL    HW218178   4.197   3.579   2.229  1.4085 -0.7255 -0.2864
 5790SOL     OW18179   0.150   5.021   0.738  0.2797 -0.4389  0.4812
 5790SOL    HW118180   0.076   5.078   0.757  0.7228  0.6458 -0.8708
 5790SOL    HW218181   0.218   5.049   0.799  0.3643  0.2390  0.0884
 5791SOL     OW18182   0.321   7.947   0.475 -0.3695 -0.4031  0.8796
 5791SOL    HW118183   0.396   7.942   0.534 -0.2590  0.4722  0.8247
 5791SOL    HW218184   0.330   8.031   0.432  0.5189 -1.7194 -1.7070
 5792SOL     OW18185   1.080   3.769   1.070  0.1363  0.3829  0.4062
 5792SOL    HW118186   1.056   3.681   1.041 -0.8139 -0.0740  2.4641
 5792SOL    HW218187   1.159   3.789   1.019 -0.4663 -1.0160 -1.1955
 5793SOL     OW18188   2.315   7.341   2.118  0.1549  0.0736 -0.1781
 5793SOL    HW118189   2.316   7.369   2.210  0.6135  2.0566 -0.7295
 5793SOL    HW218190   2.405   7.354   2.089  0.2248 -1.3965 -0.7087
 5794SOL     OW18191   3.793   0.474   0.683  0.5523 -0.6130  0.2032
 5794SOL    HW118192   3.752   0.492   0.768  0.3328  1.5728 -0.3093
 5794SOL    HW218193   3.720   0.474   0.621  1.0245  0.9938 -0.3932
 5795SOL     OW18194   2.417   1.795   3.703 -0.2803  0.1396 -0.7444
 5795SOL    HW118195   2.463   1.832   3.627 -0.6169 -0.7260 -1.3805
 5795SOL    HW218196   2.336   1.759   3.667 -0.3354 -0.4863 -0.0137
 5796SOL     OW18197   3.023   0.620   1.905 -0.2463 -0.0262 -0.5605
 5796SOL    HW118198   3.097   0.582   1.951 -1.5647 -1.3727  0.5262
 5796SOL    HW218199   3.024   0.713   1.930 -0.5275 -0.5755  1.6882
 5797SOL     OW18200   5.149   5.669   4.705  0.4822 -0.4661  0.4520
 5797SOL    HW118201   5.085   5.641   4.770  0.9264 -0.6797  0.8071
 5797SOL    HW218202   5.114   5.751   4.670  0.2583 -0.3289  0.9892
 5798SOL     OW18203   3.029   1.977   3.198  0.5730 -0.1422  0.0956
 5798SOL    HW118204   2.992   2.064   3.184 -0.6167 -0.5311  0.6903
 5798SOL    HW218205   3.123   1.990   3.190  0.3268  0.6853 -2.6518
 5799SOL     OW18206   0.958   7.446   6.340 -0.5938 -0.4650  0.9220
 5799SOL    HW118207   0.926   7.536   6.345 -2.2014 -0.8204 -1.2754
 5799SOL    HW218208   0.953   7.413   6.429 -1.2587  1.2180  1.5354
 5800SOL     OW18209   0.843   2.616   3.672 -0.6876  0.0804  0.3383
 5800SOL    HW118210   0.875   2.532   3.638  0.9840  1.0660 -0.6875
 5800SOL    HW218211   0.771   2.593   3.731 -1.3286 -1.9487 -1.1448
 5801SOL     OW18212   3.746   4.092   0.396  0.0870  0.2235 -0.0765
 5801SOL    HW118213   3.750   4.180   0.357  0.0036  0.6745  0.9045
 5801SOL    HW218214   3.758   4.107   0.489  0.9286 -0.9042  0.0101
 5802SOL     OW18215   2.908   3.673   5.977 -0.1266  1.0027 -0.0488
 5802SOL    HW118216   2.988   3.652   6.025  1.2714  2.5687 -1.5452
 5802SOL    HW218217   2.860   3.731   6.035 -1.0591 -1.2099  1.5467
 5803SOL     OW18218   4.269   1.773   3.470 -0.5028  0.0104  0.7720
 5803SOL    HW118219   4.181   1.755   3.504 -0.7009 -0.8686 -0.1484
 5803SOL    HW218220   4.299   1.849   3.520 -1.6457  0.1107  1.3429
 5804SOL     OW18221   4.988   2.648   4.038 -0.2892  0.1229 -1.0278
 5804SOL    HW118222   5.040   2.728   4.027 -1.1992  0.8417 -0.3586
 5804SOL    HW218223   4.943   2.637   3.954  0.6334 -0.2880 -1.4768
 5805SOL     OW18224   4.476   3.007   7.673  0.2789  0.1789  0.5532
 5805SOL    HW118225   4.417   3.062   7.724  0.0544  0.4973 -0.0429
 5805SOL    HW218226   4.517   2.949   7.738  0.3484  0.8899  1.1571
 5806SOL     OW18227   2.812   7.882   7.825 -0.5030  0.1697  0.2554
 5806SOL    HW118228   2.810   7.935   7.745 -0.1059 -2.7214 -1.8346
 5806SOL    HW218229   2.905   7.876   7.846 -0.3693 -1.1201 -0.6054
 5807SOL     OW18230   3.987   3.759   4.218  0.5199 -0.0118  0.2306
 5807SOL    HW118231   3.948   3.705   4.287  2.6120 -1.3016  0.4808
 5807SOL    HW218232   3.969   3.849   4.246 -0.1169 -0.5290  1.6000
 5808SOL     OW18233   5.716   7.411   0.648  0.3571 -0.4503 -0.4023
 5808SOL    HW118234   5.642   7.350   0.639 -0.4199  0.2504  0.9558
 5808SOL    HW218235   5.779   7.364   0.702 -0.0448 -0.2244  0.2655
 5809SOL     OW18236   7.328   0.180   2.781  0.0385  0.7955 -0.1685
 5809SOL    HW118237   7.289   0.110   2.729 -1.2312  0.7537  0.7966
 5809SOL    HW218238   7.337   0.253   2.720  0.8788 -0.0262 -1.0499
 5810SOL     OW18239   5.928   1.003   4.569  0.7860  0.3241 -0.7337
 5810SOL    HW118240   5.885   1.048   4.497  1.4594 -0.9071 -1.9406
 5810SOL    HW218241   5.861   1.000   4.638  0.1035  1.4298 -1.3155
 5811SOL     OW18242   5.099   2.244   4.174  0.5690 -0.3022 -0.6900
 5811SOL    HW118243   5.016   2.278   4.141  1.3681  1.2427 -1.2001
 5811SOL    HW218244   5.152   2.229   4.095  1.5703  0.9193 -0.2819
 5812SOL     OW18245   6.239   3.862   0.226 -0.4160  0.0169  0.5458
 5812SOL    HW118246   6.153   3.827   0.202 -0.8084  1.3483 -0.1041
 5812SOL    HW218247   6.260   3.923   0.156  1.1642 -0.4151  0.6124
 5813SOL     OW18248   2.309   4.833   6.195  0.6995  0.2942  0.3078
 5813SOL    HW118249   2.310   4.847   6.100  2.7650  0.8806  0.3724
 5813SOL    HW218250   2.356   4.750   6.208  1.6442  0.8933  0.8706
 5814SOL     OW18251   4.761   1.967   2.752  0.9117 -0.0972  0.1104
 5814SOL    HW118252   4.712   2.011   2.683 -1.1925  1.3199  2.3024
 5814SOL    HW218253   4.748   1.874   2.736  0.2008  0.2032 -1.2166
 5815SOL     OW18254   3.454   5.146   2.780  0.6033  0.0620  0.1440
 5815SOL    HW118255   3.537   5.120   2.820  0.3574  0.8900  1.2479
 5815SOL    HW218256   3.418   5.065   2.745 -0.5086 -1.3890  4.0623
 5816SOL     OW18257   1.744   5.935   1.701  0.6257 -0.4316  0.3130
 5816SOL    HW118258   1.705   5.848   1.696  1.6425 -0.8347 -0.9296
 5816SOL    HW218259   1.731   5.973   1.614 -0.2935  0.9045  0.9837
 5817SOL     OW18260   6.397   7.524   1.866  0.0791  0.2753  0.4263
 5817SOL    HW118261   6.482   7.534   1.910  1.4394  1.1064 -2.1839
 5817SOL    HW218262   6.359   7.612   1.866 -1.1295 -0.1994  2.1013
 5818SOL     OW18263   2.195   5.572   0.451 -0.6340 -0.2027 -0.2304
 5818SOL    HW118264   2.216   5.642   0.389  2.4463 -1.0744 -0.3166
 5818SOL    HW218265   2.167   5.499   0.396  0.6161 -0.4723 -0.5526
 5819SOL     OW18266   0.854   3.021   2.038  0.2901 -0.5462 -0.2769
 5819SOL    HW118267   0.834   3.104   1.995  3.5323 -0.3404 -1.6796
 5819SOL    HW218268   0.853   3.040   2.131  1.4531  1.2345 -0.5953
 5820SOL     OW18269   3.895   4.947   3.558 -0.1555  0.0935  0.2576
 5820SOL    HW118270   3.963   4.886   3.528 -2.7148 -1.9498 -1.8521
 5820SOL    HW218271   3.917   5.030   3.515  0.5783 -0.7490 -1.0561
 5821SOL     OW18272   0.786   1.830   0.264  0.0485 -0.0234  0.3152
 5821SOL    HW118273   0.777   1.788   0.349  2.0626 -2.2863 -0.4810
 5821SOL    HW218274   0.880   1.843   0.253 -0.2873  1.9606 -0.8278
 5822SOL     OW18275   6.992   3.954   7.375 -0.6110  0.6328  0.2042
 5822SOL    HW118276   6.908   3.944   7.330 -1.6866  0.6171  2.1203
 5822SOL    HW218277   6.975   3.926   7.465  1.4351  0.7107  0.6711
 5823SOL     OW18278   6.315   1.629   5.251  0.1573  0.0273 -0.0187
 5823SOL    HW118279   6.340   1.601   5.163 -0.6175 -0.2165 -0.1650
 5823SOL    HW218280   6.347   1.719   5.257 -0.0426  0.1463 -0.6568
 5824SOL     OW18281   3.158   4.088   5.139 -0.2985  0.1512 -0.1865
 5824SOL    HW118282   3.087   4.120   5.194 -0.0325  0.6588 -0.1275
 5824SOL    HW218283   3.231   4.146   5.158 -0.0748  0.0684 -0.7560
 5825SOL     OW18284   3.729   7.430   5.568 -0.2397  0.4113  0.6320
 5825SOL    HW118285   3.788   7.496   5.604 -1.3938  1.6343  0.3468
 5825SOL    HW218286   3.668   7.479   5.513 -1.3739 -0.8348  0.7182
 5826SOL     OW18287   0.887   7.900   4.292  0.4672 -0.4764  0.0673
 5826SOL    HW118288   0.802   7.858   4.307  0.8759 -1.2976  0.1249
 5826SOL    HW218289   0.877   7.945   4.208  0.5625 -2.1488 -0.8839
 5827SOL     OW18290   3.090   7.280   5.912  0.3630  0.3894 -0.1528
 5827SOL    HW118291   3.022   7.252   5.851 -0.3602 -1.5648  1.4654
 5827SOL    HW218292   3.043   7.305   5.991  1.4476  0.3207  0.5313
 5828SOL     OW18293   4.133   2.414   6.160 -0.8164  0.2156  0.9492
 5828SOL    HW118294   4.159   2.504   6.142  0.4185 -0.3243 -0.1083
 5828SOL    HW218295   4.190   2.387   6.233 -0.1706 -0.1492  0.3217
 5829SOL     OW18296   2.886   4.157   1.681 -0.4259  0.2849 -0.0693
 5829SOL    HW118297   2.913   4.109   1.602  0.1798  1.1023 -0.3764
 5829SOL    HW218298   2.804   4.114   1.708 -0.7034  0.0586 -1.1985
 5830SOL     OW18299   3.203   3.729   4.759 -0.0421  0.1242  0.2558
 5830SOL    HW118300   3.249   3.703   4.679 -1.1439 -0.0732 -0.3219
 5830SOL    HW218301   3.159   3.811   4.736 -2.3207 -1.1329 -0.1221
 5831SOL     OW18302   7.323   2.302   6.753  0.1967 -0.4881 -0.4159
 5831SOL    HW118303   7.243   2.355   6.753  0.5589  0.1006  1.2791
 5831SOL    HW218304   7.301   2.227   6.697 -1.1083  0.2891 -0.9974
 5832SOL     OW18305   5.817   5.279   5.316  0.0600  0.6894  0.4046
 5832SOL    HW118306   5.740   5.276   5.373 -1.5612 -0.4509 -1.6798
 5832SOL    HW218307   5.880   5.220   5.358 -0.5024  1.0144  1.7523
 5833SOL     OW18308   2.073   5.370   2.234  0.1376  0.0737  0.1864
 5833SOL    HW118309   2.025   5.424   2.171  2.6223  2.6154  0.2854
 5833SOL    HW218310   2.087   5.287   2.189 -1.1883  0.5615 -1.1945
 5834SOL     OW18311   0.946   3.882   2.972 -0.7552  0.2796  0.2116
 5834SOL    HW118312   0.921   3.793   2.997 -1.4644 -0.0656 -1.5991
 5834SOL    HW218313   0.998   3.870   2.893 -0.4091  1.4551  0.2513
 5835SOL     OW18314   5.141   5.012   7.563  0.3473  0.3314 -0.0488
 5835SOL    HW118315   5.167   5.087   7.510  1.0621  1.3347  1.6242
 5835SOL    HW218316   5.217   4.955   7.563  0.2784  0.2422 -0.2751
 5836SOL     OW18317   3.551   5.168   1.163  0.1571  0.2687  0.4857
 5836SOL    HW118318   3.477   5.115   1.135  0.4267  0.4617 -0.6426
 5836SOL    HW218319   3.593   5.116   1.232 -0.2155 -0.4791  0.1596
 5837SOL     OW18320   0.854   5.260   3.440 -0.6561 -0.3591 -0.2677
 5837SOL    HW118321   0.803   5.200   3.494  0.8634 -0.1202  1.5010
 5837SOL    HW218322   0.892   5.205   3.371 -0.4410 -1.1730  0.4845
 5838SOL     OW18323   7.847   6.197   4.313 -0.0647 -0.0474  0.3980
 5838SOL    HW118324   7.901   6.215   4.390  0.2211  0.1342  0.1571
 5838SOL    HW218325   7.907   6.159   4.250  0.2294  1.9197 -0.5757
 5839SOL     OW18326   4.519   6.031   0.886  0.4439  0.6055  0.2259
 5839SOL    HW118327   4.581   6.045   0.814 -1.0435  1.7461 -0.8923
 5839SOL    HW218328   4.477   6.116   0.898 -0.8701 -0.1286  1.0130
 5840SOL     OW18329   2.189   4.306   0.825 -0.3184 -0.2739 -0.1274
 5840SOL    HW118330   2.104   4.276   0.858 -0.3373 -0.5750 -0.4532
 5840SOL    HW218331   2.239   4.328   0.904 -1.1568  1.1839  0.0486
 5841SOL     OW18332   5.299   0.316   5.407  0.6380 -0.4750 -0.1476
 5841SOL    HW118333   5.274   0.338   5.497  1.1689 -0.3829 -0.0177
 5841SOL    HW218334   5.222   0.338   5.355 -0.0425 -1.4564  0.4026
 5842SOL     OW18335   5.008   6.502   5.273 -0.0942  0.4176 -0.0522
 5842SOL    HW118336   5.016   6.574   5.211 -1.7415  0.1658 -0.5957
 5842SOL    HW218337   4.915   6.497   5.293  0.1638 -0.7015  1.0220
 5843SOL     OW18338   3.192   4.120   3.461 -0.0501 -0.1059  0.0588
 5843SOL    HW118339   3.132   4.091   3.530  0.1637 -0.2712  0.1770
 5843SOL    HW218340   3.262   4.056   3.462 -0.0890 -0.1577 -0.3759
 5844SOL     OW18341   2.854   3.298   6.866  0.1804 -0.2712 -0.3485
 5844SOL    HW118342   2.888   3.269   6.781 -2.1002 -0.9854 -1.0977
 5844SOL    HW218343   2.813   3.382   6.848  0.5896  0.0708  0.2918
 5845SOL     OW18344   5.703   1.930   5.863  0.2278 -0.2878  0.1284
 5845SOL    HW118345   5.747   1.961   5.783  0.3364  1.5490  0.8570
 5845SOL    HW218346   5.625   1.885   5.830  0.6563 -0.2327 -1.0379
 5846SOL     OW18347   3.960   7.223   2.257 -0.4430  0.2557 -0.0608
 5846SOL    HW118348   3.900   7.295   2.242  1.0618  1.8996  1.3305
 5846SOL    HW218349   3.930   7.184   2.339  1.0218  1.9123  1.3577
 5847SOL     OW18350   4.690   5.518   5.571  0.3337  0.4746  0.4179
 5847SOL    HW118351   4.606   5.559   5.588  0.9409  2.0665 -0.2555
 5847SOL    HW218352   4.735   5.517   5.656 -0.7062 -1.3147  1.0033
 5848SOL     OW18353   7.044   4.195   1.210 -0.3424 -0.1714  0.5053
 5848SOL    HW118354   7.046   4.192   1.306 -2.6939 -2.6579  0.5711
 5848SOL    HW218355   6.992   4.273   1.190 -0.4533 -0.0408  1.2748
 5849SOL     OW18356   4.111   0.709   4.077  0.2376  0.0691 -0.0851
 5849SOL    HW118357   4.036   0.675   4.126 -1.3024  3.0171 -0.2095
 5849SOL    HW218358   4.091   0.688   3.986 -0.0035  0.1095 -0.0430
 5850SOL     OW18359   5.520   6.679   1.567  0.2795  0.2409 -0.1900
 5850SOL    HW118360   5.467   6.748   1.607  2.0271  0.8632  1.1888
 5850SOL    HW218361   5.487   6.598   1.605 -0.0967  0.5563  0.1716
 5851SOL     OW18362   7.284   6.709   7.020  0.6519  0.3236  0.1373
 5851SOL    HW118363   7.243   6.665   7.094 -0.9369  0.3964 -0.6624
 5851SOL    HW218364   7.223   6.697   6.947  3.0647 -1.5704 -1.7829
 5852SOL     OW18365   7.074   0.895   6.587 -0.2026 -0.2799 -0.4050
 5852SOL    HW118366   7.000   0.939   6.627 -1.1503 -1.1561 -1.1538
 5852SOL    HW218367   7.048   0.803   6.582  1.0378 -0.6477 -0.4369
 5853SOL     OW18368   3.999   2.900   6.388 -0.3024  0.4321  0.8763
 5853SOL    HW118369   4.055   2.970   6.355 -1.6009  0.4467 -1.5058
 5853SOL    HW218370   4.051   2.820   6.379 -0.6165  0.4288 -1.4352
 5854SOL     OW18371   4.378   0.164   6.798  0.1540  0.6584  0.5477
 5854SOL    HW118372   4.325   0.148   6.720 -1.3450  1.7252  1.2990
 5854SOL    HW218373   4.359   0.255   6.822  1.9196  0.8939  1.1753
 5855SOL     OW18374   1.507   5.056   7.495 -0.0430  0.0336 -0.4678
 5855SOL    HW118375   1.522   5.133   7.441 -0.7074 -0.1108 -0.8741
 5855SOL    HW218376   1.507   5.088   7.585 -0.5310  0.5495 -0.6475
 5856SOL     OW18377   1.135   7.241   0.366  0.1833  0.0886 -0.0131
 5856SOL    HW118378   1.114   7.190   0.287  1.1250 -1.4395  0.6713
 5856SOL    HW218379   1.057   7.294   0.381 -0.4000 -0.3116 -1.4101
 5857SOL     OW18380   5.236   3.220   2.402  0.3589  0.4040  0.2697
 5857SOL    HW118381   5.291   3.178   2.468 -0.2907  1.0004  1.2202
 5857SOL    HW218382   5.269   3.310   2.398  0.1514  0.4716  0.0585
 5858SOL     OW18383   6.453   4.754   5.821 -0.5341 -0.1697  0.3353
 5858SOL    HW118384   6.382   4.818   5.827 -0.0410  0.6280 -1.6123
 5858SOL    HW218385   6.409   4.674   5.793 -0.6958  0.3232 -0.8777
 5859SOL     OW18386   7.052   4.534   1.868  0.3723 -0.2881 -0.0863
 5859SOL    HW118387   6.988   4.539   1.797 -1.2454  0.4460  1.3768
 5859SOL    HW218388   7.069   4.625   1.892  1.1685 -0.5169  0.2742
 5860SOL     OW18389   6.666   7.748   7.446 -0.5454 -0.6647 -0.3371
 5860SOL    HW118390   6.596   7.802   7.410 -0.4230 -1.2329 -1.4507
 5860SOL    HW218391   6.663   7.765   7.540 -0.5623  1.2319 -0.6317
 5861SOL     OW18392   4.957   0.478   5.478 -0.3906 -0.2639 -0.1845
 5861SOL    HW118393   4.947   0.384   5.492  2.4220 -0.6685 -0.3344
 5861SOL    HW218394   4.870   0.508   5.453 -1.5135 -2.6859  0.5588
 5862SOL     OW18395   6.730   5.854   7.161  0.3860  0.4445  0.1888
 5862SOL    HW118396   6.786   5.930   7.179  0.5660  0.1669  0.8653
 5862SOL    HW218397   6.771   5.811   7.087  1.2309  0.1098  0.8319
 5863SOL     OW18398   3.513   6.984   2.370  0.2662 -0.0831  0.2633
 5863SOL    HW118399   3.493   7.009   2.460 -1.4110  2.3742 -0.6798
 5863SOL    HW218400   3.584   7.043   2.344 -0.0874  0.0669 -0.3838
 5864SOL     OW18401   5.664   0.563   0.070  0.1107 -0.3583 -0.1018
 5864SOL    HW118402   5.714   0.644   0.071  0.1963 -0.4153  0.7264
 5864SOL    HW218403   5.596   0.576   0.137 -1.0058 -0.2731 -1.2023
 5865SOL     OW18404   3.422   0.450   5.926 -0.7991 -0.0988  0.0213
 5865SOL    HW118405   3.328   0.438   5.912 -0.9876  1.2599  0.0381
 5865SOL    HW218406   3.446   0.522   5.868 -0.1936  0.9540  1.5203
 5866SOL     OW18407   2.516   4.810   4.963  0.1762  0.0867  0.0460
 5866SOL    HW118408   2.604   4.808   5.000  0.0953 -1.5778  0.2081
 5866SOL    HW218409   2.527   4.779   4.873 -0.3943 -1.4165  0.4676
 5867SOL     OW18410   3.089   3.814   1.681 -0.3200 -0.2473  0.4622
 5867SOL    HW118411   3.118   3.877   1.615 -1.0179  0.0496  0.4268
 5867SOL    HW218412   3.048   3.867   1.749  0.5042 -0.5423  1.2023
 5868SOL     OW18413   1.016   3.127   4.092 -0.0850  0.0657  0.3748
 5868SOL    HW118414   1.007   3.039   4.129 -1.0540  0.5908  1.4353
 5868SOL    HW218415   0.948   3.132   4.025  0.4511 -0.2375 -0.2001
 5869SOL     OW18416   4.924   2.821   7.976 -0.7299 -0.2576 -0.3373
 5869SOL    HW118417   4.974   2.902   7.967 -2.4295  0.9822  0.9471
 5869SOL    HW218418   4.864   2.820   7.901 -0.7803 -0.2953 -0.2966
 5870SOL     OW18419   0.012   3.241   2.828 -0.5533  0.2929 -0.2537
 5870SOL    HW118420   0.069   3.315   2.846 -0.5277  0.4249 -0.8399
 5870SOL    HW218421  -0.072   3.265   2.867 -0.1696  0.0255  0.7523
 5871SOL     OW18422   3.528   5.007   0.390  0.0127 -0.1211  0.3379
 5871SOL    HW118423   3.617   5.033   0.411  0.3368 -0.8488 -0.0988
 5871SOL    HW218424   3.533   4.912   0.376 -0.8728 -0.2105  0.5480
 5872SOL     OW18425   3.160   5.786   0.892 -0.0181  0.5199  0.2683
 5872SOL    HW118426   3.076   5.790   0.848  0.0240  0.2857  0.1682
 5872SOL    HW218427   3.224   5.782   0.821  0.0212 -0.5052  0.3448
 5873SOL     OW18428   0.028   4.315   7.654 -0.1828 -0.4236  1.0737
 5873SOL    HW118429   0.072   4.279   7.731  0.8944  0.6403  0.9915
 5873SOL    HW218430   0.035   4.247   7.588  1.4395 -0.2699  1.0434
 5874SOL     OW18431   2.493   4.515   3.772  0.0214  0.5622 -0.4051
 5874SOL    HW118432   2.441   4.467   3.837  1.1942 -1.4947 -0.8799
 5874SOL    HW218433   2.571   4.542   3.819  1.1392 -1.4239 -0.9891
 5875SOL     OW18434   4.439   5.240   2.098 -0.0293  0.0921  0.3669
 5875SOL    HW118435   4.486   5.217   2.178  1.3708 -1.2530 -0.7826
 5875SOL    HW218436   4.402   5.157   2.068 -0.1010  0.4804 -0.6438
 5876SOL     OW18437   5.886   6.141   2.210 -0.0081 -0.2721 -0.0871
 5876SOL    HW118438   5.932   6.057   2.211 -0.2723 -0.4435 -0.9561
 5876SOL    HW218439   5.817   6.129   2.144 -0.3070  0.4893  0.0786
 5877SOL     OW18440   1.267   7.611   0.911 -0.2117  0.5567  0.0259
 5877SOL    HW118441   1.322   7.597   0.988 -0.4659  0.1098  0.1292
 5877SOL    HW218442   1.328   7.639   0.843  0.2814 -0.7996 -0.1090
 5878SOL     OW18443   6.934   3.906   4.343  0.3511 -0.6033 -0.0656
 5878SOL    HW118444   6.839   3.902   4.332  0.3824 -0.3393 -0.4427
 5878SOL    HW218445   6.969   3.894   4.254  0.7063 -1.8775  0.2142
 5879SOL     OW18446   0.301   3.790   1.128 -0.3063 -0.1313 -0.4708
 5879SOL    HW118447   0.291   3.884   1.139 -0.8194 -0.0931 -1.1957
 5879SOL    HW218448   0.373   3.766   1.187 -1.5066  0.3758  1.2592
 5880SOL     OW18449   5.723   6.697   2.632  0.0282 -0.2873  0.8892
 5880SOL    HW118450   5.789   6.685   2.700 -0.1130 -1.6520  0.7967
 5880SOL    HW218451   5.640   6.697   2.678 -0.0956 -1.6314  0.6879
 5881SOL     OW18452   0.293   7.156   0.432 -0.0623 -0.5430  0.0385
 5881SOL    HW118453   0.232   7.215   0.387 -0.7927  0.0757  1.7594
 5881SOL    HW218454   0.244   7.074   0.442  0.0091 -0.5989 -0.0705
 5882SOL     OW18455   2.397   5.592   2.829  0.2027 -0.3741  0.0971
 5882SOL    HW118456   2.461   5.660   2.810 -1.1664  1.0041  0.1997
 5882SOL    HW218457   2.351   5.624   2.907 -0.9559 -1.0642 -0.2801
 5883SOL     OW18458   5.177   5.032   4.684  0.4717  0.6350  0.0755
 5883SOL    HW118459   5.092   4.995   4.706 -0.5366  2.3736 -0.7115
 5883SOL    HW218460   5.235   4.956   4.679 -1.3348 -0.7652 -0.8200
 5884SOL     OW18461   0.539   1.175   1.343 -0.0019  0.5552  0.5463
 5884SOL    HW118462   0.555   1.082   1.360 -0.9155  0.6211  1.9905
 5884SOL    HW218463   0.494   1.206   1.422 -1.0515  1.8771 -0.5177
 5885SOL     OW18464   1.532   4.212   0.441 -0.0937 -0.4641 -0.2488
 5885SOL    HW118465   1.463   4.203   0.375 -0.4943  0.8707 -0.0509
 5885SOL    HW218466   1.536   4.306   0.459  1.9058 -0.4697 -0.3826
 5886SOL     OW18467   3.700   4.567   4.003  0.2024  0.2212 -0.2988
 5886SOL    HW118468   3.727   4.601   3.918  0.3556  1.4154  0.2081
 5886SOL    HW218469   3.605   4.567   4.000  0.2034 -0.4710 -0.7320
 5887SOL     OW18470   0.310   0.967   0.782  0.0192 -0.3018 -1.0786
 5887SOL    HW118471   0.381   1.024   0.752  0.2193  0.1086  0.1003
 5887SOL    HW218472   0.330   0.950   0.874 -0.8352 -1.0753 -1.0198
 5888SOL     OW18473   0.413   2.882   0.116 -0.3711 -0.0249 -0.4762
 5888SOL    HW118474   0.388   2.890   0.208  0.0256 -1.6957 -0.2002
 5888SOL    HW218475   0.469   2.958   0.100  0.7793 -0.4913  1.0881
 5889SOL     OW18476   6.062   2.465   0.448 -0.1499  0.3279  0.1160
 5889SOL    HW118477   6.148   2.477   0.408  0.6872 -1.9045  1.0497
 5889SOL    HW218478   6.023   2.391   0.401 -1.3359  0.9608  0.0657
 5890SOL     OW18479   0.034   7.765   2.349 -0.3474  0.0946  0.0486
 5890SOL    HW118480   0.087   7.694   2.387  1.1902  1.4982  0.6671
 5890SOL    HW218481   0.018   7.737   2.259 -0.0385 -1.1739  0.3633
 5891SOL     OW18482   3.113   3.920   3.226 -1.0083 -0.5276  0.0293
 5891SOL    HW118483   3.076   3.980   3.162  1.3573  0.3547 -0.6169
 5891SOL    HW218484   3.120   3.972   3.306  1.5870  0.3528 -0.6874
 5892SOL     OW18485   2.981   6.931   6.037  0.3565 -0.2776 -0.2379
 5892SOL    HW118486   2.893   6.969   6.037  0.8515  0.9701  1.1347
 5892SOL    HW218487   2.966   6.836   6.035 -1.1154 -0.1507  1.7403
 5893SOL     OW18488   5.044   2.518   6.344  0.2040  0.2829 -0.1057
 5893SOL    HW118489   4.983   2.454   6.380 -0.1018  1.1197  0.9056
 5893SOL    HW218490   5.117   2.466   6.311 -1.1820 -0.7667 -1.6660
 5894SOL     OW18491   1.749   5.016   4.557  0.4876  0.1086  0.0805
 5894SOL    HW118492   1.810   5.009   4.631 -1.1194 -0.0724  1.4674
 5894SOL    HW218493   1.664   5.033   4.599 -0.8928 -2.1829 -1.5876
 5895SOL     OW18494   1.489   6.311   4.402  0.9500  0.4142  0.1863
 5895SOL    HW118495   1.469   6.218   4.406  1.0496  0.3801 -0.0965
 5895SOL    HW218496   1.456   6.340   4.317 -1.3560  1.1861  1.2747
 5896SOL     OW18497   6.981   1.221   7.743 -0.1633  0.0321  0.5751
 5896SOL    HW118498   6.907   1.281   7.752 -0.5475 -0.0004 -1.8263
 5896SOL    HW218499   7.032   1.256   7.670  1.6891 -0.4994  1.5573
 5897SOL     OW18500   3.293   2.867   2.870  0.1487 -0.2933  0.5021
 5897SOL    HW118501   3.376   2.850   2.826 -0.1217 -0.3173 -0.0063
 5897SOL    HW218502   3.237   2.794   2.845 -0.4348  0.3770 -0.2162
 5898SOL     OW18503   4.178   7.918   1.340  0.8573 -0.2997  0.2200
 5898SOL    HW118504   4.157   7.875   1.257  0.6243 -0.2280  0.2394
 5898SOL    HW218505   4.273   7.925   1.340  0.9501 -1.3214  0.4626
 5899SOL     OW18506   4.884   7.540   1.509 -0.0503  0.4840 -0.0981
 5899SOL    HW118507   4.832   7.521   1.431  1.3290  0.8477 -1.1471
 5899SOL    HW218508   4.849   7.623   1.542 -0.5491  0.4037 -0.4145
 5900SOL     OW18509   0.299   6.182   4.741  0.4718 -0.2289  0.0163
 5900SOL    HW118510   0.331   6.246   4.804  0.9442  0.2501 -0.7076
 5900SOL    HW218511   0.244   6.123   4.793  0.8241  0.1822  0.8668
 5901SOL     OW18512   6.517   3.468   0.446  0.1464 -0.6645  0.5072
 5901SOL    HW118513   6.539   3.447   0.355  0.3662  1.9184 -0.1219
 5901SOL    HW218514   6.602   3.483   0.487 -0.0320  1.5026  0.1851
 5902SOL     OW18515   4.841   0.089   3.230  0.0432  0.2452  0.5687
 5902SOL    HW118516   4.887   0.165   3.196  1.5045  0.3203  2.5512
 5902SOL    HW218517   4.773   0.071   3.165  1.2973  1.6394 -1.2409
 5903SOL     OW18518   1.215   3.718   5.967  0.5045  0.3472 -0.5693
 5903SOL    HW118519   1.230   3.795   5.911  1.2447  2.8168  2.6739
 5903SOL    HW218520   1.220   3.753   6.056  0.1330 -3.4206  1.1017
 5904SOL     OW18521   5.062   4.284   2.416 -0.0150 -0.1967 -0.1755
 5904SOL    HW118522   5.110   4.206   2.445 -0.2220 -0.1886  0.1954
 5904SOL    HW218523   4.992   4.295   2.481 -0.1325  0.1594 -0.3585
 5905SOL     OW18524   4.262   6.902   7.385 -0.0712 -0.0093 -0.1124
 5905SOL    HW118525   4.339   6.896   7.329 -0.7710  1.8841 -1.3829
 5905SOL    HW218526   4.266   6.990   7.423 -1.0486 -0.2775  0.6727
 5906SOL     OW18527   5.127   7.543   2.141  0.3183  0.3831  0.1500
 5906SOL    HW118528   5.075   7.486   2.197 -0.2139  0.1420 -0.5665
 5906SOL    HW218529   5.062   7.592   2.091  0.7319 -1.0540 -1.9131
 5907SOL     OW18530   7.528   6.186   4.962 -0.0344 -0.1459 -0.1161
 5907SOL    HW118531   7.584   6.263   4.969 -1.7229  1.0056  1.2310
 5907SOL    HW218532   7.452   6.215   4.912 -0.5751 -1.0045  0.1739
 5908SOL     OW18533   5.757   5.485   1.938  0.0766 -0.2606 -0.5568
 5908SOL    HW118534   5.703   5.552   1.979  1.7270  0.0914  1.1512
 5908SOL    HW218535   5.816   5.534   1.880  0.3413 -0.3603 -0.3755
 5909SOL     OW18536   4.645   3.325   6.981 -0.4768 -0.6668  0.0109
 5909SOL    HW118537   4.614   3.388   7.046 -1.9734  0.4041 -1.6330
 5909SOL    HW218538   4.651   3.376   6.900  1.7670 -1.8431 -0.6358
 5910SOL     OW18539   6.058   6.169   0.234 -0.0735 -0.1617 -0.3007
 5910SOL    HW118540   6.145   6.137   0.213  0.4728  1.2048 -0.2343
 5910SOL    HW218541   6.072   6.256   0.271 -1.5372  0.6158 -1.4492
 5911SOL     OW18542   0.076   7.127   1.681  0.2581  0.5627 -0.2519
 5911SOL    HW118543   0.087   7.086   1.767 -1.6889  0.0743 -0.1615
 5911SOL    HW218544   0.006   7.191   1.694 -0.0726  0.4758 -1.4435
 5912SOL     OW18545   4.169   5.703   7.695 -0.3801 -0.0374 -0.0450
 5912SOL    HW118546   4.158   5.757   7.617  1.6905 -0.1327 -0.4767
 5912SOL    HW218547   4.227   5.754   7.752 -1.0937 -0.3798  1.0175
 5913SOL     OW18548   2.340   6.234   0.796 -0.0710  0.0135  0.6004
 5913SOL    HW118549   2.417   6.205   0.844 -0.3703  2.6323  2.9010
 5913SOL    HW218550   2.273   6.168   0.817  1.1476 -1.6375 -0.4760
 5914SOL     OW18551   5.681   5.095   7.670  0.4325 -0.3968 -0.2249
 5914SOL    HW118552   5.738   5.022   7.645  0.4884 -0.1620 -0.8093
 5914SOL    HW218553   5.672   5.147   7.590  0.5403  0.3396  0.2325
 5915SOL     OW18554   6.805   5.187   1.417  0.0608  0.0594 -0.0398
 5915SOL    HW118555   6.711   5.170   1.421 -0.2674  1.8241  0.7199
 5915SOL    HW218556   6.825   5.187   1.323 -0.6376 -0.5796 -0.1982
 5916SOL     OW18557   5.312   6.340   2.926 -0.2118  0.2107  0.2749
 5916SOL    HW118558   5.286   6.411   2.984 -1.1507  0.6245 -0.6237
 5916SOL    HW218559   5.376   6.379   2.867 -1.2997  0.5566 -0.7203
 5917SOL     OW18560   7.413   6.835   5.226 -0.6926 -0.1949  0.4712
 5917SOL    HW118561   7.382   6.854   5.137 -0.8967 -1.2645  0.3011
 5917SOL    HW218562   7.346   6.874   5.283 -2.3198 -2.2879  0.1111
 5918SOL     OW18563   1.673   6.321   3.471  0.0539  0.0406 -0.0099
 5918SOL    HW118564   1.650   6.405   3.432 -1.0769 -0.2597 -0.0294
 5918SOL    HW218565   1.616   6.258   3.428 -0.1604 -0.5146  1.0425
 5919SOL     OW18566   4.063   0.008   3.785  0.7041  0.3413  0.5386
 5919SOL    HW118567   4.082   0.044   3.872 -0.6432 -1.0782  1.4716
 5919SOL    HW218568   4.095  -0.082   3.788  0.1084  0.0901 -0.2348
 5920SOL     OW18569   2.225   5.138   1.869  0.2119  0.3432 -0.1003
 5920SOL    HW118570   2.186   5.058   1.833 -0.4060  0.2203  0.7988
 5920SOL    HW218571   2.319   5.120   1.871  0.1060 -0.2542 -0.1699
 5921SOL     OW18572   2.566   4.308   7.251 -0.5019  0.0238 -0.6799
 5921SOL    HW118573   2.637   4.327   7.189 -0.1561  1.4757  0.1390
 5921SOL    HW218574   2.512   4.243   7.205  0.7869 -0.3568 -1.7275
 5922SOL     OW18575   1.668   7.301   3.177  0.3951 -0.1084  0.1715
 5922SOL    HW118576   1.732   7.241   3.139 -0.1408 -0.4074 -0.2864
 5922SOL    HW218577   1.612   7.244   3.231  0.4649  0.1326  0.4977
 5923SOL     OW18578   4.131   6.774   7.183 -0.1841  0.4521 -0.0680
 5923SOL    HW118579   4.164   6.823   7.108 -0.1863  1.8402  0.8026
 5923SOL    HW218580   4.170   6.816   7.259 -0.1201 -0.9720  0.7274
 5924SOL     OW18581   3.305   7.397   4.628  0.2708 -0.1382  0.1869
 5924SOL    HW118582   3.322   7.426   4.538  0.2132 -0.6065  0.0207
 5924SOL    HW218583   3.230   7.450   4.656  0.8305  0.6221  0.2711
 5925SOL     OW18584   1.043   1.763   3.768  0.3012  0.5082  0.0449
 5925SOL    HW118585   1.048   1.699   3.697 -0.0658 -1.6080  1.8116
 5925SOL    HW218586   1.132   1.768   3.802  1.0132  3.2248 -1.8189
 5926SOL     OW18587   2.093   2.905   7.195  0.3611  0.7794  0.1895
 5926SOL    HW118588   2.091   2.992   7.236  2.4446 -0.4132  3.1945
 5926SOL    HW218589   2.146   2.917   7.116  1.3752  2.1218  1.0152
 5927SOL     OW18590   7.246   3.955   0.600 -0.2087  0.3377 -0.2052
 5927SOL    HW118591   7.152   3.955   0.581 -0.3263 -1.4717  0.1841
 5927SOL    HW218592   7.262   3.871   0.642  1.3433  1.2318  1.1121
 5928SOL     OW18593   4.210   2.644   7.429  0.0462 -0.2722  0.2330
 5928SOL    HW118594   4.145   2.665   7.496 -0.9498 -1.3819 -0.3400
 5928SOL    HW218595   4.159   2.629   7.349  0.9023 -1.8820 -0.0694
 5929SOL     OW18596   7.420   3.797   1.811  0.4122 -0.3832  0.7905
 5929SOL    HW118597   7.353   3.822   1.748  0.3980 -0.4903  0.7635
 5929SOL    HW218598   7.456   3.881   1.842 -0.0763 -0.3087  1.1769
 5930SOL     OW18599   5.834   6.128   1.624  0.4066  0.1644  0.0376
 5930SOL    HW118600   5.863   6.159   1.710 -0.6540  0.6897  0.2260
 5930SOL    HW218601   5.837   6.205   1.568  1.1327 -0.1884 -0.4167
 5931SOL     OW18602   0.004   3.300   2.066 -0.1247  0.0552  0.1267
 5931SOL    HW118603  -0.083   3.324   2.034  0.4957  1.8470 -0.3044
 5931SOL    HW218604   0.065   3.345   2.008  1.1719 -2.3462 -0.4992
 5932SOL     OW18605   5.413   7.985   3.048 -0.0482 -0.6688 -0.1840
 5932SOL    HW118606   5.343   7.931   3.011 -1.3732  1.3209 -0.7412
 5932SOL    HW218607   5.494   7.944   3.017 -1.0231 -1.7671 -1.3961
 5933SOL     OW18608   3.971   3.514   0.968 -0.0743  0.2012  0.4433
 5933SOL    HW118609   3.898   3.572   0.987  0.1792  0.7650 -0.2692
 5933SOL    HW218610   3.932   3.426   0.968 -1.3631  0.6539 -2.5530
 5934SOL     OW18611   5.072   1.282   1.952 -0.0257 -0.3512 -0.1843
 5934SOL    HW118612   5.082   1.280   2.047 -0.3765  1.0513 -0.1017
 5934SOL    HW218613   4.981   1.306   1.938  0.6066  1.8866 -0.8253
 5935SOL     OW18614   6.410   7.175   2.037 -0.1894 -0.0735 -0.0842
 5935SOL    HW118615   6.343   7.243   2.028 -0.3915 -0.2517  0.0534
 5935SOL    HW218616   6.481   7.204   1.980 -0.2002  0.3429  0.1044
 5936SOL     OW18617   5.560   4.510   5.783  0.5046  0.0791  0.2536
 5936SOL    HW118618   5.597   4.447   5.844 -0.5940 -3.7774 -2.7094
 5936SOL    HW218619   5.608   4.497   5.701 -1.1462  1.6073 -1.0608
 5937SOL     OW18620   7.614   6.568   7.673  0.1313 -0.6408  0.1041
 5937SOL    HW118621   7.645   6.657   7.689  0.4829 -1.0347  1.8948
 5937SOL    HW218622   7.678   6.531   7.613 -0.9690  0.8050 -2.0985
 5938SOL     OW18623   4.174   6.220   4.570  0.2219  0.2043 -0.1263
 5938SOL    HW118624   4.188   6.247   4.661  1.5173 -0.7559 -0.0152
 5938SOL    HW218625   4.220   6.285   4.518  0.4684  0.1083 -0.0304
 5939SOL     OW18626   7.336   7.167   7.267 -0.2560  0.0395 -0.2459
 5939SOL    HW118627   7.255   7.217   7.259 -1.1050 -1.4689 -1.5531
 5939SOL    HW218628   7.405   7.229   7.243 -1.3362  0.4334 -2.6034
 5940SOL     OW18629   6.979   0.261   5.858 -0.0524 -0.0786 -0.7490
 5940SOL    HW118630   7.008   0.303   5.777 -0.1143  0.1344 -0.6604
 5940SOL    HW218631   6.940   0.178   5.828  0.6440 -0.3667 -0.8618
 5941SOL     OW18632   7.947   2.294   5.711  0.8569  0.2563  0.5330
 5941SOL    HW118633   7.961   2.215   5.660 -0.5611  0.4072 -0.1473
 5941SOL    HW218634   7.876   2.272   5.772  0.4014  0.9925  0.2937
 5942SOL     OW18635   0.802   2.945   3.694  0.1307 -0.0314 -0.7660
 5942SOL    HW118636   0.722   2.990   3.668  0.1990 -0.3350 -1.5157
 5942SOL    HW218637   0.778   2.853   3.696 -0.1447  0.0408  1.2569
 5943SOL     OW18638   7.268   6.412   6.909  0.0739 -0.0340  0.6184
 5943SOL    HW118639   7.204   6.478   6.881 -0.0545 -0.3670  0.1059
 5943SOL    HW218640   7.279   6.356   6.832  0.8614 -0.0756  0.7578
 5944SOL     OW18641   7.578   6.807   2.748  0.1594  0.0158 -0.9604
 5944SOL    HW118642   7.637   6.800   2.823 -0.4691  1.3198 -0.3173
 5944SOL    HW218643   7.490   6.806   2.786 -0.1562  1.3749 -1.6060
 5945SOL     OW18644   4.397   5.134   6.806 -0.3509  0.3997  0.2019
 5945SOL    HW118645   4.361   5.176   6.884 -1.2480 -1.5744  0.9382
 5945SOL    HW218646   4.476   5.089   6.837 -0.4561 -0.0165 -0.1151
 5946SOL     OW18647   1.477   3.644   2.264 -0.6062 -0.4554  0.2592
 5946SOL    HW118648   1.492   3.693   2.183 -0.5394 -0.0033  0.5360
 5946SOL    HW218649   1.540   3.573   2.261 -0.8828 -0.6822 -0.2766
 5947SOL     OW18650   1.498   6.837   5.880  0.1748 -0.4863 -0.0970
 5947SOL    HW118651   1.573   6.878   5.924  1.0946 -0.4975 -1.5847
 5947SOL    HW218652   1.432   6.906   5.875  0.3977 -0.2248  0.4893
 5948SOL     OW18653   3.485   7.256   6.991 -0.2757  0.8572  0.2282
 5948SOL    HW118654   3.440   7.341   6.988 -2.3477 -0.1981  0.0125
 5948SOL    HW218655   3.488   7.234   7.084  0.2752  1.1503  0.2856
 5949SOL     OW18656   0.662   4.888   2.957  0.2813  0.0162  0.1091
 5949SOL    HW118657   0.616   4.804   2.954  1.4118 -0.6385  0.4589
 5949SOL    HW218658   0.626   4.932   3.034  1.0681 -1.0132  1.1076
 5950SOL     OW18659   4.440   7.709   3.306  0.7517  0.1568 -0.2197
 5950SOL    HW118660   4.412   7.632   3.356  0.4609 -0.0552 -0.7003
 5950SOL    HW218661   4.384   7.708   3.228  0.2402  1.2681  0.1144
 5951SOL     OW18662   1.355   4.673   2.233 -0.0066 -0.3558  0.0592
 5951SOL    HW118663   1.442   4.700   2.263 -0.4881  1.2636  0.0464
 5951SOL    HW218664   1.332   4.600   2.291 -0.7748  2.4211  3.6211
 5952SOL     OW18665   0.053   3.850   3.699  0.6305 -0.8225  0.2373
 5952SOL    HW118666   0.063   3.928   3.753  1.9158 -1.1889  0.5763
 5952SOL    HW218667   0.092   3.874   3.615  1.1374 -1.1224  0.3812
 5953SOL     OW18668   3.091   4.499   5.834  0.0713  0.0647  0.0350
 5953SOL    HW118669   3.138   4.416   5.831 -1.4563 -0.9158  1.3564
 5953SOL    HW218670   3.042   4.502   5.752  1.3142  0.4552 -0.7299
 5954SOL     OW18671   0.363   3.478   6.914 -0.4470 -0.7557 -0.0375
 5954SOL    HW118672   0.285   3.530   6.933 -0.4792 -1.9040  3.8221
 5954SOL    HW218673   0.332   3.387   6.918  0.6280 -1.1928 -1.1224
 5955SOL     OW18674   6.016   4.423   5.114  0.3982 -0.1631  0.2330
 5955SOL    HW118675   6.073   4.347   5.103  0.6934  0.2914 -1.7262
 5955SOL    HW218676   5.932   4.395   5.077  0.3683  0.2892 -0.0479
 5956SOL     OW18677   1.596   1.918   3.572  0.0138 -0.0300 -0.2736
 5956SOL    HW118678   1.601   1.993   3.513  1.2985  0.7747  0.7819
 5956SOL    HW218679   1.505   1.889   3.568 -0.1717  0.6913 -1.7832
 5957SOL     OW18680   7.224   7.881   5.778 -0.5420  0.1868 -0.2065
 5957SOL    HW118681   7.281   7.935   5.832  0.9837 -3.2235  1.9480
 5957SOL    HW218682   7.144   7.871   5.830 -0.8178  0.3515 -0.5940
 5958SOL     OW18683   2.739   3.670   6.627 -0.1051 -0.2161  0.2092
 5958SOL    HW118684   2.722   3.612   6.552 -0.0856 -0.7370  0.6022
 5958SOL    HW218685   2.721   3.616   6.704  1.0440 -0.0559  0.6033
 5959SOL     OW18686   3.128   4.031   7.829 -0.2033 -0.2182  0.1175
 5959SOL    HW118687   3.141   4.108   7.773 -1.2956 -1.3715 -1.8229
 5959SOL    HW218688   3.090   4.066   7.910 -0.4074  1.3115 -0.6091
 5960SOL     OW18689   7.604   2.424   0.927  0.7221  0.0240 -0.1859
 5960SOL    HW118690   7.560   2.492   0.877 -0.3701  0.1241  0.8667
 5960SOL    HW218691   7.623   2.464   1.012  0.5399 -0.7939  0.2612
 5961SOL     OW18692   7.386   7.425   6.758  0.5597  0.1509  0.1505
 5961SOL    HW118693   7.438   7.504   6.776 -0.7656  0.8758  1.0140
 5961SOL    HW218694   7.403   7.367   6.832  1.7017 -0.4896 -0.5917
 5962SOL     OW18695   7.601   5.960   4.765  0.2592  0.6789  0.4251
 5962SOL    HW118696   7.623   6.026   4.700  1.4776 -0.8409 -0.7809
 5962SOL    HW218697   7.545   6.006   4.828  0.5781  2.6747 -0.6683
 5963SOL     OW18698   7.674   0.652   2.783  0.3880 -0.0469  0.0990
 5963SOL    HW118699   7.629   0.663   2.867  1.8501  1.9668  0.6985
 5963SOL    HW218700   7.603   0.645   2.719 -0.8359  1.7530  1.1578
 5964SOL     OW18701   1.667   7.960   5.537  0.4279  0.3173  0.5359
 5964SOL    HW118702   1.707   7.905   5.604  1.0830  0.2934  0.1319
 5964SOL    HW218703   1.573   7.955   5.555  0.4807 -0.8857  0.5288
 5965SOL     OW18704   2.728   1.009   1.886  0.1789  0.6182  0.3317
 5965SOL    HW118705   2.806   0.987   1.937 -0.3113 -0.3233  0.7259
 5965SOL    HW218706   2.744   0.972   1.799  0.8258  1.8248 -0.0772
 5966SOL     OW18707   7.543   0.213   0.772 -0.4707  0.1096 -0.0074
 5966SOL    HW118708   7.517   0.206   0.680 -1.3132  1.2618  0.1160
 5966SOL    HW218709   7.540   0.307   0.791  0.1928 -0.0631  1.0625
 5967SOL     OW18710   5.871   0.052   6.305 -0.5549 -0.0026  0.0775
 5967SOL    HW118711   5.894  -0.000   6.382 -2.3291 -0.7139  0.1666
 5967SOL    HW218712   5.949   0.048   6.249  1.5798  2.1653  2.6071
 5968SOL     OW18713   1.797   7.949   6.598 -0.3006  0.5499  0.0358
 5968SOL    HW118714   1.792   7.978   6.507  2.1856  0.5753 -0.1739
 5968SOL    HW218715   1.720   7.987   6.640 -0.5244  2.0940 -1.6576
 5969SOL     OW18716   2.485   0.733   0.498  0.4535  0.1597 -0.0294
 5969SOL    HW118717   2.478   0.777   0.414 -0.4542  0.8082  0.3691
 5969SOL    HW218718   2.534   0.653   0.479 -1.5117 -0.7598 -1.5889
 5970SOL     OW18719   3.757   2.841   6.284  0.4097  0.3041 -0.0235
 5970SOL    HW118720   3.850   2.861   6.290  0.2272  0.7411  2.3964
 5970SOL    HW218721   3.744   2.771   6.348 -1.1048  0.9698  0.4274
 5971SOL     OW18722   1.552   2.053   0.226  0.5531 -0.2210 -0.3147
 5971SOL    HW118723   1.474   2.104   0.203  1.5015  2.4663  1.8912
 5971SOL    HW218724   1.517   1.970   0.259 -1.1072 -0.8110 -3.1878
 5972SOL     OW18725   1.433   3.918   6.488 -0.6087  0.3843 -0.1001
 5972SOL    HW118726   1.442   4.011   6.467 -0.8911  0.4512  0.0795
 5972SOL    HW218727   1.339   3.901   6.483 -0.7627  0.5253  1.6491
 5973SOL     OW18728   0.249   5.426   6.104  0.2583  0.0902 -0.8748
 5973SOL    HW118729   0.240   5.414   6.199 -0.4802  0.4317 -0.8981
 5973SOL    HW218730   0.315   5.494   6.095  1.1294 -0.7015 -0.6373
 5974SOL     OW18731   3.063   7.742   3.055 -0.8187 -0.3651  1.3196
 5974SOL    HW118732   3.047   7.744   3.150 -1.8602  1.5725  1.1487
 5974SOL    HW218733   3.111   7.823   3.037  0.2263 -1.1883  0.3059
 5975SOL     OW18734   4.365   2.745   0.489 -0.2346 -0.2087 -0.2794
 5975SOL    HW118735   4.279   2.778   0.513 -0.0712 -1.1719  1.8486
 5975SOL    HW218736   4.400   2.707   0.570  1.5150 -1.3079 -1.4786
 5976SOL     OW18737   0.979   6.820   5.141  0.7725  0.3414 -0.7225
 5976SOL    HW118738   1.040   6.797   5.211  0.5772  1.8949  0.0076
 5976SOL    HW218739   1.029   6.876   5.083  0.7925 -0.5617 -1.6020
 5977SOL     OW18740   5.152   4.660   0.893  0.1293 -0.1958  0.0231
 5977SOL    HW118741   5.068   4.616   0.882  0.2220 -0.0482 -1.3609
 5977SOL    HW218742   5.147   4.698   0.981 -0.6553 -1.4385  0.5369
 5978SOL     OW18743   1.028   5.323   0.463  0.1201 -0.4331  0.2066
 5978SOL    HW118744   0.979   5.361   0.389  1.6334  1.2847  0.0281
 5978SOL    HW218745   1.006   5.229   0.460 -1.5078 -0.0640 -1.1151
 5979SOL     OW18746   3.732   6.400   2.171  0.7040 -0.1251 -0.0286
 5979SOL    HW118747   3.709   6.311   2.144 -0.7187 -0.1650  1.2300
 5979SOL    HW218748   3.828   6.397   2.181  0.6804 -1.5233  0.0312
 5980SOL     OW18749   2.311   2.324   2.725 -0.4717 -0.0604 -0.0959
 5980SOL    HW118750   2.258   2.262   2.776  0.2691 -1.0458 -0.5039
 5980SOL    HW218751   2.267   2.330   2.641  0.4960 -1.5356 -0.7376
 5981SOL     OW18752   5.689   3.022   2.804 -0.3301 -0.1987  0.2529
 5981SOL    HW118753   5.723   3.097   2.755 -0.3846 -0.4479 -0.1735
 5981SOL    HW218754   5.618   3.058   2.857 -0.8912 -0.0907 -0.5515
 5982SOL     OW18755   5.674   1.317   6.410  0.0036  0.0728  0.2253
 5982SOL    HW118756   5.727   1.357   6.341  0.8945  3.9454  2.8339
 5982SOL    HW218757   5.590   1.361   6.406 -0.4737 -0.7527  0.6960
 5983SOL     OW18758   2.322   2.893   7.748  0.4607  0.0380 -0.0379
 5983SOL    HW118759   2.387   2.824   7.733 -0.1158 -0.6030  0.3462
 5983SOL    HW218760   2.326   2.948   7.670  0.9121 -0.4435 -0.3583
 5984SOL     OW18761   2.106   4.874   0.622  0.4391  0.5190 -0.1197
 5984SOL    HW118762   2.145   4.902   0.538 -0.4549 -1.7861 -1.3794
 5984SOL    HW218763   2.181   4.865   0.681  1.4066 -0.2252 -1.4036
 5985SOL     OW18764   5.423   7.442   5.256  0.5515  0.2883  0.0524
 5985SOL    HW118765   5.391   7.531   5.242  0.6656  0.1623 -1.0790
 5985SOL    HW218766   5.372   7.409   5.329  0.0268  1.0425  0.0334
 5986SOL     OW18767   4.088   6.996   2.507  0.4495 -0.1178 -0.6272
 5986SOL    HW118768   4.152   7.061   2.537 -0.8170  0.3272  1.2647
 5986SOL    HW218769   4.139   6.937   2.450  2.0393  1.4134 -0.8754
 5987SOL     OW18770   4.971   2.947   1.706  0.0509 -0.8352 -0.5631
 5987SOL    HW118771   5.038   2.998   1.661 -0.6156 -0.7865 -1.5359
 5987SOL    HW218772   4.991   2.856   1.684  1.5444 -1.0922  1.5904
 5988SOL     OW18773   7.631   2.531   0.207  0.1603  1.1759  0.0438
 5988SOL    HW118774   7.625   2.627   0.204  0.2588  1.2319  1.1685
 5988SOL    HW218775   7.664   2.512   0.294  2.5340  0.2244 -0.9757
 5989SOL     OW18776   7.818   7.456   7.513  0.2523  0.1684  0.0350
 5989SOL    HW118777   7.772   7.423   7.590 -0.9517  1.6048 -0.0270
 5989SOL    HW218778   7.836   7.547   7.533 -0.1754  0.5999 -1.4050
 5990SOL     OW18779   3.496   6.375   4.081 -0.5324  0.5585 -0.2736
 5990SOL    HW118780   3.519   6.463   4.111 -1.2143  0.0239  1.9563
 5990SOL    HW218781   3.485   6.385   3.986 -1.3585  3.0509 -0.0018
 5991SOL     OW18782   0.186   6.253   5.796  0.7773 -0.6471  0.0231
 5991SOL    HW118783   0.131   6.217   5.726  1.3412 -2.3075  0.3846
 5991SOL    HW218784   0.164   6.346   5.798  0.9704 -0.4624 -2.5934
 5992SOL     OW18785   1.119   4.092   7.362  0.2776 -0.3311  0.2560
 5992SOL    HW118786   1.196   4.080   7.418  0.2225  0.7281  0.5726
 5992SOL    HW218787   1.075   4.169   7.397  0.4705  0.6248 -1.4768
 5993SOL     OW18788   7.476   1.277   5.062 -0.2877 -0.1652 -0.0441
 5993SOL    HW118789   7.406   1.335   5.031 -0.1088 -0.2703 -0.6502
 5993SOL    HW218790   7.546   1.336   5.088 -0.5059 -0.0693  0.3421
 5994SOL     OW18791   2.019   1.554   2.829 -0.1068 -0.2744  0.2450
 5994SOL    HW118792   2.049   1.513   2.911  0.3958 -1.0709 -0.3198
 5994SOL    HW218793   2.069   1.509   2.761 -0.5438  0.3632 -0.5022
 5995SOL     OW18794   7.923   2.795   6.600  0.4850  0.2131  0.4532
 5995SOL    HW118795   7.848   2.830   6.647 -1.4756  0.3855 -2.5479
 5995SOL    HW218796   7.933   2.853   6.525  2.7200 -0.6956 -0.0253
 5996SOL     OW18797   7.267   1.345   0.237  0.5029 -0.0917  0.4378
 5996SOL    HW118798   7.352   1.325   0.275 -0.2854 -2.9910  0.9253
 5996SOL    HW218799   7.275   1.321   0.144  0.1799 -0.5835  0.5317
 5997SOL     OW18800   1.908   0.118   0.109 -0.4009 -0.4510 -0.0992
 5997SOL    HW118801   2.002   0.109   0.124 -0.5557 -0.5810  0.8480
 5997SOL    HW218802   1.878   0.176   0.179 -0.5764  1.9700 -2.0124
 5998SOL     OW18803   5.425   1.324   7.558  0.0105  0.1223 -0.8251
 5998SOL    HW118804   5.415   1.263   7.485  0.9299  0.8489 -1.5859
 5998SOL    HW218805   5.337   1.335   7.592 -0.1437 -1.9350 -0.3930
 5999SOL     OW18806   1.096   0.179   2.802 -0.1925 -0.3746  0.2294
 5999SOL    HW118807   1.097   0.149   2.893  0.2990  0.0298  0.3646
 5999SOL    HW218808   1.144   0.112   2.754 -3.6552 -2.6326 -0.4414
 6000SOL     OW18809   5.261   1.681   2.109  0.0460 -0.0697  0.5498
 6000SOL    HW118810   5.300   1.767   2.128  0.5457 -0.6177  2.1885
 6000SOL    HW218811   5.316   1.619   2.157 -0.1603 -1.3559 -0.8112
 6001SOL     OW18812   0.011   7.537   5.322 -0.2888 -0.1291 -0.5644
 6001SOL    HW118813   0.016   7.560   5.414  2.6641  2.6045 -1.2475
 6001SOL    HW218814   0.040   7.446   5.318 -1.3009 -0.5831  1.1968
 6002SOL     OW18815   7.501   7.799   3.825 -0.1385 -0.1856  0.2824
 6002SOL    HW118816   7.527   7.708   3.813 -1.3399 -0.2765 -2.6684
 6002SOL    HW218817   7.423   7.795   3.880  0.0841 -0.9102  0.5484
 6003SOL     OW18818   3.634   3.491   4.889  0.0286  0.2081 -0.4697
 6003SOL    HW118819   3.595   3.456   4.808 -0.8704 -0.1645  0.0991
 6003SOL    HW218820   3.563   3.542   4.929  0.3873  0.1898  0.2004
 6004SOL     OW18821   5.527   0.366   4.827 -0.9450  0.3835  0.0954
 6004SOL    HW118822   5.450   0.319   4.858 -0.1099 -1.0837  0.0737
 6004SOL    HW218823   5.541   0.435   4.891 -0.1526 -1.6273  2.2514
 6005SOL     OW18824   7.402   3.364   6.296  0.2161  0.2755 -0.3505
 6005SOL    HW118825   7.483   3.400   6.258  0.4915 -0.8974 -0.9201
 6005SOL    HW218826   7.426   3.342   6.386  0.7001 -0.5546 -0.6701
 6006SOL     OW18827   3.716   4.799   3.751 -0.1698  0.1326 -0.4881
 6006SOL    HW118828   3.665   4.868   3.793  1.0207  0.6824  0.0901
 6006SOL    HW218829   3.743   4.837   3.667 -0.0329  0.1290 -0.4450
 6007SOL     OW18830   7.550   3.404   6.523 -0.2243  0.6483 -0.8677
 6007SOL    HW118831   7.566   3.474   6.587 -3.2915 -0.2118  1.0727
 6007SOL    HW218832   7.619   3.415   6.458  2.8743  1.9430  2.2790
 6008SOL     OW18833   5.038   7.414   1.351 -0.3076 -0.0287  0.5112
 6008SOL    HW118834   4.993   7.440   1.431  2.0086  1.9284  1.2911
 6008SOL    HW218835   5.018   7.483   1.288 -0.0964 -0.2365  0.2126
 6009SOL     OW18836   1.618   1.890   0.530  0.2258 -0.2815  0.2551
 6009SOL    HW118837   1.548   1.955   0.537  0.8350  0.4926 -0.5998
 6009SOL    HW218838   1.673   1.907   0.605 -0.3567 -0.7269  0.7934
 6010SOL     OW18839   0.699   3.884   7.527  0.4647  0.9615 -0.2935
 6010SOL    HW118840   0.714   3.888   7.432  2.7492  0.9366 -0.0022
 6010SOL    HW218841   0.779   3.920   7.565  0.5594 -1.0568  1.6527
 6011SOL     OW18842   6.430   5.952   1.905 -0.2769 -0.2896  0.0138
 6011SOL    HW118843   6.400   6.026   1.852 -0.1731 -0.6485 -0.5468
 6011SOL    HW218844   6.494   5.907   1.850  0.4861 -0.1626  0.7804
 6012SOL     OW18845   2.679   3.838   4.550  0.1077 -0.2820 -0.1051
 6012SOL    HW118846   2.704   3.746   4.554  0.0709 -0.3568 -1.2195
 6012SOL    HW218847   2.616   3.843   4.478 -0.6188  0.4600  0.5584
 6013SOL     OW18848   6.475   2.754   5.389  0.4517 -0.2350  0.2129
 6013SOL    HW118849   6.484   2.835   5.338 -2.6713 -0.2677 -0.5594
 6013SOL    HW218850   6.450   2.784   5.477 -1.0448 -0.3109 -0.1618
 6014SOL     OW18851   5.683   5.968   0.586 -0.6005  0.6829 -0.4101
 6014SOL    HW118852   5.617   5.899   0.575  0.5036 -0.8509  1.7990
 6014SOL    HW218853   5.638   6.037   0.633 -0.8441 -0.0264  0.4104
 6015SOL     OW18854   1.244   3.844   6.945 -0.2778  1.1077  0.4234
 6015SOL    HW118855   1.307   3.878   6.882 -0.1435 -0.0694 -0.1045
 6015SOL    HW218856   1.174   3.807   6.892 -0.5526  0.8152  0.9801
 6016SOL     OW18857   3.593   1.063   7.228  0.9681  0.4722  0.1445
 6016SOL    HW118858   3.611   1.149   7.190  0.8014 -0.2089 -1.5860
 6016SOL    HW218859   3.546   1.016   7.159 -0.5096 -0.4264  1.7014
 6017SOL     OW18860   4.958   4.910   6.221  0.3070 -0.1702 -0.1720
 6017SOL    HW118861   4.977   4.898   6.128  0.1586 -0.1364 -0.2075
 6017SOL    HW218862   4.863   4.899   6.228  0.4379 -1.2847  0.1484
 6018SOL     OW18863   4.099   6.280   7.451  0.3626 -0.2701 -0.0468
 6018SOL    HW118864   4.159   6.343   7.490 -1.0521  0.8548  0.4298
 6018SOL    HW218865   4.127   6.273   7.360  0.3747  1.3248 -0.1941
 6019SOL     OW18866   1.260   3.206   4.363 -0.2196  0.7636 -0.2597
 6019SOL    HW118867   1.259   3.279   4.300  1.3375  0.9140 -0.1704
 6019SOL    HW218868   1.353   3.194   4.382 -0.6116  0.1987  1.4224
 6020SOL     OW18869   0.141   4.521   7.535 -0.2360  0.4433  0.3727
 6020SOL    HW118870   0.109   4.434   7.560  1.0420 -0.0493  0.3823
 6020SOL    HW218871   0.203   4.544   7.605 -0.6893  1.4450  0.4605
 6021SOL     OW18872   6.729   2.261   4.351  0.5191  0.9144  0.4604
 6021SOL    HW118873   6.687   2.176   4.336  0.2401  1.1594 -0.1606
 6021SOL    HW218874   6.813   2.255   4.306  0.6063  0.8832  0.6260
 6022SOL     OW18875   6.487   6.736   2.649  0.0651  0.1097  0.8767
 6022SOL    HW118876   6.487   6.702   2.560  0.3450  3.2543 -0.4657
 6022SOL    HW218877   6.580   6.747   2.671 -0.0183  1.2201  0.7227
 6023SOL     OW18878   2.548   1.631   6.298  0.1718  0.3410  0.3823
 6023SOL    HW118879   2.553   1.631   6.202  0.2125 -0.3792  0.3838
 6023SOL    HW218880   2.487   1.561   6.319  0.1679  0.4949  0.8875
 6024SOL     OW18881   1.750   0.154   1.645  0.0108  0.0468 -0.5252
 6024SOL    HW118882   1.808   0.199   1.583 -0.6795 -0.2004 -1.3666
 6024SOL    HW218883   1.699   0.094   1.591 -1.5263  0.7463  0.0842
 6025SOL     OW18884   6.784   6.002   5.483 -0.0352 -0.0137 -0.1694
 6025SOL    HW118885   6.785   5.909   5.508  1.0573  0.1327  0.4030
 6025SOL    HW218886   6.859   6.011   5.423 -0.9906  0.2151 -1.3570
 6026SOL     OW18887   0.987   1.152   0.966  0.1219  0.2839 -0.4883
 6026SOL    HW118888   0.925   1.179   1.034 -0.6308 -0.8198 -0.7203
 6026SOL    HW218889   1.033   1.077   1.005  0.2018  0.1128 -0.9123
 6027SOL     OW18890   2.729   6.763   0.960 -0.2050  0.4829  0.1718
 6027SOL    HW118891   2.773   6.696   0.909 -1.1363  1.1120 -1.5636
 6027SOL    HW218892   2.658   6.717   1.005  0.3951 -0.0227  0.6022
 6028SOL     OW18893   1.441   5.649   1.881 -0.0074  0.0305  0.2580
 6028SOL    HW118894   1.385   5.677   1.808  1.6441 -1.6526 -1.7742
 6028SOL    HW218895   1.494   5.726   1.901 -0.6639  0.5890 -0.0983
 6029SOL     OW18896   1.996   5.307   4.177  0.3418 -0.1105 -0.3104
 6029SOL    HW118897   2.064   5.362   4.217 -0.7938  0.5206  0.8375
 6029SOL    HW218898   2.044   5.246   4.122  1.9349 -0.3878  1.2811
 6030SOL     OW18899   3.508   4.078   3.204  0.1588  0.5329 -0.4569
 6030SOL    HW118900   3.453   4.001   3.188  0.3571  0.5111 -1.0607
 6030SOL    HW218901   3.453   4.152   3.178  0.3361  0.5249 -0.8598
 6031SOL     OW18902   0.186   7.007   3.531  0.2894 -0.1715 -0.0871
 6031SOL    HW118903   0.239   6.974   3.457  0.8301  0.2024  0.1284
 6031SOL    HW218904   0.247   7.008   3.605 -0.3278 -0.8191  0.4442
 6032SOL     OW18905   2.227   7.611   2.709  0.0606 -0.0907 -0.0101
 6032SOL    HW118906   2.195   7.644   2.793 -0.1632 -0.7516  0.1695
 6032SOL    HW218907   2.149   7.587   2.660  0.1590  0.8495 -0.6568
 6033SOL     OW18908   4.519   3.257   2.145  0.1216  0.5236 -1.0994
 6033SOL    HW118909   4.458   3.253   2.219 -0.7450  3.0828 -1.5496
 6033SOL    HW218910   4.463   3.264   2.068  0.9790 -3.3643 -2.2682
 6034SOL     OW18911   4.016   2.028   4.487 -0.1171 -0.1526  0.5061
 6034SOL    HW118912   4.079   2.043   4.557 -0.2982  1.9281  0.2897
 6034SOL    HW218913   3.932   2.025   4.531 -0.1863  0.6867  0.4459
 6035SOL     OW18914   1.400   4.611   2.638 -0.9813  0.2695 -0.0856
 6035SOL    HW118915   1.487   4.627   2.676 -0.8650  0.6278 -0.5018
 6035SOL    HW218916   1.340   4.622   2.712 -0.6807  0.0276  0.2039
 6036SOL     OW18917   1.066   5.607   7.637 -0.1641 -0.3360  0.0028
 6036SOL    HW118918   1.044   5.551   7.563 -1.2246  2.4942 -2.0233
 6036SOL    HW218919   1.151   5.644   7.615 -0.8317  1.1186 -0.2577
 6037SOL     OW18920   2.301   7.977   7.516 -0.0171 -0.2542  0.2882
 6037SOL    HW118921   2.229   7.925   7.480 -0.0943  0.3079 -0.4010
 6037SOL    HW218922   2.270   8.005   7.602 -0.3429 -0.5928  0.2822
 6038SOL     OW18923   6.793   3.481   5.469 -0.3108 -0.2616  0.3724
 6038SOL    HW118924   6.755   3.496   5.555  0.7283  0.6148  0.7064
 6038SOL    HW218925   6.839   3.397   5.478  1.2756  0.6580  1.2450
 6039SOL     OW18926   5.794   7.856   2.192 -0.1519  0.2994 -0.6874
 6039SOL    HW118927   5.809   7.892   2.279  0.1983  2.3669 -1.5401
 6039SOL    HW218928   5.701   7.870   2.175 -0.9155 -2.7879  0.4354
 6040SOL     OW18929   3.594   1.147   2.379  0.0786 -0.0894  0.0921
 6040SOL    HW118930   3.549   1.178   2.301 -1.4939 -0.9181  0.6275
 6040SOL    HW218931   3.552   1.063   2.399  1.8856 -0.9091  0.6312
 6041SOL     OW18932   3.870   0.011   1.952  0.1351 -0.1098 -0.3132
 6041SOL    HW118933   3.929   0.003   2.027  0.7975 -0.6760 -0.8729
 6041SOL    HW218934   3.807   0.078   1.978  1.7843  1.4764 -0.1660
 6042SOL     OW18935   1.154   5.110   3.008  0.3405  0.1781 -0.1306
 6042SOL    HW118936   1.145   5.154   2.923  0.6378 -2.0064 -1.3950
 6042SOL    HW218937   1.244   5.128   3.035  0.7127 -0.2829 -1.0193
 6043SOL     OW18938   6.509   6.237   0.832 -0.0881 -0.8693  0.9029
 6043SOL    HW118939   6.521   6.234   0.927  0.7214  2.5449  1.0418
 6043SOL    HW218940   6.594   6.264   0.797 -0.5546 -1.3939 -0.7568
 6044SOL     OW18941   7.598   4.127   7.431 -0.8749 -0.2798  0.5396
 6044SOL    HW118942   7.666   4.190   7.409 -0.0603 -0.8865  1.2619
 6044SOL    HW218943   7.524   4.180   7.461  0.2296  0.3087  2.3424
 6045SOL     OW18944   7.439   0.652   3.355 -0.0834  0.4294 -0.4248
 6045SOL    HW118945   7.399   0.661   3.269 -1.2372  0.5342  0.0924
 6045SOL    HW218946   7.400   0.572   3.391 -1.4304  1.6334  0.9002
 6046SOL     OW18947   4.824   6.328   6.608 -0.7430 -0.4774 -0.1448
 6046SOL    HW118948   4.914   6.308   6.582 -0.4524 -1.0302  1.1987
 6046SOL    HW218949   4.779   6.349   6.526  0.4481 -0.8220 -0.9067
 6047SOL     OW18950   6.094   2.640   3.238 -0.0465  0.1153  0.4924
 6047SOL    HW118951   6.182   2.610   3.260 -0.8764 -0.9552  2.5513
 6047SOL    HW218952   6.036   2.577   3.280 -1.8292  0.5269 -1.2119
 6048SOL     OW18953   2.493   1.856   1.978 -0.3485  0.2343 -0.1351
 6048SOL    HW118954   2.547   1.934   1.984 -0.8624  0.7198 -1.4008
 6048SOL    HW218955   2.544   1.795   1.925 -0.9036  0.6086 -1.1380
 6049SOL     OW18956   5.102   1.699   1.123 -0.6158  0.1981 -0.7712
 6049SOL    HW118957   5.099   1.664   1.212 -0.4631  2.0829  0.0096
 6049SOL    HW218958   5.178   1.656   1.083 -0.2587 -0.1288  0.2337
 6050SOL     OW18959   2.965   1.613   0.360 -0.0463 -0.0112 -0.4686
 6050SOL    HW118960   2.932   1.611   0.450  1.0642  1.0929 -0.0048
 6050SOL    HW218961   2.936   1.531   0.322  0.4814 -1.0583  1.2765
 6051SOL     OW18962   1.273   7.698   0.044 -0.2236 -0.2303 -0.0477
 6051SOL    HW118963   1.360   7.738   0.053 -0.2901 -0.2217  0.6454
 6051SOL    HW218964   1.279   7.615   0.090 -0.3857 -0.5600 -0.6076
 6052SOL     OW18965   0.192   2.497   6.957  0.3932  0.2551  0.4566
 6052SOL    HW118966   0.211   2.404   6.942  0.2102  0.1727  0.7216
 6052SOL    HW218967   0.165   2.530   6.872 -0.9418 -0.2819  0.6563
 6053SOL     OW18968   7.002   4.738   3.321 -0.1779 -0.2037  0.0740
 6053SOL    HW118969   6.942   4.734   3.395 -0.2467  0.6441  0.0729
 6053SOL    HW218970   7.088   4.754   3.360 -0.1437 -0.2111  0.0017
 6054SOL     OW18971   0.941   3.910   7.616  0.3837 -0.2884  0.2640
 6054SOL    HW118972   1.022   3.952   7.646 -0.2844  0.4269  1.1074
 6054SOL    HW218973   0.970   3.828   7.577  1.7299  0.8792 -1.3559
 6055SOL     OW18974   0.363   5.884   7.269 -0.0589 -0.5662  0.5066
 6055SOL    HW118975   0.332   5.947   7.335  2.4864  1.3506  0.0388
 6055SOL    HW218976   0.449   5.857   7.301  0.5205 -0.8491 -1.2100
 6056SOL     OW18977   3.174   7.593   2.620  0.5179  0.0398 -0.1561
 6056SOL    HW118978   3.101   7.646   2.587 -0.1332 -1.0774 -0.5827
 6056SOL    HW218979   3.174   7.608   2.714 -0.7723 -0.5228 -0.0439
 6057SOL     OW18980   3.482   2.883   1.547  0.5614  1.0174  0.2427
 6057SOL    HW118981   3.571   2.857   1.570  1.0026  2.8794  0.8307
 6057SOL    HW218982   3.435   2.887   1.630 -0.2919 -0.5645 -0.1211
 6058SOL     OW18983   3.551   1.493   2.406  0.5821 -0.0737 -0.6374
 6058SOL    HW118984   3.542   1.443   2.324  1.3647  1.5424 -1.7736
 6058SOL    HW218985   3.478   1.554   2.404  1.1944  0.6631 -0.6591
 6059SOL     OW18986   5.330   0.090   7.378  0.7274  0.2341  0.2838
 6059SOL    HW118987   5.382   0.137   7.443  1.0653  0.6729 -0.2982
 6059SOL    HW218988   5.358   0.125   7.294  0.1181 -0.1512 -0.0930
 6060SOL     OW18989   2.921   0.955   3.552 -0.4186  0.7252  0.3543
 6060SOL    HW118990   2.888   1.000   3.475  0.7187  0.5648 -0.2487
 6060SOL    HW218991   3.011   0.985   3.561  1.1090 -2.7386 -1.2500
 6061SOL     OW18992   6.755   1.374   5.479  0.4142  0.0312 -0.0049
 6061SOL    HW118993   6.787   1.380   5.569 -0.6240  1.9252  0.3001
 6061SOL    HW218994   6.734   1.281   5.467  1.9084 -0.5040  1.1948
 6062SOL     OW18995   6.453   3.758   5.897  0.4153 -0.2635  0.9519
 6062SOL    HW118996   6.536   3.721   5.867 -1.5283 -4.3323 -0.1526
 6062SOL    HW218997   6.423   3.810   5.823  1.1401 -0.2917  0.6274
 6063SOL     OW18998   7.615   6.483   2.375  0.3909  0.4117  0.4568
 6063SOL    HW118999   7.623   6.525   2.289  2.3919  0.8026  0.7901
 6063SOL    HW219000   7.617   6.556   2.437 -2.4381  0.2601  0.8729
 6064SOL     OW19001   2.579   6.844   0.319 -0.0840  0.6696  0.1495
 6064SOL    HW119002   2.667   6.862   0.353 -0.4092  0.3596  1.1755
 6064SOL    HW219003   2.575   6.749   0.312 -0.1105  0.7176 -0.5409
 6065SOL     OW19004   1.295   4.837   3.488  0.1737  0.1419 -0.2597
 6065SOL    HW119005   1.329   4.875   3.569  0.3188  0.5856 -0.5249
 6065SOL    HW219006   1.324   4.898   3.420  1.5540 -1.1312 -0.8570
 6066SOL     OW19007   0.942   2.567   5.415  0.2558  0.1948 -0.1717
 6066SOL    HW119008   0.934   2.662   5.409 -3.8266 -0.0636 -1.2966
 6066SOL    HW219009   0.925   2.548   5.507  4.6713  0.5355  0.9849
 6067SOL     OW19010   6.159   0.407   1.848  0.7415 -0.0147  0.1015
 6067SOL    HW119011   6.159   0.313   1.832 -1.9846  0.1163 -1.2785
 6067SOL    HW219012   6.068   0.434   1.833  1.5588  2.9342 -0.2132
 6068SOL     OW19013   7.002   7.203   3.474  0.1082  0.3682  0.4466
 6068SOL    HW119014   6.965   7.268   3.534  0.0048  0.3921  0.3567
 6068SOL    HW219015   6.967   7.226   3.388  0.0168  0.1563  0.4244
 6069SOL     OW19016   2.888   3.486   2.501  0.2706  0.1804 -0.0196
 6069SOL    HW119017   2.976   3.448   2.498  1.1789  2.1503  0.0453
 6069SOL    HW219018   2.867   3.505   2.409 -0.9876 -2.0669 -0.2798
 6070SOL     OW19019   2.016   1.674   7.699 -0.2411  0.0605 -0.6171
 6070SOL    HW119020   1.967   1.593   7.715  0.4746 -0.7206 -2.1820
 6070SOL    HW219021   2.063   1.690   7.781 -1.3184 -0.4365  0.1241
 6071SOL     OW19022   1.454   7.715   3.361  0.6739  0.2109 -0.1092
 6071SOL    HW119023   1.424   7.637   3.315  0.1580  0.6387 -0.5195
 6071SOL    HW219024   1.380   7.739   3.418  1.5269 -0.6558  1.4184
 6072SOL     OW19025   7.457   5.760   5.996  0.0825  0.3696  0.0736
 6072SOL    HW119026   7.413   5.845   5.990 -0.0378  0.3377  0.4601
 6072SOL    HW219027   7.404   5.710   6.058  0.8525  0.4482  0.8205
 6073SOL     OW19028   7.821   7.210   6.177 -0.2279  0.4855 -0.0769
 6073SOL    HW119029   7.880   7.249   6.242  0.9218 -0.2554 -0.6381
 6073SOL    HW219030   7.812   7.119   6.204 -0.5180  0.4097 -0.4165
 6074SOL     OW19031   3.487   5.250   5.006 -0.0443  0.1676  0.5404
 6074SOL    HW119032   3.541   5.171   5.007  1.4028  1.0456 -1.7330
 6074SOL    HW219033   3.515   5.297   4.928  0.2836  3.7393  2.6149
 6075SOL     OW19034   0.114   0.035   2.644  0.2442 -0.6063  0.1024
 6075SOL    HW119035   0.197   0.063   2.682  0.8364  0.5029 -1.8603
 6075SOL    HW219036   0.050   0.097   2.678  0.4889 -0.5613  0.4836
 6076SOL     OW19037   7.999   5.473   7.280  0.5750 -0.4097  0.1228
 6076SOL    HW119038   8.006   5.378   7.290  2.2709 -0.1293  2.2544
 6076SOL    HW219039   8.012   5.507   7.369  0.2242  1.8413 -0.6404
 6077SOL     OW19040   3.977   7.358   6.817 -0.0407  0.0955 -0.0869
 6077SOL    HW119041   3.985   7.377   6.724  0.8382  1.1759  0.1806
 6077SOL    HW219042   3.885   7.333   6.829  0.2368 -1.7720 -1.5081
 6078SOL     OW19043   5.082   5.558   0.777  0.1315 -0.1099 -0.4667
 6078SOL    HW119044   5.076   5.465   0.796 -0.9298 -0.1925 -1.1469
 6078SOL    HW219045   5.083   5.563   0.681 -1.4708  0.6486 -0.4824
 6079SOL     OW19046   4.328   1.748   0.844  0.1202 -0.2596  0.5262
 6079SOL    HW119047   4.361   1.806   0.776  0.7460 -1.3582 -0.1450
 6079SOL    HW219048   4.399   1.685   0.857 -0.8105 -1.2970  0.7027
 6080SOL     OW19049   4.400   2.070   7.020 -0.3763 -0.0393  0.1262
 6080SOL    HW119050   4.442   2.149   7.054  0.0357  0.0592 -0.6138
 6080SOL    HW219051   4.434   2.000   7.075 -0.0714  0.1809  0.2217
 6081SOL     OW19052   3.802   5.907   1.941  0.0998  0.1753 -0.0831
 6081SOL    HW119053   3.844   5.823   1.924  1.2713  0.5216  0.9684
 6081SOL    HW219054   3.872   5.972   1.930 -1.0329  1.1714 -2.0474
 6082SOL     OW19055   5.354   1.675   1.449  0.1377 -0.0244 -0.0182
 6082SOL    HW119056   5.388   1.701   1.535  0.9586 -0.8327 -0.0828
 6082SOL    HW219057   5.431   1.643   1.402 -0.4833 -0.5747 -0.6731
 6083SOL     OW19058   1.468   4.819   3.230  0.0998 -0.9173 -0.3981
 6083SOL    HW119059   1.417   4.751   3.185 -2.7613  0.7603  0.0715
 6083SOL    HW219060   1.484   4.885   3.163  1.1755 -1.1449 -0.3802
 6084SOL     OW19061   3.298   3.611   7.816 -0.7638  0.0828 -0.4860
 6084SOL    HW119062   3.347   3.620   7.735  1.3360 -1.1320  0.5504
 6084SOL    HW219063   3.297   3.699   7.853 -1.3946  0.5684 -1.6216
 6085SOL     OW19064   0.609   0.012   0.061  0.6394  0.1447  0.1197
 6085SOL    HW119065   0.608   0.014  -0.035  1.0417  1.9217  0.1268
 6085SOL    HW219066   0.518   0.022   0.087  0.5884  0.1619 -0.0683
 6086SOL     OW19067   4.756   1.279   5.900  0.1596 -0.1571 -0.1715
 6086SOL    HW119068   4.688   1.211   5.903  0.5429 -0.5274  0.4687
 6086SOL    HW219069   4.796   1.269   5.813  0.6954 -1.2595  0.1702
 6087SOL     OW19070   7.772   7.610   4.166 -0.3840 -0.2626  0.1704
 6087SOL    HW119071   7.861   7.599   4.201 -0.8724  0.4639  1.7237
 6087SOL    HW219072   7.759   7.533   4.111  0.8743 -0.8747  0.6819
 6088SOL     OW19073   3.431   0.154   6.594 -0.1310  0.0282  0.2861
 6088SOL    HW119074   3.398   0.174   6.506 -1.7392 -1.9352  0.3435
 6088SOL    HW219075   3.352   0.134   6.645  0.8671 -0.3430  1.7531
 6089SOL     OW19076   3.718   2.930   3.406  0.5657 -0.0738  0.1294
 6089SOL    HW119077   3.729   3.023   3.427  2.2111 -0.1747 -0.0993
 6089SOL    HW219078   3.688   2.929   3.315  0.5271  0.2434  0.1386
 6090SOL     OW19079   0.425   4.420   6.510  0.3828 -0.2808  0.7455
 6090SOL    HW119080   0.485   4.476   6.559 -0.2156  0.2322  0.9099
 6090SOL    HW219081   0.339   4.461   6.521  0.1763 -0.3476 -0.4335
 6091SOL     OW19082   6.916   3.396   7.543 -0.3527 -0.3423 -0.3573
 6091SOL    HW119083   6.909   3.314   7.494  0.6866  0.6703 -2.2948
 6091SOL    HW219084   7.010   3.412   7.551 -0.4933 -0.2225  1.6296
 6092SOL     OW19085   3.732   7.055   2.719  0.1196 -0.0821  0.0734
 6092SOL    HW119086   3.777   7.065   2.635  0.8137  0.5908  0.5173
 6092SOL    HW219087   3.641   7.077   2.700  0.6127  2.0485 -0.1236
 6093SOL     OW19088   4.053   7.555   2.772  0.4878 -0.3206  0.5718
 6093SOL    HW119089   4.055   7.648   2.751 -1.4586 -0.0059  1.5608
 6093SOL    HW219090   3.967   7.541   2.812  0.3343 -2.7298 -0.4154
 6094SOL     OW19091   0.828   2.774   2.852  0.5888 -0.6497  0.2914
 6094SOL    HW119092   0.844   2.836   2.781  0.2939  0.6460  1.3134
 6094SOL    HW219093   0.908   2.722   2.857  2.0922  1.5958  1.2827
 6095SOL     OW19094   5.574   6.830   6.472  0.5281  0.1395  0.0748
 6095SOL    HW119095   5.549   6.738   6.481  0.0531  0.4068  1.9045
 6095SOL    HW219096   5.662   6.827   6.434  0.0655 -1.0053 -0.9892
 6096SOL     OW19097   1.771   0.906   3.877  0.0449  0.4127  0.5527
 6096SOL    HW119098   1.713   0.893   3.952 -0.2412  3.3077  0.9726
 6096SOL    HW219099   1.844   0.845   3.892 -1.9888 -2.0953  0.8930
 6097SOL     OW19100   7.058   3.048   5.973 -0.1379 -0.0674 -0.4835
 6097SOL    HW119101   6.988   2.992   6.009 -1.9255  2.3424  0.0339
 6097SOL    HW219102   7.113   3.069   6.048  0.8028 -1.4071 -0.7616
 6098SOL     OW19103   0.803   5.618   2.739 -0.4126  0.3862 -0.0872
 6098SOL    HW119104   0.865   5.632   2.667  0.3041 -0.8007  0.2803
 6098SOL    HW219105   0.844   5.552   2.794 -1.5605  0.3088  0.7110
 6099SOL     OW19106   5.105   2.953   0.699  0.3835  0.8739  0.4719
 6099SOL    HW119107   5.159   2.892   0.750 -1.2291 -2.0759 -1.0743
 6099SOL    HW219108   5.164   2.984   0.630  0.4117 -2.0673 -1.0143
 6100SOL     OW19109   2.712   4.753   4.364 -0.0657 -0.2913  0.1219
 6100SOL    HW119110   2.770   4.692   4.317  0.6223  0.3173  0.1714
 6100SOL    HW219111   2.624   4.719   4.347  0.0987  0.3209 -2.2318
 6101SOL     OW19112   6.100   1.059   3.227 -0.2529 -0.0586  0.0832
 6101SOL    HW119113   6.181   1.028   3.186 -0.2994 -0.3833  0.2377
 6101SOL    HW219114   6.049   1.096   3.154 -0.3406 -0.6447 -0.1573
 6102SOL     OW19115   3.632   1.322   7.142  0.3159 -0.0870  0.3632
 6102SOL    HW119116   3.714   1.371   7.131 -0.0478  0.7387  1.1364
 6102SOL    HW219117   3.564   1.390   7.144 -0.2595 -0.6620  0.9246
 6103SOL     OW19118   1.047   3.681   0.754 -0.6394 -0.2371  0.6436
 6103SOL    HW119119   1.131   3.640   0.735 -0.8257 -0.5183  0.4219
 6103SOL    HW219120   1.012   3.631   0.828 -1.1864 -0.9373 -0.0759
 6104SOL     OW19121   4.924   4.096   3.089 -0.6956  0.3919 -0.4630
 6104SOL    HW119122   4.955   4.185   3.103 -1.3812  0.8064 -1.4830
 6104SOL    HW219123   4.981   4.060   3.021 -1.1499  0.4688 -0.8973
 6105SOL     OW19124   0.563   6.655   0.994  0.6543  0.1013  0.3295
 6105SOL    HW119125   0.656   6.673   0.992  0.3508  1.8396  0.5224
 6105SOL    HW219126   0.533   6.691   1.078 -0.4906  1.2153 -0.5307
 6106SOL     OW19127   2.982   1.074   4.485 -0.0076 -0.2326 -0.1778
 6106SOL    HW119128   3.035   1.100   4.410  0.4342 -1.1797 -0.2155
 6106SOL    HW219129   2.892   1.071   4.452 -0.2437  2.1449  0.0811
 6107SOL     OW19130   6.585   5.498   5.582 -0.3252 -0.7172 -0.1019
 6107SOL    HW119131   6.584   5.571   5.644  0.9900  0.0156 -0.8917
 6107SOL    HW219132   6.621   5.536   5.501 -0.5986 -1.9987 -0.8529
 6108SOL     OW19133   5.822   1.011   0.415  0.4559 -0.5277 -0.2346
 6108SOL    HW119134   5.774   0.930   0.398  0.4044 -0.6167  0.3004
 6108SOL    HW219135   5.856   1.000   0.504  0.6264 -0.0478 -0.2372
 6109SOL     OW19136   5.794   5.397   6.636 -0.2499  0.4573  0.1246
 6109SOL    HW119137   5.821   5.402   6.727  0.1943 -0.1272  0.0299
 6109SOL    HW219138   5.730   5.326   6.634  1.4899 -1.1893 -0.4109
 6110SOL     OW19139   7.017   7.054   5.713  0.4314 -0.6582 -0.3681
 6110SOL    HW119140   7.022   6.983   5.778 -1.9166 -0.4455  0.1375
 6110SOL    HW219141   6.987   7.130   5.763 -0.8269 -0.3236 -1.5816
 6111SOL     OW19142   1.919   4.673   6.257 -0.5040 -0.0383 -0.3386
 6111SOL    HW119143   1.992   4.675   6.319 -0.2885  0.0976 -0.5946
 6111SOL    HW219144   1.843   4.704   6.307 -0.4456 -0.4482  0.0049
 6112SOL     OW19145   6.999   2.213   3.856  0.3629 -0.2395 -0.4893
 6112SOL    HW119146   6.960   2.131   3.886  3.4236 -2.9140 -3.0837
 6112SOL    HW219147   6.954   2.232   3.773 -0.0590  0.4925 -0.0971
 6113SOL     OW19148   6.530   5.507   2.920  0.3656  0.4653  0.2416
 6113SOL    HW119149   6.583   5.449   2.865 -1.2777  0.9252 -1.9362
 6113SOL    HW219150   6.579   5.512   3.002  1.2161 -2.9589  0.0911
 6114SOL     OW19151   4.060   7.597   1.373 -0.3603 -0.2705 -0.0708
 6114SOL    HW119152   4.142   7.644   1.358 -1.2401  0.7324 -2.2148
 6114SOL    HW219153   4.051   7.592   1.468  1.2411  1.2869  0.1994
 6115SOL     OW19154   4.655   5.263   0.970  0.2398  0.3668  0.7513
 6115SOL    HW119155   4.566   5.285   0.996  0.5027 -0.0583  2.0546
 6115SOL    HW219156   4.658   5.167   0.970  0.7626  0.3797  0.9328
 6116SOL     OW19157   6.384   4.968   5.051 -0.3195  0.2932  0.3876
 6116SOL    HW119158   6.431   5.052   5.058  1.5162 -0.7050  0.6833
 6116SOL    HW219159   6.312   4.976   5.113 -0.8161  2.0257 -0.3376
 6117SOL     OW19160   3.770   1.758   7.837 -0.1962  0.3757 -0.6376
 6117SOL    HW119161   3.835   1.817   7.875 -0.7145  1.1529 -0.9220
 6117SOL    HW219162   3.754   1.795   7.750  1.1325 -1.4791 -1.7337
 6118SOL     OW19163   2.313   4.917   5.092  0.4286  0.4267 -0.6907
 6118SOL    HW119164   2.384   4.877   5.040  0.2077  0.1293 -0.7639
 6118SOL    HW219165   2.355   4.940   5.175  0.1593 -1.5768  0.0486
 6119SOL     OW19166   7.909   4.825   5.684  0.4677  0.4137  0.1248
 6119SOL    HW119167   7.940   4.757   5.744 -2.0082  0.3247  1.4542
 6119SOL    HW219168   7.931   4.907   5.727 -1.9117  0.3486  1.6130
 6120SOL     OW19169   4.204   3.164   5.631  0.3085  0.2552 -0.0766
 6120SOL    HW119170   4.289   3.182   5.590 -0.9603  2.1159 -2.0829
 6120SOL    HW219171   4.145   3.231   5.596 -1.7772 -0.3048  2.0807
 6121SOL     OW19172   2.227   4.329   7.182  0.2235 -0.0575 -0.4364
 6121SOL    HW119173   2.301   4.314   7.122  0.2017 -1.5688 -0.1176
 6121SOL    HW219174   2.265   4.378   7.254  0.5769  0.4960 -0.9902
 6122SOL     OW19175   1.379   4.593   3.590 -0.0642  0.4611  0.0231
 6122SOL    HW119176   1.409   4.628   3.674 -2.0832  3.2444 -0.2914
 6122SOL    HW219177   1.391   4.665   3.528 -1.1095 -0.6322 -1.5072
 6123SOL     OW19178   6.984   4.254   7.621 -0.1898 -0.2921  0.2116
 6123SOL    HW119179   7.043   4.317   7.579 -0.8268  0.5454  0.5509
 6123SOL    HW219180   6.904   4.257   7.569 -1.0796  0.9344  1.5427
 6124SOL     OW19181   7.896   6.982   0.487  0.2519  0.2305  0.0700
 6124SOL    HW119182   7.912   6.979   0.582  0.9014  1.5844  0.0263
 6124SOL    HW219183   7.982   6.968   0.448  0.5946  2.8165 -0.2441
 6125SOL     OW19184   6.493   0.790   2.465  0.7486  0.0421  0.1447
 6125SOL    HW119185   6.470   0.833   2.547  1.8613  0.7364  0.1146
 6125SOL    HW219186   6.409   0.762   2.428  0.2027  0.1171  1.2916
 6126SOL     OW19187   1.679   0.876   0.104 -0.0339 -0.5329 -0.4998
 6126SOL    HW119188   1.672   0.865   0.199 -2.0550 -1.5935 -0.7096
 6126SOL    HW219189   1.735   0.804   0.076  0.5024 -0.2659 -0.1391
 6127SOL     OW19190   5.876   4.850   4.010  0.6935  0.1634  0.4478
 6127SOL    HW119191   5.854   4.818   4.097  0.3102 -1.0144 -0.0459
 6127SOL    HW219192   5.891   4.770   3.959 -1.4087  0.6739 -1.1405
 6128SOL     OW19193   0.402   3.381   3.834  0.4632 -0.6123 -0.1569
 6128SOL    HW119194   0.383   3.471   3.862 -0.1743 -1.2731  1.6981
 6128SOL    HW219195   0.433   3.390   3.744  1.2124  1.5442  0.2440
 6129SOL     OW19196   4.308   0.362   2.737 -0.3140 -0.1369 -0.5590
 6129SOL    HW119197   4.257   0.380   2.816  1.8209 -0.3576  0.9481
 6129SOL    HW219198   4.332   0.449   2.704  1.5373  0.0233  0.9951
 6130SOL     OW19199   2.299   5.235   2.757  0.8558  0.1960  0.1295
 6130SOL    HW119200   2.268   5.325   2.751 -0.6198 -0.2370  0.8582
 6130SOL    HW219201   2.350   5.232   2.838  0.1237  0.1627  0.5954
 6131SOL     OW19202   3.567   3.936   0.253  0.1021 -0.1242  0.8314
 6131SOL    HW119203   3.618   4.011   0.282  0.3454  0.4684 -1.0216
 6131SOL    HW219204   3.495   3.973   0.202 -0.1053 -1.1120  0.3672
 6132SOL     OW19205   1.067   2.797   6.025 -0.1025  0.3090 -0.1661
 6132SOL    HW119206   0.972   2.800   6.018 -0.0860  1.0144 -0.1571
 6132SOL    HW219207   1.097   2.867   5.967  0.5423 -1.8094 -2.5948
 6133SOL     OW19208   0.860   5.165   5.174 -0.5941  1.1660  0.2884
 6133SOL    HW119209   0.792   5.228   5.197 -2.1379 -0.8761  1.6974
 6133SOL    HW219210   0.812   5.084   5.157  1.3182  0.2993 -1.2696
 6134SOL     OW19211   4.607   5.164   3.262  0.7407  0.8117 -0.0500
 6134SOL    HW119212   4.684   5.170   3.318  0.9992  1.7704 -0.4897
 6134SOL    HW219213   4.639   5.127   3.180  0.2145 -1.3680  0.6694
 6135SOL     OW19214   4.264   3.422   1.256 -0.0498 -0.2930  0.0649
 6135SOL    HW119215   4.253   3.380   1.171 -1.0230 -0.2147  0.1442
 6135SOL    HW219216   4.293   3.511   1.236  1.4308 -0.7968 -0.1199
 6136SOL     OW19217   7.125   7.475   3.829 -0.1770 -0.0953  0.1737
 6136SOL    HW119218   7.136   7.512   3.741  0.1916 -0.1097  0.2131
 6136SOL    HW219219   7.213   7.478   3.868 -0.0023 -1.6581 -0.0630
 6137SOL     OW19220   4.783   2.853   7.680  0.1822 -0.1598  0.1364
 6137SOL    HW119221   4.792   2.921   7.612  0.0236  0.2169  0.4886
 6137SOL    HW219222   4.770   2.772   7.631  0.4347  0.0532 -0.2932
 6138SOL     OW19223   4.080   0.396   7.323 -0.3586 -0.8742  0.4888
 6138SOL    HW119224   4.060   0.479   7.366  0.0406 -0.2238 -0.5418
 6138SOL    HW219225   4.040   0.329   7.379 -1.6799  0.0862  0.7286
 6139SOL     OW19226   7.957   5.669   0.863 -0.1463 -0.3780 -0.5219
 6139SOL    HW119227   7.991   5.618   0.789 -0.5589  1.0913 -1.7807
 6139SOL    HW219228   7.863   5.680   0.843 -0.4643 -0.7616  0.7129
 6140SOL     OW19229   5.985   6.797   5.694 -0.3367 -0.1959 -0.0689
 6140SOL    HW119230   5.950   6.770   5.778 -0.4586 -0.4081 -0.1857
 6140SOL    HW219231   6.033   6.720   5.662  0.0178  0.0041 -0.0278
 6141SOL     OW19232   6.720   7.455   3.161  0.0920 -0.3926  0.0624
 6141SOL    HW119233   6.681   7.456   3.248  0.0356 -0.9450  0.0470
 6141SOL    HW219234   6.711   7.364   3.132 -0.1703 -0.1507 -0.6423
 6142SOL     OW19235   1.636   3.352   4.814 -0.0388  0.3552 -0.0032
 6142SOL    HW119236   1.587   3.371   4.895 -0.6510  0.9952 -0.5142
 6142SOL    HW219237   1.712   3.410   4.818  0.8129 -0.7669  0.8789
 6143SOL     OW19238   7.876   7.417   6.747  0.0903  0.1213  0.4280
 6143SOL    HW119239   7.930   7.377   6.679  0.0474 -1.1448  1.0980
 6143SOL    HW219240   7.918   7.501   6.766  0.1419  0.4713 -1.0800
 6144SOL     OW19241   5.767   2.264   7.230  0.1137 -0.1116  0.0154
 6144SOL    HW119242   5.705   2.196   7.258  0.0283 -0.1110 -0.1700
 6144SOL    HW219243   5.853   2.222   7.234  0.1020 -0.1166  0.2623
 6145SOL     OW19244   7.479   6.517   7.913 -0.1595 -0.4671 -0.2592
 6145SOL    HW119245   7.539   6.524   7.839  0.1093 -0.0856 -0.0051
 6145SOL    HW219246   7.396   6.489   7.873 -0.0209 -0.2584 -0.7045
 6146SOL     OW19247   0.206   7.765   1.308 -0.2951 -0.7447  0.1475
 6146SOL    HW119248   0.178   7.856   1.309  0.1761 -0.5992  1.0634
 6146SOL    HW219249   0.161   7.727   1.233  0.4313  0.5240 -0.9829
 6147SOL     OW19250   0.653   4.387   3.107  0.0019 -0.2654  0.5742
 6147SOL    HW119251   0.620   4.455   3.166 -0.8238 -0.9722  0.9319
 6147SOL    HW219252   0.617   4.410   3.021  0.7696  0.4586  0.4259
 6148SOL     OW19253   2.674   7.525   5.435  0.2234  0.3059  0.4986
 6148SOL    HW119254   2.619   7.522   5.514 -0.2909 -0.1118  0.1329
 6148SOL    HW219255   2.612   7.520   5.363  0.8391 -2.4574  0.0719
 6149SOL     OW19256   0.440   4.690   2.083  0.4803  0.3993  0.0988
 6149SOL    HW119257   0.374   4.758   2.067 -0.9922 -1.3341 -1.6611
 6149SOL    HW219258   0.452   4.647   1.998 -0.6852 -3.2532  1.5683
 6150SOL     OW19259   3.526   4.418   6.865  0.1726 -0.3219 -0.3039
 6150SOL    HW119260   3.581   4.342   6.845 -0.5362 -1.1732  0.8383
 6150SOL    HW219261   3.586   4.492   6.867  0.9405 -0.9113 -1.0821
 6151SOL     OW19262   2.523   3.962   1.519  0.2570  0.6422  0.1630
 6151SOL    HW119263   2.432   3.940   1.499  0.9610 -1.4468 -1.1268
 6151SOL    HW219264   2.518   4.043   1.569 -2.4319 -0.4663  1.9288
 6152SOL     OW19265   1.487   1.994   4.731 -0.4535  0.0286  0.0165
 6152SOL    HW119266   1.425   1.932   4.694 -0.7130  0.5824 -0.5070
 6152SOL    HW219267   1.537   2.026   4.655 -0.2608  0.3836  0.2898
 6153SOL     OW19268   5.905   5.345   0.845  0.2822 -0.0526 -0.2855
 6153SOL    HW119269   5.848   5.328   0.770 -0.3684 -4.3318  0.9264
 6153SOL    HW219270   5.846   5.353   0.919  1.0771  0.5956  0.2982
 6154SOL     OW19271   3.741   4.614   6.904  0.1611  0.6400  0.4066
 6154SOL    HW119272   3.673   4.680   6.888 -0.5142  0.0670  0.8533
 6154SOL    HW219273   3.802   4.624   6.831 -2.4003 -1.4053 -2.2507
 6155SOL     OW19274   3.871   6.710   5.345 -0.4838  0.3690 -1.0104
 6155SOL    HW119275   3.906   6.621   5.335 -1.1850 -0.1493  0.7875
 6155SOL    HW219276   3.949   6.763   5.361 -0.1245 -0.0488 -1.3211
 6156SOL     OW19277   0.507   4.614   3.963 -0.5519 -1.0066  0.3012
 6156SOL    HW119278   0.542   4.644   3.879  0.7273 -1.0081  0.8138
 6156SOL    HW219279   0.477   4.695   4.005 -0.0120 -0.8286  0.3621
 6157SOL     OW19280   1.142   2.100   4.196 -0.0694 -0.8232 -0.9073
 6157SOL    HW119281   1.136   2.024   4.254 -1.9191 -0.1711 -0.1789
 6157SOL    HW219282   1.096   2.072   4.116 -0.5510 -0.5604 -0.7254
 6158SOL     OW19283   0.317   6.379   6.655 -0.3249  0.3624  0.1964
 6158SOL    HW119284   0.313   6.445   6.725  0.1358  1.4186 -0.7485
 6158SOL    HW219285   0.267   6.305   6.690 -0.8511  1.1941  1.2948
 6159SOL     OW19286   5.372   3.742   7.306  0.1133  0.3137 -0.1208
 6159SOL    HW119287   5.441   3.698   7.257 -0.0700 -1.3394  1.0278
 6159SOL    HW219288   5.374   3.833   7.274  2.3644  0.1593 -0.6003
 6160SOL     OW19289   3.551   2.393   1.703 -0.2021  0.0472  0.9186
 6160SOL    HW119290   3.628   2.390   1.759  1.0592 -0.6990 -0.7581
 6160SOL    HW219291   3.541   2.486   1.681  1.1219  0.0124  0.0289
 6161SOL     OW19292   1.189   5.702   3.855 -0.7740  0.0625  0.0076
 6161SOL    HW119293   1.283   5.700   3.839 -0.9003 -0.8794 -0.7276
 6161SOL    HW219294   1.176   5.775   3.916  0.5653 -0.5545  1.0597
 6162SOL     OW19295   4.033   2.785   1.851 -0.2132 -0.0669 -0.3910
 6162SOL    HW119296   4.063   2.796   1.941  3.0175  0.3461 -1.3689
 6162SOL    HW219297   3.986   2.866   1.831  0.7810  0.7096  0.3317
 6163SOL     OW19298   4.644   2.562   4.720  0.6939 -0.3610  0.0720
 6163SOL    HW119299   4.737   2.573   4.738  0.6564 -0.6564  0.4466
 6163SOL    HW219300   4.638   2.566   4.625  1.0922 -0.3576  0.0437
 6164SOL     OW19301   6.868   6.339   7.667  0.2245 -0.3594 -0.4074
 6164SOL    HW119302   6.907   6.422   7.639  0.5377 -0.3722 -0.0098
 6164SOL    HW219303   6.931   6.272   7.641 -0.1498 -0.5076 -0.9734
 6165SOL     OW19304   0.726   4.829   3.970 -0.0349  0.6048  0.1233
 6165SOL    HW119305   0.683   4.798   3.890 -2.3348  0.1560  1.4418
 6165SOL    HW219306   0.747   4.749   4.018  1.3929  0.8708 -0.0074
 6166SOL     OW19307   5.675   1.457   3.379  0.4060  0.3794  0.1339
 6166SOL    HW119308   5.740   1.487   3.315 -0.9922  2.0261 -0.5643
 6166SOL    HW219309   5.608   1.414   3.327  0.3783 -0.3717  0.7600
 6167SOL     OW19310   2.525   4.904   0.641  0.2335  0.1590  0.2937
 6167SOL    HW119311   2.441   4.943   0.616  0.2594  0.5786  0.8763
 6167SOL    HW219312   2.590   4.952   0.590  0.2102  0.4735  0.5614
 6168SOL     OW19313   1.843   1.532   5.957 -0.0990 -0.5959 -0.6185
 6168SOL    HW119314   1.775   1.579   5.909 -0.1430 -0.0336 -0.0324
 6168SOL    HW219315   1.878   1.469   5.895  0.1279  0.3883 -1.5250
 6169SOL     OW19316   4.444   3.140   0.845 -0.4589  0.1738  0.0623
 6169SOL    HW119317   4.356   3.167   0.818 -0.0592 -0.4621 -2.1011
 6169SOL    HW219318   4.438   3.045   0.856  0.1546 -0.0224 -1.1192
 6170SOL     OW19319   1.296   1.349   7.961 -0.2599  0.0070 -0.0944
 6170SOL    HW119320   1.209   1.373   7.992 -0.4052  1.0663 -1.2250
 6170SOL    HW219321   1.350   1.425   7.983  0.9807 -1.5565  2.7345
 6171SOL     OW19322   0.728   7.607   0.526  0.2684  0.4188  0.1562
 6171SOL    HW119323   0.742   7.560   0.443 -0.8534 -0.9200  0.6995
 6171SOL    HW219324   0.784   7.561   0.589  0.6163  1.0268  0.2972
 6172SOL     OW19325   5.792   3.224   6.300  0.2193  0.0668  0.1284
 6172SOL    HW119326   5.733   3.286   6.257  0.0715 -0.6788 -0.7864
 6172SOL    HW219327   5.873   3.231   6.251  0.6859  0.6052  0.9641
 6173SOL     OW19328   6.023   4.790   0.534  0.2658  0.6931  0.2079
 6173SOL    HW119329   6.046   4.710   0.488 -0.5814  1.2925 -1.3415
 6173SOL    HW219330   6.091   4.853   0.510  0.7026  0.5760  1.0880
 6174SOL     OW19331   2.591   3.676   1.554 -0.0212  0.0172 -0.2385
 6174SOL    HW119332   2.607   3.767   1.531  0.0503 -0.0715 -0.5406
 6174SOL    HW219333   2.630   3.626   1.483 -0.0231 -0.2515 -0.0536
 6175SOL     OW19334   1.963   4.133   2.861 -0.5614  0.3153  0.4979
 6175SOL    HW119335   1.933   4.048   2.827  0.0418  0.0842  0.5297
 6175SOL    HW219336   1.940   4.196   2.793 -0.2109 -0.0075  0.0706
 6176SOL     OW19337   0.150   7.899   5.410 -0.3173  0.3651  0.3864
 6176SOL    HW119338   0.194   7.953   5.345  1.3137 -2.3603 -0.9579
 6176SOL    HW219339   0.066   7.876   5.369 -0.3431  0.6015  0.3028
 6177SOL     OW19340   3.331   1.521   3.506  0.2500 -1.1792  0.5752
 6177SOL    HW119341   3.352   1.602   3.461 -1.4514 -0.3668  1.1488
 6177SOL    HW219342   3.336   1.542   3.599 -2.1939 -1.0985  0.7507
 6178SOL     OW19343   2.137   6.225   1.021  0.0464  0.5313 -0.3711
 6178SOL    HW119344   2.222   6.269   1.014 -0.4253  1.5538  0.1464
 6178SOL    HW219345   2.149   6.161   1.091 -0.0570  1.8052  0.8626
 6179SOL     OW19346   2.396   3.944   3.825 -0.1953  0.0812  0.1792
 6179SOL    HW119347   2.408   3.871   3.765  0.1926 -0.8424  1.3371
 6179SOL    HW219348   2.477   3.946   3.877 -0.2467  1.2727  0.2357
 6180SOL     OW19349   7.348   3.621   5.010  0.1042 -0.2063  0.4577
 6180SOL    HW119350   7.278   3.650   5.069 -0.3421  0.3041 -0.3104
 6180SOL    HW219351   7.307   3.555   4.955  0.4770 -0.5626  0.6061
 6181SOL     OW19352   1.919   2.361   0.744 -0.6831 -0.1097  0.1597
 6181SOL    HW119353   1.990   2.324   0.797  0.0723  1.8821  0.6400
 6181SOL    HW219354   1.959   2.377   0.658 -0.2756  1.6657  0.6337
 6182SOL     OW19355   4.101   6.223   6.944 -0.0709  0.2045 -0.2512
 6182SOL    HW119356   4.137   6.294   6.891  0.3282  0.7746  0.7558
 6182SOL    HW219357   4.157   6.220   7.022 -1.7774  0.6870  1.0594
 6183SOL     OW19358   6.278   2.650   1.688 -0.1210  0.7476 -0.3035
 6183SOL    HW119359   6.224   2.724   1.717 -0.0273  0.8046 -0.2765
 6183SOL    HW219360   6.323   2.681   1.609  1.6410  1.4834  0.9394
 6184SOL     OW19361   0.105   4.865   7.887 -0.5164  0.4565  0.0681
 6184SOL    HW119362   0.091   4.826   7.973  0.4618 -0.2572 -0.0783
 6184SOL    HW219363   0.041   4.936   7.882 -3.4224 -1.9762 -0.2465
 6185SOL     OW19364   5.084   6.205   0.695 -0.4391 -0.3801 -0.5567
 6185SOL    HW119365   5.063   6.202   0.788  1.7241  2.9432  0.2235
 6185SOL    HW219366   5.179   6.195   0.692 -0.0300  2.7434 -1.9581
 6186SOL     OW19367   6.692   7.431   5.554  0.4910 -0.1050 -0.0145
 6186SOL    HW119368   6.694   7.380   5.635 -0.5193 -1.0108 -0.5414
 6186SOL    HW219369   6.622   7.392   5.502  1.1779  0.4033 -1.3756
 6187SOL     OW19370   4.160   7.741   5.955  0.7775 -0.2364  0.3591
 6187SOL    HW119371   4.248   7.709   5.975  0.7023 -0.0914  0.9248
 6187SOL    HW219372   4.121   7.759   6.040 -0.4765 -2.0857  0.2322
 6188SOL     OW19373   0.257   0.732   2.377 -0.2088  0.5573  0.3145
 6188SOL    HW119374   0.218   0.716   2.291  1.8617 -0.7580 -0.4746
 6188SOL    HW219375   0.217   0.668   2.434 -0.2257  0.1619 -0.1361
 6189SOL     OW19376   5.250   0.282   4.898  0.7882 -0.1739 -0.3028
 6189SOL    HW119377   5.165   0.325   4.911  0.9772 -0.4360  2.5331
 6189SOL    HW219378   5.228   0.194   4.867 -0.2516 -1.0957  2.6794
 6190SOL     OW19379   1.674   2.676   1.797 -0.1842 -0.0859  0.3191
 6190SOL    HW119380   1.716   2.591   1.802 -0.4694 -0.2151  0.5839
 6190SOL    HW219381   1.737   2.732   1.752  0.1197 -0.3651  0.3955
 6191SOL     OW19382   3.596   0.142   3.532  0.3403  0.4026  0.6473
 6191SOL    HW119383   3.545   0.113   3.456  1.9200  2.0258 -1.1289
 6191SOL    HW219384   3.549   0.218   3.565  0.4568  0.6063  0.3460
 6192SOL     OW19385   4.113   1.506   6.880 -0.1502  0.1403 -0.0621
 6192SOL    HW119386   4.092   1.417   6.852  0.6569 -0.5376  1.4126
 6192SOL    HW219387   4.159   1.544   6.805 -0.6291 -0.6155 -0.7603
 6193SOL     OW19388   7.550   4.849   0.171 -1.0569  0.4019 -0.5088
 6193SOL    HW119389   7.529   4.836   0.079 -0.0762 -0.6032 -0.6115
 6193SOL    HW219390   7.611   4.777   0.192 -3.2859 -1.0020  1.6076
 6194SOL     OW19391   7.845   4.402   6.008  0.4162 -0.0765  0.0876
 6194SOL    HW119392   7.750   4.404   6.006  0.4126  1.3557  0.6464
 6194SOL    HW219393   7.867   4.374   6.098  0.5218  0.3222  0.1859
 6195SOL     OW19394   4.029   1.995   3.743 -0.3167 -0.0120 -0.3554
 6195SOL    HW119395   4.012   2.061   3.676  0.1659  1.5080  0.9590
 6195SOL    HW219396   4.115   2.019   3.778  0.6747 -2.3875 -1.0039
 6196SOL     OW19397   7.751   5.683   7.071  0.1160 -0.5585 -0.1524
 6196SOL    HW119398   7.818   5.733   7.118 -1.0924  0.2446  0.7884
 6196SOL    HW219399   7.764   5.706   6.979  1.3976 -0.7676 -0.0444
 6197SOL     OW19400   5.171   2.297   1.870  0.3236  0.1208 -0.1568
 6197SOL    HW119401   5.075   2.299   1.870  0.2596  3.1298  1.0212
 6197SOL    HW219402   5.195   2.338   1.954  2.7028 -2.3800  0.5151
 6198SOL     OW19403   7.643   0.940   7.904 -0.6355  0.0938 -0.6451
 6198SOL    HW119404   7.656   1.034   7.911  0.4777  0.0345 -1.5261
 6198SOL    HW219405   7.596   0.915   7.984 -0.2035  1.2647 -0.0152
 6199SOL     OW19406   0.117   7.030   6.602  0.1785 -0.2401  0.3868
 6199SOL    HW119407   0.051   7.050   6.668  0.7666  0.7513  0.7015
 6199SOL    HW219408   0.136   6.938   6.614  0.5135 -0.0007  1.8473
 6200SOL     OW19409   6.557   1.075   6.562  0.2592  0.3967 -0.2740
 6200SOL    HW119410   6.541   0.981   6.569  0.7178  0.3281 -0.0998
 6200SOL    HW219411   6.570   1.091   6.469  1.0760  0.1316 -0.2127
 6201SOL     OW19412   0.828   4.446   6.990 -0.7687  0.0975  0.3434
 6201SOL    HW119413   0.823   4.393   7.070 -0.3554  0.7307  0.8016
 6201SOL    HW219414   0.739   4.447   6.956 -0.8066 -0.7950  0.3863
 6202SOL     OW19415   3.855   2.181   1.048  0.9729  0.0115  0.0197
 6202SOL    HW119416   3.810   2.100   1.072  2.6510 -1.4888 -1.4902
 6202SOL    HW219417   3.841   2.240   1.121  0.0064 -1.7876  1.3572
 6203SOL     OW19418   2.927   6.544   3.700  0.2605  0.0928  0.0684
 6203SOL    HW119419   2.918   6.612   3.766 -0.7765 -0.4608  0.5195
 6203SOL    HW219420   2.840   6.506   3.692  0.6224 -0.5982 -0.8085
 6204SOL     OW19421   1.578   1.087   5.263  0.6369 -0.1552  0.1514
 6204SOL    HW119422   1.555   1.134   5.343 -0.0635  1.0010 -0.6998
 6204SOL    HW219423   1.511   1.020   5.254  0.1781  0.3152  0.0459
 6205SOL     OW19424   6.494   2.125   6.891  0.3537  0.5749 -0.4201
 6205SOL    HW119425   6.444   2.044   6.902  0.0361  0.8579  0.3313
 6205SOL    HW219426   6.427   2.193   6.885  0.6350  0.9691  0.7038
 6206SOL     OW19427   4.989   3.488   4.716  0.3145  0.0289 -0.7365
 6206SOL    HW119428   4.909   3.436   4.725 -0.8303  1.9045  0.6958
 6206SOL    HW219429   4.970   3.551   4.647  1.1125 -0.3697 -1.3532
 6207SOL     OW19430   2.098   1.276   7.262 -0.2669  0.1497 -0.0744
 6207SOL    HW119431   2.008   1.275   7.229 -0.2931  0.7804 -0.0385
 6207SOL    HW219432   2.120   1.184   7.275 -1.5858  0.0232  1.7327
 6208SOL     OW19433   6.621   4.102   7.936  0.7437  0.6559 -0.1262
 6208SOL    HW119434   6.539   4.124   7.891 -1.0524 -1.6783  1.7192
 6208SOL    HW219435   6.651   4.022   7.893  0.7688  0.2399  0.6314
 6209SOL     OW19436   3.901   4.028   6.525 -0.2619 -0.0817 -0.3154
 6209SOL    HW119437   3.818   4.001   6.563 -1.1030 -0.3196 -2.1703
 6209SOL    HW219438   3.901   4.123   6.532 -0.5925 -0.0960 -0.1130
 6210SOL     OW19439   2.350   6.825   2.514  0.0857  0.2477 -0.3072
 6210SOL    HW119440   2.286   6.889   2.543 -0.2381  0.5251 -1.5851
 6210SOL    HW219441   2.416   6.876   2.468  0.7682 -0.1396  0.2207
 6211SOL     OW19442   3.747   3.431   6.347 -0.4959  0.1746  0.9972
 6211SOL    HW119443   3.829   3.384   6.355  0.0250  0.5746 -1.2906
 6211SOL    HW219444   3.770   3.523   6.364 -0.5734  0.2135  0.8942
 6212SOL     OW19445   1.210   5.933   2.704 -0.1680  0.4582 -0.1007
 6212SOL    HW119446   1.270   5.862   2.685 -2.3203 -1.5727  0.1615
 6212SOL    HW219447   1.213   5.990   2.627  0.8243 -0.5081 -0.7878
 6213SOL     OW19448   5.827   3.003   3.680  0.1855  0.2066 -0.6432
 6213SOL    HW119449   5.850   3.078   3.735 -0.0257 -0.1157 -0.1015
 6213SOL    HW219450   5.908   2.979   3.636  0.4123  0.3268 -0.2966
 6214SOL     OW19451   4.639   5.446   6.741 -0.3386 -0.2638  0.1620
 6214SOL    HW119452   4.718   5.394   6.754 -1.0126 -1.6040 -0.8040
 6214SOL    HW219453   4.590   5.437   6.822 -0.6411 -1.5272 -0.1383
 6215SOL     OW19454   5.611   6.607   1.890 -0.8804 -0.5115  0.4053
 6215SOL    HW119455   5.706   6.596   1.880 -0.9509 -0.0056 -1.0812
 6215SOL    HW219456   5.579   6.519   1.908 -0.4148 -1.2326 -1.9990
 6216SOL     OW19457   4.155   3.977   6.457  0.0757  0.0546  0.1687
 6216SOL    HW119458   4.071   3.987   6.500  0.2067  0.0747  0.4199
 6216SOL    HW219459   4.196   3.902   6.501  0.1649  0.0059  0.0064
 6217SOL     OW19460   7.360   6.300   1.941  0.2416  0.1886 -0.1891
 6217SOL    HW119461   7.274   6.284   1.902 -0.7246 -0.8208  2.1674
 6217SOL    HW219462   7.399   6.213   1.949 -0.2023  0.1483  2.2562
 6218SOL     OW19463   3.879   1.448   2.525  0.0171 -0.3346 -0.1347
 6218SOL    HW119464   3.833   1.529   2.504 -1.1887 -1.0130 -0.2039
 6218SOL    HW219465   3.971   1.467   2.506 -0.1699  1.1581  0.3150
 6219SOL     OW19466   7.280   7.070   6.421  0.0520  0.2898 -0.1385
 6219SOL    HW119467   7.330   7.133   6.368  0.2021  0.7894  0.5751
 6219SOL    HW219468   7.242   7.010   6.357 -0.5585  1.4369 -0.9035
 6220SOL     OW19469   6.022   2.372   5.786  0.2868  0.2623 -0.1151
 6220SOL    HW119470   6.013   2.282   5.754 -0.7836  0.6813 -1.0380
 6220SOL    HW219471   6.066   2.419   5.716  1.4282  0.3353  0.6267
 6221SOL     OW19472   5.985   7.035   3.804  0.0016 -0.0826 -0.5441
 6221SOL    HW119473   6.071   7.049   3.763  1.1120 -1.0797  1.2933
 6221SOL    HW219474   5.924   7.032   3.731  1.1649  2.8362 -1.8261
 6222SOL     OW19475   6.891   1.850   5.115 -0.9331 -0.4867 -0.0544
 6222SOL    HW119476   6.936   1.871   5.197  1.0859 -0.0614 -1.2154
 6222SOL    HW219477   6.808   1.899   5.120  0.5993  2.2472  0.3364
 6223SOL     OW19478   6.451   6.678   5.045  0.0984  0.6456  0.5466
 6223SOL    HW119479   6.454   6.655   5.137  0.5738  2.8223  1.1394
 6223SOL    HW219480   6.358   6.680   5.023  0.0023 -0.3488  0.8384
 6224SOL     OW19481   0.140   0.042   0.981 -0.3094  0.3587  0.2654
 6224SOL    HW119482   0.116  -0.019   0.911  2.2050  2.1442 -2.3507
 6224SOL    HW219483   0.227   0.014   1.008 -0.2716  1.1505  1.0041
 6225SOL     OW19484   1.023   2.343   0.388  0.2877 -0.7528  0.5300
 6225SOL    HW119485   1.034   2.264   0.335 -0.9456 -0.1258 -0.7146
 6225SOL    HW219486   0.934   2.371   0.371  0.5077  0.5844  1.4359
 6226SOL     OW19487   6.622   4.060   7.606 -0.0881 -0.3802 -0.4106
 6226SOL    HW119488   6.546   4.067   7.548 -1.8611 -1.9485  1.5307
 6226SOL    HW219489   6.644   4.150   7.628 -0.3594  0.1707 -2.2172
 6227SOL     OW19490   7.792   3.585   5.434  0.5657 -0.5921  0.4493
 6227SOL    HW119491   7.711   3.572   5.384  0.2106 -0.7275  1.0400
 6227SOL    HW219492   7.827   3.667   5.402 -2.0079  1.7552  3.0107
 6228SOL     OW19493   2.783   6.307   2.247 -0.1896  0.3310 -0.1693
 6228SOL    HW119494   2.784   6.399   2.274 -0.4637  0.0697  0.7753
 6228SOL    HW219495   2.755   6.259   2.325  1.0524 -0.6686 -0.2973
 6229SOL     OW19496   0.998   4.155   7.076 -0.6802  0.1466  0.4534
 6229SOL    HW119497   1.024   4.151   7.168 -0.9066 -2.4494  0.4626
 6229SOL    HW219498   1.062   4.214   7.036  1.3298 -1.0566  1.7073
 6230SOL     OW19499   0.245   2.377   2.769  0.2320  0.7459  0.4685
 6230SOL    HW119500   0.331   2.401   2.735  0.7040  0.7077  1.5947
 6230SOL    HW219501   0.190   2.367   2.691  0.7334  2.6784 -0.1781
 6231SOL     OW19502   2.645   4.497   2.381 -0.2937 -0.2712 -0.4659
 6231SOL    HW119503   2.722   4.554   2.375 -0.2708 -0.2834 -0.2893
 6231SOL    HW219504   2.627   4.491   2.474  0.5678 -1.6966 -0.3556
 6232SOL     OW19505   3.567   4.298   2.605  0.5001  0.8899 -0.8678
 6232SOL    HW119506   3.598   4.388   2.610  1.7456  0.4067  1.0061
 6232SOL    HW219507   3.619   4.258   2.535 -0.7615  1.8216 -2.4154
 6233SOL     OW19508   6.967   5.093   0.887  0.3124 -0.5643 -0.8340
 6233SOL    HW119509   6.966   5.172   0.833  1.4556  1.7670  2.2241
 6233SOL    HW219510   7.057   5.060   0.881  0.9534  0.7199  0.8081
 6234SOL     OW19511   3.253   2.594   3.827 -0.1718  0.0518  0.2567
 6234SOL    HW119512   3.175   2.649   3.819 -0.9194 -0.3585  3.5236
 6234SOL    HW219513   3.326   2.656   3.827 -0.7053  0.6892  0.1217
 6235SOL     OW19514   7.675   5.759   4.926  0.1354 -0.4002  0.3832
 6235SOL    HW119515   7.761   5.733   4.895  1.2925  2.0937  1.2006
 6235SOL    HW219516   7.643   5.821   4.860  0.1666  0.6933  1.3656
 6236SOL     OW19517   0.686   7.221   4.728 -0.2421  0.2365 -0.1856
 6236SOL    HW119518   0.735   7.236   4.809  0.7569  1.3553 -0.9524
 6236SOL    HW219519   0.608   7.275   4.738 -0.7617 -0.6364  0.5586
 6237SOL     OW19520   3.761   5.145   0.531  0.2578 -0.2336  0.1352
 6237SOL    HW119521   3.781   5.098   0.612  2.9558  1.4795  0.6073
 6237SOL    HW219522   3.835   5.126   0.474 -1.3175 -0.9313 -1.7837
 6238SOL     OW19523   4.162   4.074   6.062 -0.4164 -0.1633  0.3019
 6238SOL    HW119524   4.218   4.129   6.008 -0.9148  0.0708  0.0120
 6238SOL    HW219525   4.160   4.117   6.147  0.5338 -0.6425  0.5849
 6239SOL     OW19526   2.356   2.110   0.783  0.6798 -0.9538 -0.8616
 6239SOL    HW119527   2.365   2.132   0.690 -1.2738 -1.4560 -1.2059
 6239SOL    HW219528   2.307   2.183   0.820  0.9400 -1.0388 -0.3420
 6240SOL     OW19529   2.247   1.291   5.983  0.2789  0.1780  0.1058
 6240SOL    HW119530   2.253   1.293   6.079 -0.3401 -1.1196  0.1795
 6240SOL    HW219531   2.180   1.227   5.964  0.9325 -0.1419 -1.2278
 6241SOL     OW19532   6.187   0.014   6.221  0.1046  0.2487  0.3462
 6241SOL    HW119533   6.141  -0.067   6.197  0.0465  0.3878 -0.0240
 6241SOL    HW219534   6.240  -0.009   6.297 -0.4503  0.0381  0.6738
 6242SOL     OW19535   5.424   3.478   1.391  0.0030 -0.2675  0.5512
 6242SOL    HW119536   5.332   3.500   1.377 -0.6159 -2.5228  0.6716
 6242SOL    HW219537   5.468   3.513   1.313 -1.3040 -1.0310 -0.5857
 6243SOL     OW19538   2.201   6.144   6.562 -0.5556 -0.3911 -0.1611
 6243SOL    HW119539   2.115   6.106   6.580  0.1610 -1.4431  1.2405
 6243SOL    HW219540   2.261   6.070   6.564  0.6442  0.5668  0.7804
 6244SOL     OW19541   7.857   3.615   4.924 -0.5933 -0.1368  0.4381
 6244SOL    HW119542   7.852   3.560   5.002 -1.4552 -1.7897 -0.6934
 6244SOL    HW219543   7.898   3.559   4.858 -1.6506  0.4868 -0.8215
 6245SOL     OW19544   6.343   2.835   4.048 -0.1656 -0.3015 -0.1404
 6245SOL    HW119545   6.266   2.822   4.103 -1.1835 -0.2743 -1.5113
 6245SOL    HW219546   6.310   2.883   3.971  0.7486 -2.2136 -1.8146
 6246SOL     OW19547   6.323   0.877   3.613 -0.5520  0.6033  0.1690
 6246SOL    HW119548   6.327   0.950   3.551  0.7799 -0.5188 -1.1684
 6246SOL    HW219549   6.271   0.810   3.567 -0.6460  0.2300  0.8122
 6247SOL     OW19550   6.032   5.086   1.963  0.3239 -0.1626 -0.1529
 6247SOL    HW119551   5.967   5.082   2.033 -0.2989  0.9132 -0.6358
 6247SOL    HW219552   6.053   4.995   1.945 -1.2076 -0.5605 -0.1120
 6248SOL     OW19553   1.243   6.932   1.870  0.2681  0.0669  0.2995
 6248SOL    HW119554   1.307   6.906   1.804  0.1662  1.2440 -0.2792
 6248SOL    HW219555   1.159   6.904   1.833  0.0425  2.0451 -0.8146
 6249SOL     OW19556   7.683   2.007   7.556  0.1331  0.2223 -0.3107
 6249SOL    HW119557   7.667   2.001   7.462  0.5098 -0.7409 -0.3261
 6249SOL    HW219558   7.749   2.075   7.565 -0.0332  0.4410 -0.7266
 6250SOL     OW19559   5.972   5.221   3.760 -0.1516 -0.1322  0.5706
 6250SOL    HW119560   5.886   5.180   3.775 -0.6222 -0.1507 -1.8560
 6250SOL    HW219561   6.032   5.170   3.814 -1.6239 -0.0768  2.3974
 6251SOL     OW19562   0.653   6.289   0.630  0.2274 -0.1249  0.1530
 6251SOL    HW119563   0.676   6.380   0.611 -2.1050  0.0789 -2.4006
 6251SOL    HW219564   0.722   6.238   0.587  0.2355  0.4766 -0.5784
 6252SOL     OW19565   1.123   0.117   3.059 -0.2185  0.2519  0.3558
 6252SOL    HW119566   1.194   0.069   3.102 -0.1338  1.2496  1.3622
 6252SOL    HW219567   1.051   0.114   3.121  0.3718  2.9686  1.3161
 6253SOL     OW19568   6.094   7.019   0.590 -0.6154 -0.2206 -0.3836
 6253SOL    HW119569   6.106   7.105   0.550 -1.0623  0.5933  1.1280
 6253SOL    HW219570   6.040   6.970   0.527 -1.5451  1.0999 -0.6479
 6254SOL     OW19571   1.286   3.217   7.170  0.5108  0.1633 -0.2521
 6254SOL    HW119572   1.235   3.206   7.250 -0.1731 -0.5874 -0.7821
 6254SOL    HW219573   1.274   3.136   7.122  0.7144  0.7000 -1.2364
 6255SOL     OW19574   1.679   5.441   7.665 -0.1853 -0.1054 -0.0711
 6255SOL    HW119575   1.749   5.377   7.654 -1.3235 -1.1615 -1.5083
 6255SOL    HW219576   1.637   5.417   7.748 -0.0653 -0.6962 -0.1778
 6256SOL     OW19577   6.475   0.519   4.732  0.8822 -0.3081 -0.2734
 6256SOL    HW119578   6.502   0.554   4.817 -1.8006  0.6586  0.2955
 6256SOL    HW219579   6.520   0.435   4.725  0.0279 -1.1594  2.8564
 6257SOL     OW19580   7.263   1.846   0.796 -0.0179 -0.4882  0.4667
 6257SOL    HW119581   7.337   1.889   0.753  1.1159  0.4628  3.1102
 6257SOL    HW219582   7.187   1.871   0.744  1.4729 -2.0925 -2.7858
 6258SOL     OW19583   5.816   7.363   3.151 -0.5584 -0.1172 -0.1890
 6258SOL    HW119584   5.801   7.418   3.228  3.1000  0.5870  0.1810
 6258SOL    HW219585   5.826   7.275   3.187  0.0346  0.0355  0.0370
 6259SOL     OW19586   2.552   7.526   1.260 -0.3010  0.4515 -0.5048
 6259SOL    HW119587   2.591   7.464   1.321  0.4972  0.2488 -1.2102
 6259SOL    HW219588   2.525   7.600   1.315  0.0668  0.1123  0.1408
 6260SOL     OW19589   3.486   3.657   4.227  0.1317 -0.6251 -0.2749
 6260SOL    HW119590   3.557   3.596   4.246  0.9893  0.1307 -0.9974
 6260SOL    HW219591   3.485   3.717   4.302 -1.3068 -2.0036  0.8935
 6261SOL     OW19592   3.036   2.514   1.640 -0.2499  0.0015  0.0184
 6261SOL    HW119593   2.942   2.513   1.657 -0.6315 -0.2366 -1.8016
 6261SOL    HW219594   3.075   2.473   1.717 -1.8960 -2.4546 -0.3165
 6262SOL     OW19595   1.889   5.955   2.145  0.4816  0.2242  0.1461
 6262SOL    HW119596   1.889   6.015   2.220  2.9788  1.5178 -0.7791
 6262SOL    HW219597   1.804   5.969   2.103 -0.2653  0.7319  1.7711
 6263SOL     OW19598   1.143   6.738   5.385 -0.0495  0.1527  0.2834
 6263SOL    HW119599   1.112   6.705   5.469  0.4078 -0.5264  0.1959
 6263SOL    HW219600   1.216   6.796   5.408 -0.3432  0.4838  0.3893
 6264SOL     OW19601   6.178   6.196   4.615  0.3200  0.6498  0.0175
 6264SOL    HW119602   6.124   6.141   4.672 -0.6139  1.6585  0.1403
 6264SOL    HW219603   6.240   6.239   4.675  0.6937  0.1567 -0.0086
 6265SOL     OW19604   6.018   2.169   6.418  0.1472 -0.0156 -0.5269
 6265SOL    HW119605   6.034   2.078   6.444  1.0221 -0.1433 -1.4493
 6265SOL    HW219606   6.090   2.218   6.458  0.1777  0.1309 -0.7597
 6266SOL     OW19607   7.105   5.183   3.149 -0.5559 -0.3478  0.5242
 6266SOL    HW119608   7.107   5.198   3.055  0.7696 -0.8445  0.4573
 6266SOL    HW219609   7.031   5.234   3.180  0.5647  1.9611 -0.4180
 6267SOL     OW19610   7.004   6.952   2.206 -0.1794 -0.0142 -0.5080
 6267SOL    HW119611   7.079   7.008   2.227 -0.7525  0.2156  1.0624
 6267SOL    HW219612   7.022   6.870   2.250 -0.3706 -0.3313 -1.0105
 6268SOL     OW19613   5.209   0.678   0.933 -0.1183  0.5950 -0.0420
 6268SOL    HW119614   5.158   0.724   1.000  1.5782 -0.0784  1.8208
 6268SOL    HW219615   5.261   0.747   0.892  0.0801  0.8081  0.5451
 6269SOL     OW19616   3.755   7.258   5.958 -0.3820 -0.2812  0.3255
 6269SOL    HW119617   3.720   7.179   6.000  0.3871  0.5064  2.5966
 6269SOL    HW219618   3.743   7.327   6.024  0.4318  1.1502 -0.9778
 6270SOL     OW19619   1.776   4.201   1.478  0.3311  0.0693  0.6279
 6270SOL    HW119620   1.728   4.266   1.530 -0.9664 -0.4039  0.0559
 6270SOL    HW219621   1.718   4.182   1.404  2.3980  1.2381 -1.4371
 6271SOL     OW19622   2.560   0.114   3.826  0.0807 -0.2653 -0.3585
 6271SOL    HW119623   2.490   0.160   3.780 -1.3278 -0.6392  1.2920
 6271SOL    HW219624   2.523   0.095   3.912  2.6647  0.6554  1.0747
 6272SOL     OW19625   7.902   5.479   3.203 -0.0641 -0.4007  0.7008
 6272SOL    HW119626   7.946   5.453   3.284 -1.3319 -1.5976  1.0492
 6272SOL    HW219627   7.812   5.449   3.214 -0.4177 -0.0332 -0.9095
 6273SOL     OW19628   1.268   2.987   7.005  0.6107  0.3110  0.3100
 6273SOL    HW119629   1.357   2.999   6.971  1.2098 -0.0550  1.6724
 6273SOL    HW219630   1.217   2.960   6.929  1.9231 -0.6139 -0.2795
 6274SOL     OW19631   6.809   5.989   2.305  0.1262 -0.3829  0.1239
 6274SOL    HW119632   6.796   5.894   2.313 -1.0426 -0.2057  0.5118
 6274SOL    HW219633   6.897   5.998   2.269 -0.0996 -1.6409 -0.8240
 6275SOL     OW19634   7.153   3.649   7.518 -0.1961 -0.2532  0.2269
 6275SOL    HW119635   7.217   3.711   7.553 -0.6295 -1.3422  3.2738
 6275SOL    HW219636   7.068   3.685   7.544 -0.6741 -0.3310 -1.1619
 6276SOL     OW19637   1.690   0.455   3.360  0.1124  0.3476  0.1730
 6276SOL    HW119638   1.665   0.438   3.450  0.0026  1.1313  0.2934
 6276SOL    HW219639   1.703   0.550   3.355 -0.0655  0.3388 -0.6754
 6277SOL     OW19640   5.054   1.321   1.027 -0.2089 -0.0834  0.1555
 6277SOL    HW119641   5.069   1.347   1.117  0.4453 -0.3238  0.1207
 6277SOL    HW219642   4.959   1.321   1.017 -0.2694  0.3687  0.7145
 6278SOL     OW19643   3.668   4.262   6.090 -0.4920 -0.1667 -0.2623
 6278SOL    HW119644   3.718   4.272   6.009 -1.5864  0.0519 -0.9299
 6278SOL    HW219645   3.644   4.170   6.093 -1.4013  0.0449 -0.7740
 6279SOL     OW19646   3.305   1.759   1.766 -0.0441 -0.2861 -0.1602
 6279SOL    HW119647   3.244   1.796   1.829  0.3997  0.5093 -0.1793
 6279SOL    HW219648   3.309   1.824   1.696 -0.6028 -1.1986 -1.0680
 6280SOL     OW19649   5.263   1.717   0.476 -0.0937  0.5593 -0.0228
 6280SOL    HW119650   5.328   1.786   0.461  0.1449 -0.1587 -2.9653
 6280SOL    HW219651   5.315   1.642   0.507 -0.0643  1.0017  1.0632
 6281SOL     OW19652   6.531   0.396   0.369 -0.2403  0.5062  0.3543
 6281SOL    HW119653   6.499   0.341   0.298 -0.4522 -1.2906  1.7677
 6281SOL    HW219654   6.451   0.436   0.406 -0.0652  2.0242 -0.8231
 6282SOL     OW19655   4.350   5.065   4.850  1.0817  0.2812  0.6048
 6282SOL    HW119656   4.419   5.066   4.917  1.7493  1.1246 -0.0690
 6282SOL    HW219657   4.372   4.991   4.793  1.8683  0.9810 -0.0271
 6283SOL     OW19658   6.484   2.396   3.174  0.2146  0.0894 -0.3926
 6283SOL    HW119659   6.468   2.434   3.087 -0.6730 -0.4743 -0.4943
 6283SOL    HW219660   6.549   2.327   3.158  0.0982  0.0258 -0.6015
 6284SOL     OW19661   2.032   0.067   6.281 -0.0204 -0.5492 -0.5627
 6284SOL    HW119662   2.076   0.121   6.215 -1.3127 -1.3287 -2.1456
 6284SOL    HW219663   1.961   0.024   6.233 -1.4925 -0.5841  1.5235
 6285SOL     OW19664   6.389   4.089   3.317 -0.3935  0.1050  0.0531
 6285SOL    HW119665   6.333   4.049   3.384 -0.8854 -0.4909 -0.7038
 6285SOL    HW219666   6.409   4.176   3.353 -2.5981  0.7325 -0.0651
 6286SOL     OW19667   3.905   0.771   6.272 -0.0636 -0.6902  0.1315
 6286SOL    HW119668   3.962   0.835   6.230 -1.9127  1.4237  0.6951
 6286SOL    HW219669   3.914   0.692   6.218  0.9473  0.5652 -1.6207
 6287SOL     OW19670   1.158   4.575   1.979  0.1622  0.1114  0.5481
 6287SOL    HW119671   1.109   4.642   2.026  1.7414  0.4810  1.7708
 6287SOL    HW219672   1.190   4.619   1.901 -0.8721  0.0479  0.0726
 6288SOL     OW19673   3.172   6.921   2.086 -0.0878  0.5938 -0.0697
 6288SOL    HW119674   3.173   6.878   2.172 -2.7981  1.0501  0.2829
 6288SOL    HW219675   3.182   6.849   2.023 -0.6191 -0.0658  0.5866
 6289SOL     OW19676   4.764   6.532   2.455 -0.3603 -0.5711 -0.0734
 6289SOL    HW119677   4.805   6.488   2.381 -2.1872 -0.9957 -0.8794
 6289SOL    HW219678   4.706   6.466   2.494 -0.8419  0.2099  0.5817
 6290SOL     OW19679   1.876   0.477   2.855 -0.3265 -0.0025 -0.0631
 6290SOL    HW119680   1.894   0.428   2.935  1.7177  0.0328 -0.4487
 6290SOL    HW219681   1.805   0.430   2.813  1.0080 -2.2004 -0.0132
 6291SOL     OW19682   6.467   5.443   0.084 -0.2199 -0.5456 -0.5856
 6291SOL    HW119683   6.410   5.397   0.146  2.2752 -1.5752  1.1262
 6291SOL    HW219684   6.527   5.493   0.140  0.8457  0.1109 -2.2617
 6292SOL     OW19685   1.175   7.417   2.417  0.1857  0.7011  0.5527
 6292SOL    HW119686   1.254   7.372   2.387  0.1999  0.7816  0.4658
 6292SOL    HW219687   1.113   7.407   2.345 -0.1594 -0.0471  0.9474
 6293SOL     OW19688   5.581   3.704   7.114  0.7626 -0.0637 -0.1792
 6293SOL    HW119689   5.563   3.750   7.032 -0.4328  0.1204  0.1647
 6293SOL    HW219690   5.675   3.714   7.127  0.5733  2.3289 -0.1184
 6294SOL     OW19691   7.094   3.481   4.236  1.1532  0.3011  0.5815
 6294SOL    HW119692   7.189   3.493   4.229  1.1459  0.0421 -0.1449
 6294SOL    HW219693   7.069   3.525   4.317  1.5833  2.2528 -0.3011
 6295SOL     OW19694   5.696   1.278   4.975 -0.3714  0.4275 -0.2222
 6295SOL    HW119695   5.609   1.316   4.962  1.3976  4.2340 -3.1105
 6295SOL    HW219696   5.716   1.294   5.067 -1.6645  2.1797 -0.1992
 6296SOL     OW19697   4.409   6.723   5.698 -0.1893 -0.3111  0.6589
 6296SOL    HW119698   4.485   6.742   5.754 -0.6224  1.4851  0.7200
 6296SOL    HW219699   4.347   6.678   5.755  0.2355 -0.4420  1.0219
 6297SOL     OW19700   2.071   1.045   1.654  0.1659 -0.0542  0.5880
 6297SOL    HW119701   2.064   1.099   1.575  0.6255 -0.5333  0.2170
 6297SOL    HW219702   2.024   0.964   1.633  0.0988 -0.0945  0.8865
 6298SOL     OW19703   5.686   6.075   2.014 -0.6573 -0.2282 -0.0020
 6298SOL    HW119704   5.609   6.024   2.041 -2.5526  2.3239 -0.2835
 6298SOL    HW219705   5.668   6.098   1.922  0.6580  0.0663 -0.1969
 6299SOL     OW19706   0.729   4.072   2.553 -0.0520  0.0712  0.5970
 6299SOL    HW119707   0.712   4.156   2.596  0.6012  0.6216 -0.1806
 6299SOL    HW219708   0.813   4.043   2.591 -0.7906 -0.7691  1.6452
 6300SOL     OW19709   0.181   7.856   0.778  0.0631 -0.2337  0.1795
 6300SOL    HW119710   0.229   7.774   0.781  0.5831  0.0219 -0.7307
 6300SOL    HW219711   0.107   7.839   0.720  0.4004  0.0424 -0.3442
 6301SOL     OW19712   0.738   6.860   6.455 -1.0217  0.0832  0.0196
 6301SOL    HW119713   0.652   6.826   6.480 -0.4276 -2.0642 -0.5981
 6301SOL    HW219714   0.799   6.792   6.483  0.3459  0.9243 -0.7973
 6302SOL     OW19715   6.930   2.071   1.019 -0.0971 -0.1302 -0.4577
 6302SOL    HW119716   6.998   2.046   1.082 -0.1841 -0.5518 -0.5302
 6302SOL    HW219717   6.857   2.012   1.038  0.1474 -0.7769 -1.4415
 6303SOL     OW19718   3.264   7.763   4.153 -0.3242 -0.1391  0.3332
 6303SOL    HW119719   3.285   7.726   4.239  1.0940  0.4599  0.2742
 6303SOL    HW219720   3.349   7.779   4.112 -0.9650  0.0340 -1.0042
 6304SOL     OW19721   1.061   0.968   5.806  0.0482  0.7672  0.9243
 6304SOL    HW119722   1.110   0.975   5.888 -0.0338  0.4555  1.0054
 6304SOL    HW219723   1.047   1.058   5.777  0.0961  0.8779  1.2451
 6305SOL     OW19724   5.768   1.960   1.834 -0.2661 -0.2789  0.3893
 6305SOL    HW119725   5.672   1.954   1.832 -0.2642 -0.4178 -1.5459
 6305SOL    HW219726   5.794   1.901   1.904 -1.6151  0.2286  1.3528
 6306SOL     OW19727   6.772   5.503   4.291 -0.0045  0.2925  0.3893
 6306SOL    HW119728   6.814   5.443   4.229  1.5787  1.2590  0.4651
 6306SOL    HW219729   6.710   5.553   4.239  0.6512  0.4595 -0.2436
 6307SOL     OW19730   6.439   4.913   3.261 -0.4782 -0.6587 -0.4121
 6307SOL    HW119731   6.425   4.837   3.203 -2.5279 -0.0498 -0.8118
 6307SOL    HW219732   6.364   4.970   3.244  0.4749  0.9942  0.6403
 6308SOL     OW19733   6.583   5.788   1.761  0.5650 -0.4509 -0.0551
 6308SOL    HW119734   6.660   5.756   1.809  1.1108 -2.8306 -2.2725
 6308SOL    HW219735   6.619   5.849   1.697  0.3468 -0.1225  0.1351
 6309SOL     OW19736   7.125   7.392   7.045  0.3484  0.3195 -0.3358
 6309SOL    HW119737   7.208   7.355   7.013 -0.1177  0.1927 -1.4201
 6309SOL    HW219738   7.119   7.360   7.136  0.6859 -1.0474 -0.7644
 6310SOL     OW19739   4.661   2.379   2.271  0.6026  0.1084 -0.1215
 6310SOL    HW119740   4.569   2.389   2.295  0.8347 -1.8063  1.7842
 6310SOL    HW219741   4.697   2.468   2.278 -0.9067  0.7627 -0.2150
 6311SOL     OW19742   3.699   0.910   6.928  0.2449  0.1301  0.7650
 6311SOL    HW119743   3.727   0.982   6.871  0.6856 -1.9951 -1.9337
 6311SOL    HW219744   3.614   0.938   6.963  0.6197  2.1150  0.2312
 6312SOL     OW19745   7.766   2.895   0.692  0.2935 -0.1723  0.2712
 6312SOL    HW119746   7.807   2.866   0.773 -0.7561  1.6967  1.5416
 6312SOL    HW219747   7.824   2.962   0.658 -0.8283  1.3619  1.2497
 6313SOL     OW19748   6.985   0.882   0.966  0.2355 -0.0159 -0.3589
 6313SOL    HW119749   7.072   0.875   1.006  0.1229 -2.1148 -0.3704
 6313SOL    HW219750   6.990   0.959   0.910  2.3429 -0.5110 -0.9262
 6314SOL     OW19751   0.595   6.902   0.804 -0.5185  0.5783  0.1695
 6314SOL    HW119752   0.580   6.809   0.820 -0.2961  0.4973 -0.0940
 6314SOL    HW219753   0.680   6.920   0.844  1.4644 -0.2805 -3.3198
 6315SOL     OW19754   4.835   3.523   1.811  0.1116 -0.2777  0.7897
 6315SOL    HW119755   4.757   3.520   1.866 -0.1395  1.5114  0.5893
 6315SOL    HW219756   4.881   3.602   1.839  0.3429  0.2914 -1.0586
 6316SOL     OW19757   7.090   6.614   6.842  0.2218  0.1749 -0.4278
 6316SOL    HW119758   7.110   6.618   6.749  2.0931 -2.7760 -0.2721
 6316SOL    HW219759   6.994   6.619   6.847  0.0079 -0.8088 -2.6235
 6317SOL     OW19760   7.996   1.288   3.727 -0.4025 -0.2637 -0.3098
 6317SOL    HW119761   8.025   1.197   3.727 -1.0688 -0.4796 -0.5475
 6317SOL    HW219762   8.068   1.336   3.685 -0.4786 -0.8199 -1.0933
 6318SOL     OW19763   0.721   5.382   7.208 -0.1266  0.4308 -0.1608
 6318SOL    HW119764   0.762   5.351   7.127  0.5566  0.8767  0.0015
 6318SOL    HW219765   0.633   5.345   7.206  0.2073 -0.3719 -0.6340
 6319SOL     OW19766   7.691   7.503   1.782 -0.5026  0.4004  0.2934
 6319SOL    HW119767   7.691   7.549   1.866 -0.9039  0.0047  0.5113
 6319SOL    HW219768   7.649   7.564   1.722 -1.9389 -0.0512  0.7951
 6320SOL     OW19769   1.793   5.530   7.038  0.0133  0.3673  0.5047
 6320SOL    HW119770   1.799   5.443   6.997  0.1254  0.9499 -0.7580
 6320SOL    HW219771   1.724   5.575   6.990  0.5674  1.2867  0.5470
 6321SOL     OW19772   7.350   6.913   5.926 -0.7778 -0.5419  0.3014
 6321SOL    HW119773   7.416   6.968   5.884 -1.4675  1.3743  1.6229
 6321SOL    HW219774   7.400   6.857   5.986 -0.1319 -0.9616 -0.6027
 6322SOL     OW19775   5.894   0.108   1.133  0.1489 -0.1670 -0.5608
 6322SOL    HW119776   5.858   0.105   1.044  0.1273  2.4745 -0.7149
 6322SOL    HW219777   5.968   0.168   1.127  0.6468 -0.5751  1.0566
 6323SOL     OW19778   0.402   3.322   4.440 -0.1910 -0.1365  0.4069
 6323SOL    HW119779   0.355   3.375   4.505  0.6862  0.1584  0.8113
 6323SOL    HW219780   0.390   3.370   4.358  2.3416  1.9299  1.1066
 6324SOL     OW19781   6.334   3.262   7.932  0.0216  0.3340  0.2323
 6324SOL    HW119782   6.414   3.312   7.916  0.4301 -0.7942 -1.5024
 6324SOL    HW219783   6.314   3.221   7.848 -0.9932 -1.3955  1.2586
 6325SOL     OW19784   4.946   6.945   6.750 -0.0647 -0.3933  0.0456
 6325SOL    HW119785   4.889   6.902   6.814 -0.6651  0.0993 -0.1481
 6325SOL    HW219786   4.979   7.022   6.795 -0.1491 -0.2758 -0.0915
 6326SOL     OW19787   4.061   1.569   7.637 -0.4374  0.4397 -0.4742
 6326SOL    HW119788   4.030   1.506   7.702 -0.9133  0.2557 -0.8727
 6326SOL    HW219789   4.060   1.654   7.683  1.8656 -0.0254  0.6288
 6327SOL     OW19790   3.080   3.339   4.997 -0.1845  0.1677  0.0144
 6327SOL    HW119791   3.028   3.262   5.020  0.1728  0.0167  0.3240
 6327SOL    HW219792   3.120   3.318   4.913 -2.1479  1.0370 -1.2283
 6328SOL     OW19793   6.725   1.287   4.278 -0.2265 -0.1112  0.0623
 6328SOL    HW119794   6.801   1.268   4.223 -0.6176 -0.5878 -0.3314
 6328SOL    HW219795   6.757   1.349   4.344  0.1759  0.6973 -0.8758
 6329SOL     OW19796   1.380   5.724   2.212 -0.2954 -0.0030  0.2702
 6329SOL    HW119797   1.328   5.778   2.153 -1.3847 -1.4663 -0.1779
 6329SOL    HW219798   1.471   5.740   2.186 -0.6792  0.5054 -0.8121
 6330SOL     OW19799   0.266   0.279   2.062  0.3371 -0.4489  0.4343
 6330SOL    HW119800   0.316   0.220   2.005  1.1126  0.6119 -0.0052
 6330SOL    HW219801   0.289   0.251   2.150 -0.4713 -1.7724  0.2595
 6331SOL     OW19802   2.305   6.547   3.611  0.2271  0.5549  0.3925
 6331SOL    HW119803   2.363   6.614   3.647  0.2340  0.6255  0.2535
 6331SOL    HW219804   2.322   6.550   3.517 -0.6319  1.1903  0.2414
 6332SOL     OW19805   5.197   5.428   4.108 -0.1124  0.1592  0.3711
 6332SOL    HW119806   5.281   5.400   4.073 -0.5660  1.3689 -1.9076
 6332SOL    HW219807   5.133   5.369   4.067 -0.4317 -0.6574  1.9682
 6333SOL     OW19808   0.250   4.503   1.813 -0.1951 -0.1921 -0.1431
 6333SOL    HW119809   0.203   4.550   1.881  0.6795 -0.7080  0.8355
 6333SOL    HW219810   0.321   4.562   1.787  0.6498 -0.7735  0.7899
 6334SOL     OW19811   6.752   2.431   5.947  0.4658 -0.2367 -0.1755
 6334SOL    HW119812   6.842   2.447   5.974 -0.5696  0.8830  3.1227
 6334SOL    HW219813   6.735   2.340   5.971  0.7981 -0.5901 -1.2179
 6335SOL     OW19814   4.625   2.662   4.464  0.2387  0.5721  0.1003
 6335SOL    HW119815   4.694   2.612   4.421  0.1523  0.9250 -0.4624
 6335SOL    HW219816   4.570   2.693   4.392 -1.4149 -1.0051  0.5955
 6336SOL     OW19817   5.555   0.672   4.832 -0.1122  0.2582  0.1440
 6336SOL    HW119818   5.606   0.697   4.756  1.6795 -0.1266  1.1728
 6336SOL    HW219819   5.614   0.617   4.885 -1.2942  0.4807  1.7905
 6337SOL     OW19820   2.576   1.135   4.728 -0.1646  0.4323 -0.6708
 6337SOL    HW119821   2.626   1.070   4.679  0.9650  0.0665  0.8931
 6337SOL    HW219822   2.606   1.126   4.819 -3.2331  0.0508  0.4307
 6338SOL     OW19823   5.303   4.451   6.487  0.3192  0.0346  0.4803
 6338SOL    HW119824   5.230   4.505   6.457 -0.0192 -0.0925  1.0516
 6338SOL    HW219825   5.261   4.372   6.522  0.7739 -0.3388  0.1835
 6339SOL     OW19826   5.820   5.914   4.050 -0.3673  0.3819 -0.6325
 6339SOL    HW119827   5.846   5.831   4.091 -0.4337  0.3346 -0.6850
 6339SOL    HW219828   5.836   5.900   3.956 -0.0393  0.5538 -0.6046
 6340SOL     OW19829   5.724   0.952   7.689 -0.2341 -0.5413  0.2346
 6340SOL    HW119830   5.787   0.934   7.758  0.9199 -1.1244 -0.9374
 6340SOL    HW219831   5.736   0.882   7.626  0.1048  0.9996 -1.4904
 6341SOL     OW19832   5.691   3.954   6.581  0.2601  0.0878 -0.0516
 6341SOL    HW119833   5.640   4.015   6.634  0.6978  0.1464  0.3033
 6341SOL    HW219834   5.644   3.950   6.497 -0.4780 -0.0699  0.3662
 6342SOL     OW19835   3.028   3.177   7.032  0.7505  0.5231  0.0970
 6342SOL    HW119836   2.962   3.216   6.975  0.4436  0.6538  0.5384
 6342SOL    HW219837   3.026   3.083   7.011  1.6468  0.7409 -1.1285
 6343SOL     OW19838   3.279   3.522   5.923 -0.3414 -0.3194  0.0084
 6343SOL    HW119839   3.206   3.518   5.985 -0.3512  3.2444  0.4147
 6343SOL    HW219840   3.298   3.430   5.902 -1.4201 -1.6240  3.9511
 6344SOL     OW19841   7.216   5.908   4.468  0.4245  0.2461  0.0932
 6344SOL    HW119842   7.172   5.973   4.523 -1.5289  0.1925 -1.3062
 6344SOL    HW219843   7.160   5.901   4.390  0.5583 -3.1399  0.1838
 6345SOL     OW19844   1.052   5.139   1.802  0.5003 -0.3695  0.3183
 6345SOL    HW119845   1.092   5.226   1.804  0.8808 -0.5118 -0.7620
 6345SOL    HW219846   0.960   5.155   1.783  0.7668 -0.2399 -0.9647
 6346SOL     OW19847   1.476   1.774   7.116 -0.1695 -0.4622  0.1727
 6346SOL    HW119848   1.453   1.854   7.164  1.7894  0.5265 -0.4000
 6346SOL    HW219849   1.438   1.703   7.168 -0.6226  0.7365  1.5701
 6347SOL     OW19850   1.621   2.002   4.299 -0.2599  0.1135 -0.0113
 6347SOL    HW119851   1.584   1.927   4.252 -2.4118  1.8515 -1.2643
 6347SOL    HW219852   1.553   2.069   4.296  2.3370  2.9524 -0.8855
 6348SOL     OW19853   1.308   5.331   0.016 -0.7744 -0.1471 -0.0214
 6348SOL    HW119854   1.216   5.333  -0.010 -0.1689  1.9161 -2.3836
 6348SOL    HW219855   1.308   5.362   0.107 -2.5199 -1.9097  0.6270
 6349SOL     OW19856   6.799   6.206   4.858 -0.3611  0.0401 -0.0051
 6349SOL    HW119857   6.720   6.200   4.804 -2.0844 -0.4902  2.4103
 6349SOL    HW219858   6.810   6.117   4.894  1.9019 -0.1298 -0.9789
 6350SOL     OW19859   0.551   1.676   0.512 -0.3405  0.1993  0.1219
 6350SOL    HW119860   0.493   1.664   0.587 -0.7960  1.0026 -0.0952
 6350SOL    HW219861   0.493   1.681   0.436  0.1517 -1.1969 -0.3714
 6351SOL     OW19862   6.298   6.956   2.716 -0.1273 -0.6891  0.3973
 6351SOL    HW119863   6.379   6.909   2.697  1.0389  0.5630  2.0179
 6351SOL    HW219864   6.291   7.021   2.646 -0.5356 -1.7370 -0.5611
 6352SOL     OW19865   2.773   4.519   0.450 -0.0925  0.5571  0.4175
 6352SOL    HW119866   2.779   4.545   0.542 -0.1265  1.1269  0.2623
 6352SOL    HW219867   2.705   4.576   0.414 -0.5103 -0.0802  0.1803
 6353SOL     OW19868   6.292   5.635   1.622  0.5744 -0.3172  0.1497
 6353SOL    HW119869   6.219   5.616   1.681 -0.5069 -0.0934 -1.0581
 6353SOL    HW219870   6.370   5.614   1.673 -0.3375 -1.0308  1.3212
 6354SOL     OW19871   6.297   4.381   4.521 -0.1255 -0.0363  0.2769
 6354SOL    HW119872   6.339   4.324   4.456 -1.6116 -0.7490 -0.0900
 6354SOL    HW219873   6.209   4.395   4.487 -0.7323  0.0889  1.8540
 6355SOL     OW19874   5.492   2.015   4.286  0.1347 -0.2785  0.2674
 6355SOL    HW119875   5.445   1.931   4.290 -0.5322 -0.0871 -2.1942
 6355SOL    HW219876   5.574   1.994   4.243  0.6485  0.0827  1.0597
 6356SOL     OW19877   5.929   4.081   7.162  0.7044 -0.0563  0.5768
 6356SOL    HW119878   5.965   4.069   7.250  0.8543  1.2881  0.7333
 6356SOL    HW219879   6.003   4.113   7.110  0.4114  0.0132  0.1945
 6357SOL     OW19880   0.704   1.649   0.996 -0.3961 -0.1405  0.1147
 6357SOL    HW119881   0.788   1.609   1.021 -1.7132 -0.9747  3.9040
 6357SOL    HW219882   0.718   1.743   1.008 -0.1558 -0.3323  1.6194
 6358SOL     OW19883   7.350   5.296   4.126 -0.0644  0.3747  0.4572
 6358SOL    HW119884   7.300   5.356   4.181 -2.4352 -2.0186  1.1443
 6358SOL    HW219885   7.376   5.225   4.185  1.7729  0.1781 -0.5208
 6359SOL     OW19886   4.571   6.295   5.996 -0.2442 -0.0779  0.3230
 6359SOL    HW119887   4.478   6.318   5.986 -0.4443 -0.4395  1.2776
 6359SOL    HW219888   4.616   6.380   5.996 -0.8139  0.2712  2.1478
 6360SOL     OW19889   0.674   1.612   7.498 -1.0767 -0.0199  0.4509
 6360SOL    HW119890   0.734   1.557   7.549  1.8800  0.6060 -2.0555
 6360SOL    HW219891   0.674   1.696   7.543 -0.1310 -0.0537  0.5200
 6361SOL     OW19892   4.181   6.982   6.989  0.1386  0.6579  0.0624
 6361SOL    HW119893   4.223   7.035   6.921 -1.0593  1.9309  0.2616
 6361SOL    HW219894   4.091   7.017   6.994  0.0493  0.2542  1.9232
 6362SOL     OW19895   4.680   7.018   4.952 -0.2303  0.6620 -0.0496
 6362SOL    HW119896   4.772   7.030   4.931  0.1467 -0.7184  0.6774
 6362SOL    HW219897   4.647   6.960   4.882 -0.4995  0.9687 -0.1816
 6363SOL     OW19898   2.870   2.671   3.126 -0.0171 -0.1863  0.7947
 6363SOL    HW119899   2.885   2.765   3.133 -0.2806 -0.2506  3.9730
 6363SOL    HW219900   2.944   2.638   3.076 -0.7307  1.8230 -1.7740
 6364SOL     OW19901   7.783   4.624   1.806 -0.1757  0.4142  0.1442
 6364SOL    HW119902   7.837   4.547   1.822 -1.2665 -0.4835 -0.3336
 6364SOL    HW219903   7.815   4.690   1.867  1.3476 -0.1332 -0.0327
 6365SOL     OW19904   7.859   5.647   4.702  0.2059  0.2317 -0.1151
 6365SOL    HW119905   7.873   5.742   4.705  3.6233 -0.1699  1.5021
 6365SOL    HW219906   7.891   5.621   4.615  0.0128  0.4375 -0.2508
 6366SOL     OW19907   3.628   4.001   7.079 -0.7503 -0.0379  0.2012
 6366SOL    HW119908   3.637   4.096   7.068  0.1624 -0.1820 -0.3770
 6366SOL    HW219909   3.649   3.965   6.993  0.3441 -0.8443  0.7781
 6367SOL     OW19910   4.942   3.363   4.284 -0.0326 -0.0171 -0.1853
 6367SOL    HW119911   4.901   3.278   4.266  0.6285 -0.2346 -0.7132
 6367SOL    HW219912   4.903   3.391   4.367 -0.9734 -0.3804 -0.4865
 6368SOL     OW19913   1.776   3.152   0.844  0.4071 -0.7100  0.0453
 6368SOL    HW119914   1.866   3.183   0.842 -0.4337  1.9451 -0.8112
 6368SOL    HW219915   1.768   3.093   0.769  1.0595  0.2388 -0.7834
 6369SOL     OW19916   5.882   7.845   1.914  0.1309  0.3648  0.8311
 6369SOL    HW119917   5.969   7.806   1.909 -0.3328 -1.1958  3.2335
 6369SOL    HW219918   5.874   7.875   2.004 -1.4431  1.4582  0.3683
 6370SOL     OW19919   4.448   4.855   1.731  0.4278  0.5782  0.1028
 6370SOL    HW119920   4.368   4.836   1.682 -0.6019  0.1805  1.8444
 6370SOL    HW219921   4.433   4.815   1.817  2.4338  0.6623  0.5387
 6371SOL     OW19922   3.359   6.413   7.844 -0.6737  1.0487 -0.1488
 6371SOL    HW119923   3.275   6.442   7.809 -2.2727 -0.6301  2.0419
 6371SOL    HW219924   3.369   6.461   7.926 -0.3588 -0.0546  0.4757
 6372SOL     OW19925   0.284   5.061   3.312 -0.3546 -0.0955 -0.0482
 6372SOL    HW119926   0.210   5.114   3.342 -0.5982  0.0439 -0.8544
 6372SOL    HW219927   0.268   4.974   3.348  0.0684  0.3746  1.3280
 6373SOL     OW19928   2.580   2.684   6.650  0.1120 -0.1322  0.0523
 6373SOL    HW119929   2.515   2.754   6.652  0.7772  0.4971  0.0591
 6373SOL    HW219930   2.581   2.655   6.558 -0.1973 -0.1750  0.0605
 6374SOL     OW19931   2.451   3.605   6.992  0.3647  0.0692 -0.4372
 6374SOL    HW119932   2.411   3.650   6.918 -0.1549  1.4638  0.6437
 6374SOL    HW219933   2.454   3.671   7.061  3.3207 -0.3615 -0.0314
 6375SOL     OW19934   3.764   3.004   1.168  0.7404  0.3918  0.2039
 6375SOL    HW119935   3.793   3.000   1.259 -0.5667 -1.2109  0.6197
 6375SOL    HW219936   3.825   2.947   1.121  1.6490  1.5252 -0.0154
 6376SOL     OW19937   4.960   0.032   4.354  0.9176 -0.1744 -0.3641
 6376SOL    HW119938   5.054   0.035   4.371  1.2161  1.5893 -1.9282
 6376SOL    HW219939   4.948   0.087   4.276 -1.3792 -0.5682 -0.3657
 6377SOL     OW19940   5.764   1.128   4.378 -0.7736  0.1827 -0.2312
 6377SOL    HW119941   5.728   1.213   4.352  0.3072  0.2572 -1.6308
 6377SOL    HW219942   5.705   1.064   4.337 -1.6770  0.2238  0.9508
 6378SOL     OW19943   0.702   2.843   0.877  0.1958 -0.3774  0.3775
 6378SOL    HW119944   0.634   2.887   0.825  0.1307  0.1318  0.8858
 6378SOL    HW219945   0.655   2.803   0.950  0.3886 -0.3685  0.5083
 6379SOL     OW19946   7.021   5.648   5.735  0.4738  0.1379 -0.4045
 6379SOL    HW119947   6.973   5.722   5.771 -0.4078 -1.3224  1.5839
 6379SOL    HW219948   7.096   5.637   5.793  0.4285 -0.7119 -0.4960
 6380SOL     OW19949   6.787   2.915   0.217  0.3640 -0.1886  0.2414
 6380SOL    HW119950   6.823   2.987   0.166 -0.2681 -0.5928 -0.8051
 6380SOL    HW219951   6.710   2.952   0.261 -0.3707 -0.3691 -0.8434
 6381SOL     OW19952   2.230   4.472   7.426  0.2425  0.2295 -0.0643
 6381SOL    HW119953   2.176   4.549   7.412 -0.4232 -0.4350 -1.4594
 6381SOL    HW219954   2.173   4.410   7.470 -0.4078 -0.6971 -2.0845
 6382SOL     OW19955   1.476   6.845   7.452 -0.4251 -0.2359 -0.3091
 6382SOL    HW119956   1.381   6.837   7.457 -0.4200  0.1977  1.9630
 6382SOL    HW219957   1.492   6.896   7.373 -1.9428 -1.7278 -1.6361
 6383SOL     OW19958   4.671   0.259   0.526 -0.5973  0.3132  0.3317
 6383SOL    HW119959   4.738   0.323   0.503 -1.0306  0.6018 -0.1486
 6383SOL    HW219960   4.665   0.202   0.449  0.1639 -0.6527  0.9549
 6384SOL     OW19961   1.744   6.672   5.722 -0.1865  0.5185  0.4144
 6384SOL    HW119962   1.685   6.722   5.665 -1.7558  0.1319  1.6257
 6384SOL    HW219963   1.727   6.707   5.810 -1.9153 -2.5506  1.4535
 6385SOL     OW19964   6.959   2.038   1.850  0.3797  0.0141 -0.1489
 6385SOL    HW119965   6.988   1.998   1.768  1.0964  0.9343 -0.3524
 6385SOL    HW219966   6.885   1.984   1.878 -2.3353  1.7224 -3.2915
 6386SOL     OW19967   6.340   1.727   4.676  0.3339  0.2433 -0.2561
 6386SOL    HW119968   6.329   1.643   4.632  0.0381  0.1964 -0.0960
 6386SOL    HW219969   6.257   1.740   4.723  0.4075  0.5867 -0.2210
 6387SOL     OW19970   6.716   2.439   7.837 -0.6540 -0.3773  0.0038
 6387SOL    HW119971   6.712   2.535   7.832 -0.2670 -0.2972  0.9193
 6387SOL    HW219972   6.665   2.417   7.915 -1.9447 -1.0452 -0.9843
 6388SOL     OW19973   3.116   0.795   7.846  0.3527 -0.3762 -0.2329
 6388SOL    HW119974   3.171   0.749   7.909 -0.5273 -0.4196  0.5283
 6388SOL    HW219975   3.081   0.725   7.790 -0.8002 -0.6236  0.7783
 6389SOL     OW19976   1.903   3.979   5.809 -0.3477  0.4012  0.2726
 6389SOL    HW119977   1.878   4.072   5.809 -0.1917  0.4439 -0.1655
 6389SOL    HW219978   1.918   3.959   5.902  0.9110  1.1641  0.2552
 6390SOL     OW19979   0.535   7.894   4.073  0.2108  0.0083  0.0276
 6390SOL    HW119980   0.580   7.831   4.130 -1.2908 -0.4210  0.7998
 6390SOL    HW219981   0.497   7.958   4.134 -0.4584  0.1989 -0.5793
 6391SOL     OW19982   2.165   5.494   0.893  0.0270  0.6709 -0.1343
 6391SOL    HW119983   2.080   5.528   0.866 -0.8389 -0.4375  1.0221
 6391SOL    HW219984   2.157   5.399   0.882  1.0667  0.5392  0.1283
 6392SOL     OW19985   4.781   4.263   6.486 -0.1054  0.1242  0.2431
 6392SOL    HW119986   4.797   4.188   6.543  0.5249  0.8151  0.9959
 6392SOL    HW219987   4.718   4.317   6.534  0.7325  0.9106  0.4976
 6393SOL     OW19988   7.706   6.850   7.737 -0.8526 -0.0509  0.1209
 6393SOL    HW119989   7.707   6.855   7.642  0.8671 -0.6347  0.0659
 6393SOL    HW219990   7.747   6.931   7.767 -3.2042  1.0767  0.4845
 6394SOL     OW19991   2.289   3.351   7.212  0.2947  0.1299 -0.4488
 6394SOL    HW119992   2.340   3.382   7.136 -0.7571  1.9678 -0.4790
 6394SOL    HW219993   2.198   3.370   7.189 -0.0392  0.8753  1.3160
 6395SOL     OW19994   6.864   2.448   1.262  0.3879 -0.1299 -0.4577
 6395SOL    HW119995   6.945   2.486   1.294  0.3313  0.5995 -1.1469
 6395SOL    HW219996   6.795   2.499   1.305  0.3103  0.2924 -1.0730
 6396SOL     OW19997   7.217   2.361   1.753  0.0001  0.4534 -0.0480
 6396SOL    HW119998   7.204   2.314   1.836 -1.5072  0.3325 -0.3158
 6396SOL    HW219999   7.128   2.373   1.719  0.4914  1.8447 -0.9090
 6397SOL     OW20000   5.241   1.438   5.229  0.7703 -0.3415 -0.1590
 6397SOL    HW120001   5.286   1.359   5.199  0.4425 -0.6554  0.1673
 6397SOL    HW220002   5.274   1.452   5.318 -0.5043 -1.1541  0.4765
 6398SOL     OW20003   0.816   2.980   0.481 -0.0685  0.1092 -0.1440
 6398SOL    HW120004   0.785   2.896   0.447 -0.0980  0.6467 -1.5038
 6398SOL    HW220005   0.887   2.957   0.541 -1.6622 -1.0165  1.4183
 6399SOL     OW20006   7.224   4.037   2.004 -0.5847  0.1871  0.6451
 6399SOL    HW120007   7.239   3.954   1.958 -1.3635  0.4829 -0.1784
 6399SOL    HW220008   7.129   4.047   2.004 -0.4547  2.2257 -1.4163
 6400SOL     OW20009   0.583   0.395   4.455 -0.0945  0.4703  0.1404
 6400SOL    HW120010   0.492   0.365   4.454  0.5079 -1.4812  0.3573
 6400SOL    HW220011   0.618   0.367   4.370  0.8422 -0.5895  0.8611
 6401SOL     OW20012   4.122   4.315   2.864  0.1250 -0.2188 -0.1944
 6401SOL    HW120013   4.204   4.294   2.821  1.0897  0.7264  1.1232
 6401SOL    HW220014   4.079   4.377   2.805  0.1406 -1.0469 -1.0945
 6402SOL     OW20015   2.411   1.505   0.025 -0.2952  0.0033  0.3982
 6402SOL    HW120016   2.334   1.559   0.040 -0.3253  1.0597 -2.7573
 6402SOL    HW220017   2.390   1.453  -0.053  2.1821  0.4479 -0.6850
 6403SOL     OW20018   5.976   6.534   2.616  0.2273  0.8657 -0.1283
 6403SOL    HW120019   6.038   6.518   2.687  1.1068  2.4735 -0.4797
 6403SOL    HW220020   6.000   6.621   2.583  0.5026 -0.2013 -3.0150
 6404SOL     OW20021   0.487   7.761   1.453  0.3470 -0.2810 -0.1956
 6404SOL    HW120022   0.458   7.849   1.428  1.3468 -0.3250 -1.6432
 6404SOL    HW220023   0.582   7.762   1.437  0.2234 -1.9348 -1.2817
 6405SOL     OW20024   7.807   2.713   7.721 -0.1379  0.0920 -0.6893
 6405SOL    HW120025   7.820   2.686   7.630 -0.8059  0.1310 -0.8021
 6405SOL    HW220026   7.778   2.633   7.765  1.2380 -0.1992 -0.2586
 6406SOL     OW20027   7.914   0.720   6.090 -0.1998  0.6394  0.2250
 6406SOL    HW120028   7.822   0.701   6.069  0.0669  0.1600 -0.5434
 6406SOL    HW220029   7.926   0.687   6.179 -0.9461  1.3256  0.5999
 6407SOL     OW20030   0.611   1.214   4.824  0.1395 -0.4725  0.3641
 6407SOL    HW120031   0.595   1.262   4.905  0.9370 -0.3348  0.4491
 6407SOL    HW220032   0.543   1.244   4.764 -0.1643 -0.2164  0.8298
 6408SOL     OW20033   5.421   6.600   7.954 -0.1455 -0.2387 -0.1911
 6408SOL    HW120034   5.500   6.584   7.902 -1.7860  0.1728 -3.0443
 6408SOL    HW220035   5.384   6.512   7.969 -0.9457 -0.2553 -2.0109
 6409SOL     OW20036   6.452   3.177   4.146  0.6525  0.1790 -0.1916
 6409SOL    HW120037   6.462   3.124   4.067  0.9003  0.0927 -0.1043
 6409SOL    HW220038   6.533   3.228   4.150  1.0732 -0.5277  0.5330
 6410SOL     OW20039   0.593   6.091   5.322 -0.8103 -0.0048 -0.0507
 6410SOL    HW120040   0.533   6.080   5.395 -0.6377 -0.1068  0.0773
 6410SOL    HW220041   0.678   6.106   5.364 -0.8985  1.0569 -0.2146
 6411SOL     OW20042   7.425   0.124   7.677  0.3278 -0.2239  0.2731
 6411SOL    HW120043   7.387   0.158   7.758  0.5340  0.6067  0.0299
 6411SOL    HW220044   7.366   0.154   7.608  0.4554 -0.4623  0.0566
 6412SOL     OW20045   3.212   1.160   5.512 -0.6695 -0.1607 -0.0516
 6412SOL    HW120046   3.297   1.115   5.518 -1.5928 -1.7523  2.1903
 6412SOL    HW220047   3.173   1.125   5.431  0.6745  0.4090 -0.9830
 6413SOL     OW20048   1.199   4.199   4.065 -0.1864 -0.0544 -0.3226
 6413SOL    HW120049   1.158   4.127   4.112 -0.0371  0.9706  1.4593
 6413SOL    HW220050   1.249   4.156   3.995 -0.3700 -1.6455  0.4743
 6414SOL     OW20051   5.803   4.367   3.471  0.2436 -0.3137  0.1193
 6414SOL    HW120052   5.761   4.393   3.389 -0.0339  1.5599  0.8151
 6414SOL    HW220053   5.755   4.288   3.498 -0.6634 -0.0829 -0.7466
 6415SOL     OW20054   3.156   4.705   3.533 -0.2324 -0.4506  0.7902
 6415SOL    HW120055   3.122   4.644   3.598  3.5254 -2.2616  1.3884
 6415SOL    HW220056   3.152   4.656   3.451 -2.9002  0.9961 -0.0508
 6416SOL     OW20057   4.143   7.817   1.728 -0.3896  0.1342 -0.5759
 6416SOL    HW120058   4.221   7.869   1.706  0.2432 -1.4065 -2.2469
 6416SOL    HW220059   4.077   7.846   1.666 -0.4191 -0.1772 -0.6908
 6417SOL     OW20060   5.226   4.304   7.197  0.4648 -0.6177  0.1629
 6417SOL    HW120061   5.212   4.213   7.223 -0.0451 -0.3959  0.7158
 6417SOL    HW220062   5.212   4.305   7.103 -2.5076 -0.6309  0.4923
 6418SOL     OW20063   1.967   5.498   6.319  0.4514 -0.1224 -0.4329
 6418SOL    HW120064   1.935   5.511   6.408 -0.5373 -0.5874 -0.7133
 6418SOL    HW220065   2.026   5.423   6.325 -1.1536 -1.4334 -0.5076
 6419SOL     OW20066   2.232   6.602   2.706 -0.1500 -0.3918 -0.2759
 6419SOL    HW120067   2.158   6.623   2.763 -0.6430 -0.6733 -0.7883
 6419SOL    HW220068   2.235   6.675   2.644  0.4212 -0.0568  0.1437
 6420SOL     OW20069   0.237   6.726   1.453 -0.2677  0.1895 -0.2809
 6420SOL    HW120070   0.281   6.811   1.443  0.8238 -0.4386 -0.9798
 6420SOL    HW220071   0.145   6.749   1.468  0.3003  1.5478  1.4862
 6421SOL     OW20072   5.684   5.918   7.915 -0.0317  0.3800  0.0460
 6421SOL    HW120073   5.749   5.985   7.935 -0.6904  0.9477  0.3378
 6421SOL    HW220074   5.729   5.835   7.930  0.9010  0.7452 -0.6683
 6422SOL     OW20075   4.300   5.535   6.949  0.4240 -0.1067 -0.0250
 6422SOL    HW120076   4.323   5.600   6.883 -0.4095 -0.1699 -0.3978
 6422SOL    HW220077   4.283   5.587   7.028 -1.9591  0.3659 -0.7607
 6423SOL     OW20078   6.551   7.579   3.783  0.1796 -0.1429 -0.2446
 6423SOL    HW120079   6.628   7.620   3.744 -0.4095  0.6979 -0.5584
 6423SOL    HW220080   6.523   7.641   3.850  0.6079 -1.1172  0.8593
 6424SOL     OW20081   4.067   4.798   3.313 -0.3283  0.0111  0.0425
 6424SOL    HW120082   4.124   4.845   3.252  0.1924 -0.4705  0.1503
 6424SOL    HW220083   4.127   4.753   3.373 -0.8249 -0.1410  0.4367
 6425SOL     OW20084   7.885   2.128   1.858 -0.1131  0.2288 -0.0862
 6425SOL    HW120085   7.860   2.108   1.768  0.7873  1.7192 -0.7141
 6425SOL    HW220086   7.924   2.047   1.891  0.0111 -0.1882 -1.2134
 6426SOL     OW20087   0.533   5.514   0.911  0.2374  0.1481  0.2666
 6426SOL    HW120088   0.584   5.502   0.991  0.0553  1.6050  0.6390
 6426SOL    HW220089   0.481   5.593   0.928 -0.2653  0.1282 -1.0602
 6427SOL     OW20090   7.790   7.070   1.160 -0.1759 -0.4273  0.3938
 6427SOL    HW120091   7.737   7.024   1.095 -0.7940  0.7249  0.0695
 6427SOL    HW220092   7.881   7.048   1.137 -0.4333 -0.8728 -0.2132
 6428SOL     OW20093   3.004   3.570   4.679  0.7453  0.3583  0.0655
 6428SOL    HW120094   2.978   3.558   4.771 -0.9215  0.1075 -0.4115
 6428SOL    HW220095   3.077   3.632   4.683  1.2159 -0.2374  1.6118
 6429SOL     OW20096   1.959   6.270   2.934 -0.1609  0.1001 -0.6521
 6429SOL    HW120097   2.050   6.294   2.919 -0.7820  1.8199 -2.0365
 6429SOL    HW220098   1.932   6.322   3.010 -0.1244 -0.0725 -0.5193
 6430SOL     OW20099   5.025   1.620   7.680 -0.2188  0.4060  0.4037
 6430SOL    HW120100   5.111   1.581   7.691 -0.6860  0.0721  3.9612
 6430SOL    HW220101   5.042   1.708   7.646  1.5010  0.2632  0.8396
 6431SOL     OW20102   4.306   6.189   0.233  0.1672  0.0457  0.5345
 6431SOL    HW120103   4.327   6.177   0.326 -0.1477  1.2214  0.7738
 6431SOL    HW220104   4.220   6.148   0.223 -0.2142  0.7088  0.9858
 6432SOL     OW20105   4.242   0.618   6.126 -0.1684 -0.1584  0.9566
 6432SOL    HW120106   4.265   0.699   6.081  0.0180 -0.7384 -0.0358
 6432SOL    HW220107   4.326   0.583   6.156  0.0589 -1.1461 -0.6944
 6433SOL     OW20108   4.580   6.264   7.817 -0.3128  0.3164 -0.2774
 6433SOL    HW120109   4.649   6.203   7.845 -0.0427  0.4556 -0.6436
 6433SOL    HW220110   4.620   6.317   7.749 -0.4946  1.0245  0.1529
 6434SOL     OW20111   4.755   3.256   1.480 -0.0264  0.4637 -0.6491
 6434SOL    HW120112   4.744   3.315   1.405 -2.5550 -0.3296 -0.9971
 6434SOL    HW220113   4.820   3.192   1.451 -0.7385  0.3419 -2.0973
 6435SOL     OW20114   5.626   6.663   3.046  0.1956  0.5418  0.0724
 6435SOL    HW120115   5.606   6.735   2.986 -0.4231 -0.0341 -0.4318
 6435SOL    HW220116   5.718   6.676   3.069  0.1845  1.3059 -0.2660
 6436SOL     OW20117   0.790   3.104   4.556  0.2147  0.0773 -0.6593
 6436SOL    HW120118   0.776   3.103   4.651 -0.5545 -2.0130 -0.7380
 6436SOL    HW220119   0.885   3.092   4.546  0.4305  1.2079 -0.1893
 6437SOL     OW20120   2.009   3.745   6.457  0.1260  0.3159 -0.4579
 6437SOL    HW120121   2.000   3.670   6.516 -1.8559  1.1567  0.4239
 6437SOL    HW220122   1.923   3.788   6.460 -0.0558  0.4653 -3.9129
 6438SOL     OW20123   1.414   1.639   5.755 -0.2365 -0.1316 -0.2814
 6438SOL    HW120124   1.446   1.567   5.809 -1.1281 -0.8623 -0.7044
 6438SOL    HW220125   1.399   1.601   5.669  0.7998  0.9372 -0.9621
 6439SOL     OW20126   6.773   1.908   2.022  0.0547  0.2485  0.2914
 6439SOL    HW120127   6.853   1.878   2.064  0.5817 -0.5830 -1.2444
 6439SOL    HW220128   6.722   1.828   2.008  0.8546  0.1584 -2.5688
 6440SOL     OW20129   4.821   4.883   0.038 -0.0803 -0.1471 -0.0670
 6440SOL    HW120130   4.861   4.937   0.106  0.7960 -0.4452 -0.3267
 6440SOL    HW220131   4.840   4.929  -0.043 -0.9671  0.1143 -0.1284
 6441SOL     OW20132   3.786   2.877   7.161 -0.2003  0.0713 -0.0480
 6441SOL    HW120133   3.840   2.931   7.219  1.4021  0.0798 -1.4672
 6441SOL    HW220134   3.764   2.934   7.088 -0.8852 -0.3755 -0.1956
 6442SOL     OW20135   5.106   0.566   3.247 -0.0650  0.1768  0.0232
 6442SOL    HW120136   5.012   0.566   3.232 -0.0292  0.8698 -0.2353
 6442SOL    HW220137   5.134   0.655   3.226  0.6605 -0.0438  0.0167
 6443SOL     OW20138   7.932   1.460   0.700  0.6053  0.5295  0.0240
 6443SOL    HW120139   7.892   1.542   0.729  0.0043  0.1801  0.1898
 6443SOL    HW220140   8.025   1.471   0.719  0.3358  0.5935  1.4494
 6444SOL     OW20141   5.838   4.759   3.201  0.2147 -0.1428 -0.0633
 6444SOL    HW120142   5.819   4.851   3.220 -2.2283 -0.7552  0.9402
 6444SOL    HW220143   5.814   4.747   3.109 -0.5222  0.0089  0.1041
 6445SOL     OW20144   7.434   4.106   1.672  0.1477  0.2303  0.0041
 6445SOL    HW120145   7.360   4.048   1.653  0.7843 -0.4444 -0.5138
 6445SOL    HW220146   7.429   4.174   1.604  0.1214  0.0632 -0.1632
 6446SOL     OW20147   6.158   7.173   5.156  0.0861  0.1893  0.0250
 6446SOL    HW120148   6.134   7.088   5.191  1.0008 -0.0513  0.0710
 6446SOL    HW220149   6.168   7.158   5.062 -0.6263  0.4520 -0.1043
 6447SOL     OW20150   2.452   0.681   5.318  0.2314  0.0665  0.1731
 6447SOL    HW120151   2.500   0.608   5.278  1.1387  0.1067  1.1478
 6447SOL    HW220152   2.419   0.731   5.244 -0.3119 -1.2544 -0.5212
 6448SOL     OW20153   5.510   3.905   2.933 -0.2771 -0.0466  0.5113
 6448SOL    HW120154   5.480   3.990   2.966  0.9172  0.3146  0.7402
 6448SOL    HW220155   5.478   3.901   2.843  0.7851  1.2772  0.0338
 6449SOL     OW20156   7.311   1.200   4.182 -0.1254  0.0168  0.1302
 6449SOL    HW120157   7.250   1.129   4.201 -1.4087  0.7059 -1.1756
 6449SOL    HW220158   7.396   1.157   4.176 -0.7500 -1.2843  0.1669
 6450SOL     OW20159   3.999   6.267   5.060 -0.5326 -0.1911  0.2701
 6450SOL    HW120160   3.961   6.196   5.008 -0.8083 -0.3803  0.7299
 6450SOL    HW220161   3.961   6.346   5.023  0.4546 -0.1981 -0.8382
 6451SOL     OW20162   4.404   5.149   4.012  0.5577  0.3638 -0.0733
 6451SOL    HW120163   4.385   5.153   3.919  1.2257  2.7546 -0.1827
 6451SOL    HW220164   4.400   5.056   4.034  1.1591 -0.3390 -2.6270
 6452SOL     OW20165   6.936   5.407   5.662  0.3214 -0.5479 -0.1872
 6452SOL    HW120166   6.872   5.377   5.727 -0.1932 -0.5853 -0.7056
 6452SOL    HW220167   6.947   5.500   5.680  0.6306 -0.6823  0.3327
 6453SOL     OW20168   6.489   7.616   0.570 -0.0507  0.1043  0.3228
 6453SOL    HW120169   6.514   7.707   0.556  1.0705 -0.2775 -0.2417
 6453SOL    HW220170   6.461   7.612   0.662  0.2414  0.9358  0.4483
 6454SOL     OW20171   5.411   0.934   0.501 -0.3995 -0.0458 -0.1803
 6454SOL    HW120172   5.431   1.026   0.520  1.0823 -0.7522  2.1765
 6454SOL    HW220173   5.316   0.929   0.505 -0.4421  1.1562  1.1754
 6455SOL     OW20174   2.944   0.757   4.553  0.4015  0.6071 -0.4093
 6455SOL    HW120175   2.909   0.791   4.471  1.7265  1.2311 -0.7324
 6455SOL    HW220176   3.026   0.713   4.528 -1.1269 -2.8161 -0.0195
 6456SOL     OW20177   3.984   4.397   0.387  0.5435  0.1394 -0.5975
 6456SOL    HW120178   4.069   4.441   0.390  0.4160  0.3171  0.5713
 6456SOL    HW220179   3.942   4.418   0.470  0.2885 -1.8199 -0.1708
 6457SOL     OW20180   4.732   5.047   4.262 -0.0363 -0.3087 -0.4583
 6457SOL    HW120181   4.774   5.005   4.187  3.9280  1.2807  0.6081
 6457SOL    HW220182   4.788   5.024   4.336 -1.6631  1.2323  1.3639
 6458SOL     OW20183   3.333   6.826   5.017  0.0876 -0.1335  0.2756
 6458SOL    HW120184   3.351   6.858   5.105 -0.0838  0.7249  0.0131
 6458SOL    HW220185   3.342   6.904   4.961 -1.8045 -0.2000 -0.2058
 6459SOL     OW20186   4.005   3.690   5.400  0.0695  0.4010 -0.5062
 6459SOL    HW120187   3.946   3.720   5.468  0.2496 -1.9521  0.8102
 6459SOL    HW220188   4.077   3.753   5.399  0.4064  0.1522  2.0069
 6460SOL     OW20189   1.800   0.106   7.857  0.0275 -0.4313  0.3580
 6460SOL    HW120190   1.872   0.159   7.822  1.1072 -2.0923 -0.0677
 6460SOL    HW220191   1.815   0.105   7.951  0.2084 -0.2717  0.3315
 6461SOL     OW20192   1.341   4.904   6.422  0.0707 -0.5262 -0.2636
 6461SOL    HW120193   1.336   4.832   6.359 -0.4071 -1.5232  0.8781
 6461SOL    HW220194   1.259   4.952   6.410 -0.1220 -0.8484 -0.2523
 6462SOL     OW20195   7.382   3.278   2.657  0.3518  0.2205 -0.7308
 6462SOL    HW120196   7.414   3.243   2.740  3.0082 -0.4563 -1.9564
 6462SOL    HW220197   7.395   3.373   2.665 -2.4211  0.6071  0.7460
 6463SOL     OW20198   6.924   6.343   0.368 -0.2687 -0.3154 -0.3810
 6463SOL    HW120199   6.888   6.288   0.298 -0.3235 -0.6202 -0.1142
 6463SOL    HW220200   6.890   6.430   0.350 -0.5211 -0.4506 -0.5689
 6464SOL     OW20201   6.238   4.522   7.629  0.2990 -0.2285  0.3265
 6464SOL    HW120202   6.184   4.460   7.678  0.5921 -1.0339 -0.3548
 6464SOL    HW220203   6.175   4.572   7.576  0.2116 -1.1656 -0.4684
 6465SOL     OW20204   1.197   1.844   6.699 -0.5994 -0.3086 -0.1768
 6465SOL    HW120205   1.279   1.796   6.688 -0.7189 -0.4501 -0.4520
 6465SOL    HW220206   1.223   1.936   6.701 -0.4651 -0.3397 -0.5584
 6466SOL     OW20207   2.728   2.081   0.492  0.0445  0.0532 -0.2059
 6466SOL    HW120208   2.728   2.009   0.429  0.6268 -0.3616  0.2645
 6466SOL    HW220209   2.731   2.160   0.437 -2.2958 -0.1815 -0.7999
 6467SOL     OW20210   4.840   4.643   2.520  0.0705  0.1384  0.5464
 6467SOL    HW120211   4.836   4.737   2.505 -1.3140 -0.0039 -0.1740
 6467SOL    HW220212   4.918   4.630   2.574  1.5235  1.4414 -1.1107
 6468SOL     OW20213   7.708   0.574   3.207  0.5800  0.2158 -0.4316
 6468SOL    HW120214   7.626   0.610   3.240  0.0116 -1.3369 -0.0412
 6468SOL    HW220215   7.776   0.623   3.253 -0.1799 -0.7936  1.9169
 6469SOL     OW20216   3.118   5.084   2.967  0.5901 -0.3599 -0.2190
 6469SOL    HW120217   3.099   5.049   2.880  2.1533 -1.1350 -0.2668
 6469SOL    HW220218   3.100   5.178   2.959 -1.7086 -0.7723 -0.6429
 6470SOL     OW20219   0.266   3.946   0.756 -0.1695 -1.0144 -0.0952
 6470SOL    HW120220   0.221   3.899   0.826 -1.2683  0.4169  0.1953
 6470SOL    HW220221   0.198   4.000   0.716  1.1306  0.6678 -0.1267
 6471SOL     OW20222   2.713   1.292   2.970 -0.8142 -0.2703 -0.1660
 6471SOL    HW120223   2.641   1.345   2.936 -2.5870 -2.0837  0.5355
 6471SOL    HW220224   2.751   1.251   2.893 -1.1185  0.0098 -0.4689
 6472SOL     OW20225   5.425   2.050   3.712 -0.4443  0.1110 -0.7595
 6472SOL    HW120226   5.497   2.097   3.753  0.9083 -0.8577 -1.9277
 6472SOL    HW220227   5.406   1.978   3.772  0.8287 -0.6992 -1.2879
 6473SOL     OW20228   1.811   4.462   5.645 -0.3962 -0.5040  0.3734
 6473SOL    HW120229   1.777   4.524   5.580  0.4827 -0.0576  0.3122
 6473SOL    HW220230   1.764   4.482   5.725 -0.0417  0.3410  0.3844
 6474SOL     OW20231   7.463   6.035   1.949 -0.1981  0.0650  0.1826
 6474SOL    HW120232   7.463   5.947   1.911 -0.7575  0.0337  0.2452
 6474SOL    HW220233   7.469   6.020   2.043  1.8749  0.1587  0.1145
 6475SOL     OW20234   3.073   7.621   7.206 -0.3156  0.2499 -0.5270
 6475SOL    HW120235   2.981   7.598   7.216 -0.0713 -0.0923  1.4610
 6475SOL    HW220236   3.073   7.714   7.185 -1.1133  0.4519  0.3127
 6476SOL     OW20237   7.792   4.533   0.410 -0.4612  0.2534  0.0824
 6476SOL    HW120238   7.833   4.461   0.458  2.2637  0.9676 -1.0201
 6476SOL    HW220239   7.758   4.492   0.330  1.4294  0.1857 -0.7321
 6477SOL     OW20240   1.542   0.198   3.278 -0.1396 -0.6148  0.1544
 6477SOL    HW120241   1.630   0.216   3.312  0.7650  1.3165 -2.8285
 6477SOL    HW220242   1.490   0.273   3.306  0.5892  0.9428 -2.3458
 6478SOL     OW20243   2.607   3.789   4.131  0.3041 -0.2337 -0.0043
 6478SOL    HW120244   2.546   3.820   4.198 -0.0331 -0.5752 -0.1505
 6478SOL    HW220245   2.690   3.832   4.152 -0.5410  2.1575 -1.2012
 6479SOL     OW20246   3.613   6.307   7.808 -0.0144  0.3739  0.7850
 6479SOL    HW120247   3.668   6.382   7.831  0.5243  0.9854 -2.1349
 6479SOL    HW220248   3.527   6.346   7.789  0.3583  0.3827 -1.0815
 6480SOL     OW20249   1.793   4.206   5.912  0.0953  0.1100  0.4070
 6480SOL    HW120250   1.705   4.214   5.875  0.8289 -1.8691 -2.0461
 6480SOL    HW220251   1.827   4.295   5.913 -1.5610  0.7811  0.4655
 6481SOL     OW20252   1.984   6.388   5.050 -0.5338 -0.1843 -0.7679
 6481SOL    HW120253   2.048   6.323   5.079 -0.6497 -0.2045 -0.5568
 6481SOL    HW220254   1.951   6.354   4.967 -1.6329 -1.1229  0.0171
 6482SOL     OW20255   5.835   6.847   6.385  0.4986 -0.3050 -0.0357
 6482SOL    HW120256   5.836   6.807   6.298  0.0859  0.5653 -0.4493
 6482SOL    HW220257   5.898   6.795   6.436  1.3687 -0.3135 -1.0819
 6483SOL     OW20258   1.744   3.964   2.583 -0.2565  0.0831 -0.3511
 6483SOL    HW120259   1.790   3.926   2.658  2.3237  0.3508 -1.6886
 6483SOL    HW220260   1.743   3.893   2.518 -2.2016 -0.0518 -0.2434
 6484SOL     OW20261   4.853   4.773   3.145  0.2849  0.1923  0.4403
 6484SOL    HW120262   4.934   4.825   3.146  1.0841 -1.0029  0.8448
 6484SOL    HW220263   4.829   4.767   3.238 -0.6322  1.0561  0.2715
 6485SOL     OW20264   3.881   6.704   3.271  0.0404  0.0308 -0.1815
 6485SOL    HW120265   3.935   6.630   3.242  0.4569  0.6271 -0.9757
 6485SOL    HW220266   3.791   6.673   3.261  0.2055 -0.8238  0.7540
 6486SOL     OW20267   2.890   7.401   0.919 -0.2982  0.3218 -0.0827
 6486SOL    HW120268   2.848   7.406   1.004 -0.0844  0.0718  0.0382
 6486SOL    HW220269   2.906   7.308   0.905  1.9070  0.5387  0.7111
 6487SOL     OW20270   7.193   3.396   7.786  0.1871 -0.4182 -0.1380
 6487SOL    HW120271   7.121   3.460   7.789 -0.0649 -0.5386 -2.1075
 6487SOL    HW220272   7.236   3.413   7.702  0.6071 -2.3105 -0.3456
 6488SOL     OW20273   3.894   4.772   2.226 -0.1488  0.0570  0.1358
 6488SOL    HW120274   3.825   4.767   2.292  1.9736  1.3642  2.6154
 6488SOL    HW220275   3.929   4.861   2.235  1.9338 -0.5851 -0.9672
 6489SOL     OW20276   3.346   6.741   7.361  0.3201 -0.5523 -0.0072
 6489SOL    HW120277   3.382   6.820   7.322 -0.0559 -0.5475 -0.3463
 6489SOL    HW220278   3.251   6.749   7.349  0.3030 -1.2082 -0.3438
 6490SOL     OW20279   7.105   0.077   0.490  0.3686 -0.3385  0.0410
 6490SOL    HW120280   7.012   0.099   0.486  0.5708  0.6345  0.3086
 6490SOL    HW220281   7.145   0.152   0.534  0.8912 -1.9671  2.5759
 6491SOL     OW20282   7.590   5.162   1.886  0.3204  0.0090 -0.5068
 6491SOL    HW120283   7.673   5.123   1.912  0.2539  0.6434  0.7375
 6491SOL    HW220284   7.577   5.235   1.948 -1.0428  0.0660 -0.8228
 6492SOL     OW20285   7.736   5.747   4.008  0.1229  0.2976  0.3715
 6492SOL    HW120286   7.788   5.683   4.058  0.9804  3.2528  3.6831
 6492SOL    HW220287   7.800   5.812   3.979 -1.0452  1.1316 -0.4076
 6493SOL     OW20288   6.151   7.416   1.479 -0.3129  0.0359  0.3723
 6493SOL    HW120289   6.108   7.332   1.463  0.2772  0.0033 -1.1291
 6493SOL    HW220290   6.240   7.392   1.505 -0.7683  0.1513  2.1961
 6494SOL     OW20291   4.117   6.022   2.264 -0.0859 -0.7315  0.1715
 6494SOL    HW120292   4.109   6.104   2.216  1.1100 -0.3854  0.5419
 6494SOL    HW220293   4.037   5.973   2.242 -0.0516 -0.1474 -1.3307
 6495SOL     OW20294   4.949   5.151   7.135  0.4185  0.1889 -0.3313
 6495SOL    HW120295   4.867   5.158   7.088 -0.0755  1.3373  0.6578
 6495SOL    HW220296   5.016   5.169   7.069 -0.0505 -1.2269 -1.2557
 6496SOL     OW20297   2.836   3.611   7.329  0.4981  0.3192  0.0905
 6496SOL    HW120298   2.853   3.558   7.407  0.0227 -0.2701 -0.1947
 6496SOL    HW220299   2.922   3.630   7.293  0.7478  1.0080  1.0266
 6497SOL     OW20300   0.357   0.877   5.326  0.1955 -0.8008 -0.2503
 6497SOL    HW120301   0.359   0.816   5.400 -1.3672 -0.1484  0.3737
 6497SOL    HW220302   0.330   0.960   5.365 -0.1300 -0.3115 -1.4894
 6498SOL     OW20303   6.255   0.161   4.749 -0.1397  0.1612 -0.0251
 6498SOL    HW120304   6.219   0.123   4.669 -2.3147 -0.5519  1.2129
 6498SOL    HW220305   6.210   0.245   4.759  1.8503  1.3914 -0.7161
 6499SOL     OW20306   3.575   7.680   1.477 -0.2133 -0.2635 -0.2698
 6499SOL    HW120307   3.547   7.708   1.564 -0.5854 -2.5539  0.4369
 6499SOL    HW220308   3.569   7.584   1.480  0.7774 -0.4629 -2.4884
 6500SOL     OW20309   1.364   1.944   2.668  0.1508 -0.5421  0.1054
 6500SOL    HW120310   1.404   1.857   2.675  0.0546 -0.5911  0.0461
 6500SOL    HW220311   1.421   1.991   2.606 -0.0467 -0.7063 -0.2028
 6501SOL     OW20312   7.200   3.667   0.405 -0.2218  0.0460  0.0080
 6501SOL    HW120313   7.204   3.686   0.311 -0.1747  0.1375  0.0280
 6501SOL    HW220314   7.132   3.726   0.438  0.4609  0.7378  0.2025
 6502SOL     OW20315   4.397   0.853   0.761 -0.6029 -0.0761  0.3983
 6502SOL    HW120316   4.366   0.771   0.800 -0.2210 -0.6138 -0.4041
 6502SOL    HW220317   4.320   0.890   0.719 -0.4150 -0.9197 -0.7496
 6503SOL     OW20318   7.039   5.596   2.462  0.3337  0.4626  0.4643
 6503SOL    HW120319   7.001   5.674   2.502 -0.6480 -0.1246  0.7149
 6503SOL    HW220320   7.095   5.559   2.530 -1.6124 -0.7316  1.4913
 6504SOL     OW20321   5.286   3.455   7.607 -0.2704  0.8039 -0.3084
 6504SOL    HW120322   5.197   3.471   7.576 -0.1999 -0.8038 -1.5032
 6504SOL    HW220323   5.313   3.375   7.561  0.9491 -0.0718  1.7809
 6505SOL     OW20324   0.441   1.243   4.581 -0.0428  0.4712 -0.4916
 6505SOL    HW120325   0.463   1.155   4.549 -1.4079  0.0154 -0.2494
 6505SOL    HW220326   0.509   1.299   4.546  0.8754 -0.6933 -0.6353
 6506SOL     OW20327   7.464   6.411   7.101 -0.3619 -0.1166 -0.3547
 6506SOL    HW120328   7.384   6.398   7.050 -1.7325  2.1132  1.0384
 6506SOL    HW220329   7.513   6.477   7.053 -0.8906  0.8040  0.3339
 6507SOL     OW20330   3.405   6.830   3.285  0.0925  0.1244 -0.4692
 6507SOL    HW120331   3.322   6.786   3.304  0.8917 -1.0572  0.4051
 6507SOL    HW220332   3.452   6.769   3.228 -0.2270  1.4546 -2.2414
 6508SOL     OW20333   6.619   3.158   5.447  0.4397 -0.6831  0.1486
 6508SOL    HW120334   6.567   3.094   5.399  0.7137 -0.3900 -0.5564
 6508SOL    HW220335   6.557   3.229   5.467  0.1513 -1.1264  0.8748
 6509SOL     OW20336   3.517   5.924   6.659  0.4181  0.6300 -0.0783
 6509SOL    HW120337   3.526   5.872   6.579  0.0651 -0.7353  0.7254
 6509SOL    HW220338   3.573   6.000   6.645  0.5770  0.2808 -1.5038
 6510SOL     OW20339   4.788   4.338   4.503  0.1821 -0.0145  0.3967
 6510SOL    HW120340   4.877   4.327   4.536 -0.2962  0.0973  1.8002
 6510SOL    HW220341   4.784   4.429   4.473  0.4196  0.1023  0.7206
 6511SOL     OW20342   2.561   4.869   7.383 -0.0518 -0.2232  0.5075
 6511SOL    HW120343   2.655   4.875   7.369  0.1679 -0.7399  1.6337
 6511SOL    HW220344   2.543   4.775   7.385 -0.5620 -0.1319  0.4569
 6512SOL     OW20345   1.627   6.074   3.606  0.2001 -0.1678 -0.6034
 6512SOL    HW120346   1.675   6.001   3.567  1.2390  0.0729  0.1854
 6512SOL    HW220347   1.649   6.150   3.553 -1.5976 -0.5446 -1.9848
 6513SOL     OW20348   5.166   5.142   5.808  0.2856 -0.5664  0.0602
 6513SOL    HW120349   5.258   5.133   5.785  0.3367 -0.3797  0.1881
 6513SOL    HW220350   5.141   5.228   5.776  0.0071 -0.8419 -0.4646
 6514SOL     OW20351   6.788   5.003   7.144  0.0381  0.4091 -0.3892
 6514SOL    HW120352   6.745   4.997   7.058  1.3785 -2.2882 -0.9748
 6514SOL    HW220353   6.750   4.932   7.195  1.3625  0.1134  0.2274
 6515SOL     OW20354   2.054   4.261   5.483  0.1922 -0.0693  0.2069
 6515SOL    HW120355   2.004   4.187   5.517 -1.4215  0.2004 -1.4371
 6515SOL    HW220356   2.027   4.335   5.537  1.1934 -0.4659  1.3154
 6516SOL     OW20357   1.616   2.059   1.154 -0.3119  0.2284  0.9672
 6516SOL    HW120358   1.635   1.991   1.088  1.2569 -0.4497  2.0460
 6516SOL    HW220359   1.629   2.142   1.107  1.0872 -0.2399  0.4694
 6517SOL     OW20360   4.596   0.503   3.273  0.3040 -0.1713  0.1427
 6517SOL    HW120361   4.522   0.518   3.214  0.0299  0.0373  0.5313
 6517SOL    HW220362   4.568   0.541   3.356  1.2838  0.9130  0.0121
 6518SOL     OW20363   1.441   4.658   3.930 -0.1802 -0.1887 -0.3754
 6518SOL    HW120364   1.444   4.562   3.924  0.7138 -0.2083  0.1860
 6518SOL    HW220365   1.427   4.675   4.023 -0.4651  0.2307 -0.4943
 6519SOL     OW20366   7.586   7.228   7.483 -0.4464  0.7034 -0.4010
 6519SOL    HW120367   7.497   7.263   7.472 -0.6406 -0.1717 -1.8370
 6519SOL    HW220368   7.578   7.136   7.461  0.8190  0.6060 -0.5130
 6520SOL     OW20369   4.614   4.266   6.238 -0.1006 -0.2704 -0.3985
 6520SOL    HW120370   4.650   4.308   6.159  1.4593  0.2858  0.5711
 6520SOL    HW220371   4.689   4.255   6.296 -1.3218 -0.0356  1.3013
 6521SOL     OW20372   3.851   0.680   2.491  0.1415  0.3288  0.5104
 6521SOL    HW120373   3.910   0.756   2.496  0.4645  0.1463 -0.2321
 6521SOL    HW220374   3.894   0.612   2.543  0.8158  0.0674 -0.3557
 6522SOL     OW20375   1.928   0.700   2.364  0.1987  0.0722 -0.2275
 6522SOL    HW120376   1.837   0.673   2.358 -0.4859  1.8072  1.2928
 6522SOL    HW220377   1.971   0.632   2.416 -0.1132 -0.8996 -1.1934
 6523SOL     OW20378   0.210   0.818   4.451 -0.1667  0.0918  0.3439
 6523SOL    HW120379   0.143   0.752   4.468 -1.0079  0.7594 -0.3464
 6523SOL    HW220380   0.180   0.864   4.373  1.1258  0.3708 -0.0168
 6524SOL     OW20381   6.472   2.640   7.842 -0.0879 -0.0931 -0.1691
 6524SOL    HW120382   6.469   2.716   7.785  1.1476  0.9273  1.0697
 6524SOL    HW220383   6.484   2.566   7.783  0.9343  0.9093 -1.2560
 6525SOL     OW20384   3.108   1.731   5.881 -0.7715 -0.2131 -0.4472
 6525SOL    HW120385   3.194   1.743   5.840 -0.4539 -1.7221 -0.2781
 6525SOL    HW220386   3.117   1.650   5.931 -2.5235 -0.7842 -1.0129
 6526SOL     OW20387   4.298   6.049   6.166  0.1426  0.3514  0.3255
 6526SOL    HW120388   4.214   6.072   6.207  1.1091  0.8585  2.0986
 6526SOL    HW220389   4.296   6.096   6.082 -0.9929  1.0239  0.6986
 6527SOL     OW20390   4.161   6.299   4.028 -0.2264  0.5520 -0.1819
 6527SOL    HW120391   4.234   6.287   3.968  1.5829 -0.1533  2.0388
 6527SOL    HW220392   4.131   6.210   4.047 -1.0426  0.7890 -0.3011
 6528SOL     OW20393   2.001   4.389   4.911 -0.5277  0.3267 -0.3825
 6528SOL    HW120394   1.979   4.307   4.866 -0.0286 -0.0596  0.0688
 6528SOL    HW220395   2.084   4.371   4.955 -0.4173  1.0755 -0.2719
 6529SOL     OW20396   0.011   1.945   7.432 -0.1065 -0.0035  0.4653
 6529SOL    HW120397   0.104   1.926   7.443 -0.3469 -1.0593  0.7644
 6529SOL    HW220398  -0.033   1.885   7.492 -1.0348 -0.3663 -0.5397
 6530SOL     OW20399   3.866   3.006   3.913  0.2640 -0.7381  0.1190
 6530SOL    HW120400   3.878   2.933   3.852 -0.7311 -0.7617 -0.0758
 6530SOL    HW220401   3.796   2.976   3.971  0.1625 -0.1120  0.3239
 6531SOL     OW20402   4.038   6.590   5.068  0.8638 -0.4976 -0.6621
 6531SOL    HW120403   4.081   6.650   5.129 -1.3781 -0.8063  1.3961
 6531SOL    HW220404   3.968   6.643   5.028  0.1926 -1.1677 -0.4019
 6532SOL     OW20405   4.230   2.539   3.053 -0.8559 -0.3982 -1.0420
 6532SOL    HW120406   4.257   2.460   3.099  1.2142  0.4689 -0.6224
 6532SOL    HW220407   4.278   2.537   2.970  1.6117  1.7233  0.1830
 6533SOL     OW20408   7.377   4.851   2.637  0.6848 -0.1599  0.3888
 6533SOL    HW120409   7.370   4.862   2.731 -0.1418 -0.0894  0.3264
 6533SOL    HW220410   7.426   4.770   2.625 -0.4942 -0.9651  0.8925
 6534SOL     OW20411   3.587   7.265   3.883  0.1726  0.5436 -0.1562
 6534SOL    HW120412   3.512   7.227   3.929  0.4916  0.5858  0.3940
 6534SOL    HW220413   3.661   7.252   3.942  0.2031  2.5246  0.2981
 6535SOL     OW20414   4.253   1.369   7.124  0.0637 -0.6170  0.4720
 6535SOL    HW120415   4.343   1.337   7.132  1.6929  3.0418 -1.0336
 6535SOL    HW220416   4.245   1.395   7.032 -2.1366  0.3037  0.8571
 6536SOL     OW20417   2.879   5.296   0.877 -0.3734  0.3322  0.4797
 6536SOL    HW120418   2.943   5.283   0.947  1.0704  0.7982 -0.6836
 6536SOL    HW220419   2.924   5.353   0.814 -1.1209 -1.0643 -1.4258
 6537SOL     OW20420   2.880   4.532   4.263  0.3453 -0.7630  0.5237
 6537SOL    HW120421   2.905   4.442   4.243  0.8209 -0.4740 -0.2348
 6537SOL    HW220422   2.920   4.584   4.193 -1.5483 -0.1640 -0.1758
 6538SOL     OW20423   3.762   3.896   2.599 -0.0490  0.2467  0.2453
 6538SOL    HW120424   3.842   3.936   2.631  0.8425 -1.3280  0.1066
 6538SOL    HW220425   3.758   3.921   2.506  0.4927  0.0407  0.1617
 6539SOL     OW20426   2.348   7.238   4.116 -0.4932  0.1313 -0.4550
 6539SOL    HW120427   2.297   7.290   4.053 -2.1725 -2.1835 -1.1588
 6539SOL    HW220428   2.335   7.148   4.087  0.9789 -0.8147  1.6405
 6540SOL     OW20429   7.000   1.653   3.246  0.3512 -0.1545 -0.1944
 6540SOL    HW120430   7.063   1.709   3.200  1.9313 -1.4168  0.3203
 6540SOL    HW220431   6.944   1.618   3.177  0.1612  1.0140 -0.6660
 6541SOL     OW20432   1.278   7.613   3.564  0.2940 -0.0904 -0.2884
 6541SOL    HW120433   1.290   7.705   3.589  0.2869 -0.2892  0.4632
 6541SOL    HW220434   1.288   7.564   3.646 -0.2496 -0.7163 -0.5854
 6542SOL     OW20435   4.603   7.836   5.426  0.3201 -0.2248 -0.2852
 6542SOL    HW120436   4.588   7.858   5.518  0.9721  2.4462 -0.7405
 6542SOL    HW220437   4.515   7.825   5.389 -0.0494  1.0199  0.1749
 6543SOL     OW20438   1.114   3.717   2.782  0.4774 -0.0239  0.4477
 6543SOL    HW120439   1.207   3.730   2.764  0.7540 -0.0568  1.7685
 6543SOL    HW220440   1.108   3.627   2.814 -0.5832 -1.4102 -3.1114
 6544SOL     OW20441   2.760   4.264   5.373 -0.5086  0.3612 -0.2244
 6544SOL    HW120442   2.853   4.246   5.366 -0.7883 -0.7128 -1.8165
 6544SOL    HW220443   2.745   4.337   5.313 -0.7327  0.2948 -0.2531
 6545SOL     OW20444   3.161   1.905   6.914 -0.6085  0.1368  0.1289
 6545SOL    HW120445   3.199   1.831   6.866  0.2300  0.6946 -0.0875
 6545SOL    HW220446   3.094   1.865   6.970 -0.3682 -0.7484 -0.1943
 6546SOL     OW20447   0.943   3.888   4.699 -1.0798  0.7499 -0.4819
 6546SOL    HW120448   0.857   3.852   4.676 -1.8754  0.3785  2.6824
 6546SOL    HW220449   0.925   3.952   4.768  1.3200 -1.4272  2.4273
 6547SOL     OW20450   2.475   6.489   2.960  0.1054  0.3116  0.2254
 6547SOL    HW120451   2.398   6.518   2.911  0.5115 -0.2265 -0.7674
 6547SOL    HW220452   2.540   6.557   2.943 -0.1023  0.7136  0.9811
 6548SOL     OW20453   3.120   5.516   7.970  0.2384 -0.3214 -0.0299
 6548SOL    HW120454   3.186   5.539   7.904 -0.3510 -1.2818 -0.9898
 6548SOL    HW220455   3.134   5.578   8.041  1.3870  0.2603 -0.7412
 6549SOL     OW20456   1.070   4.253   4.876 -0.0855  0.0604  0.3860
 6549SOL    HW120457   1.162   4.275   4.865  0.2934 -1.5206  0.1353
 6549SOL    HW220458   1.024   4.312   4.815  0.7714  0.6798  0.3206
 6550SOL     OW20459   1.943   5.940   4.329  0.5692 -0.1814  0.4017
 6550SOL    HW120460   2.013   5.981   4.279  1.3225 -0.3634  1.2618
 6550SOL    HW220461   1.984   5.862   4.367 -1.0470 -2.3134 -1.9232
 6551SOL     OW20462   4.267   1.157   6.400  0.0618 -0.5035 -0.1543
 6551SOL    HW120463   4.342   1.100   6.416  0.4367 -0.3910 -1.3645
 6551SOL    HW220464   4.305   1.243   6.384 -0.2736 -0.5216 -1.1396
 6552SOL     OW20465   2.842   2.024   2.199 -0.0909 -0.4998  0.0540
 6552SOL    HW120466   2.832   2.098   2.259 -0.6430  0.0338 -0.6880
 6552SOL    HW220467   2.778   1.960   2.230 -0.8771  0.0595 -0.3828
 6553SOL     OW20468   7.822   3.678   3.736  0.2551 -0.2818 -0.7692
 6553SOL    HW120469   7.799   3.744   3.802  0.7669 -1.0233  0.1770
 6553SOL    HW220470   7.911   3.701   3.709  0.0666 -0.0117 -1.1723
 6554SOL     OW20471   0.325   6.027   5.427  0.2642  0.0148  0.1760
 6554SOL    HW120472   0.347   6.037   5.519 -1.3904  1.9834  0.4371
 6554SOL    HW220473   0.229   6.030   5.424  0.1654 -2.0421 -1.4433
 6555SOL     OW20474   4.374   1.178   3.006  0.1753  0.0843 -0.0833
 6555SOL    HW120475   4.346   1.138   2.924  0.2316  0.0465 -0.0835
 6555SOL    HW220476   4.320   1.257   3.013  0.9122  0.6589 -0.6845
 6556SOL     OW20477   0.657   3.891   5.738  0.7567 -0.3085 -0.5661
 6556SOL    HW120478   0.604   3.812   5.729 -1.3040  1.0414 -0.8670
 6556SOL    HW220479   0.603   3.950   5.790  1.3885  1.6446 -2.0383
 6557SOL     OW20480   6.393   7.641   1.198 -0.2153  0.2781 -0.1473
 6557SOL    HW120481   6.310   7.610   1.163 -0.8643  0.1528  1.4150
 6557SOL    HW220482   6.388   7.736   1.194 -1.8556  0.4441  2.8232
 6558SOL     OW20483   1.446   4.918   1.369 -0.0933 -0.0555  0.4471
 6558SOL    HW120484   1.373   4.870   1.408 -1.5494  1.0039 -0.8374
 6558SOL    HW220485   1.409   5.004   1.347  0.8602 -0.2414 -2.2949
 6559SOL     OW20486   3.781   0.176   0.379 -0.2904  0.5807 -0.4419
 6559SOL    HW120487   3.875   0.178   0.397 -0.0056  0.7382 -1.7974
 6559SOL    HW220488   3.763   0.086   0.353 -0.7301  0.3021  0.7636
 6560SOL     OW20489   5.919   2.618   5.148  0.3894  0.3100  0.1989
 6560SOL    HW120490   5.918   2.679   5.221 -0.1469 -0.0898  0.5311
 6560SOL    HW220491   5.847   2.646   5.092 -0.4104 -0.5283  0.7874
 6561SOL     OW20492   1.240   2.557   1.762  0.1791 -0.4220  0.4274
 6561SOL    HW120493   1.195   2.639   1.743 -1.3586 -0.9102  1.7375
 6561SOL    HW220494   1.243   2.511   1.678 -0.5281  0.2260  0.0386
 6562SOL     OW20495   6.900   1.493   3.927 -0.1568 -0.1390  0.3083
 6562SOL    HW120496   6.882   1.423   3.989 -1.0189 -0.5199 -0.3528
 6562SOL    HW220497   6.886   1.573   3.978  0.1041 -0.4412  0.8677
 6563SOL     OW20498   6.724   1.552   1.351 -0.3105 -0.1260 -0.0944
 6563SOL    HW120499   6.676   1.530   1.431 -0.3192  1.6087  0.4198
 6563SOL    HW220500   6.752   1.468   1.316 -0.8692 -0.9683  1.3855
 6564SOL     OW20501   0.420   0.506   5.358 -0.1783 -0.3284 -0.4533
 6564SOL    HW120502   0.449   0.531   5.271 -0.1291 -1.4911 -0.7854
 6564SOL    HW220503   0.460   0.571   5.416  2.8588 -1.6384 -0.9117
 6565SOL     OW20504   2.699   5.459   3.779  0.7785 -0.1600 -0.0622
 6565SOL    HW120505   2.745   5.498   3.705  0.8317  1.2998  0.7053
 6565SOL    HW220506   2.630   5.522   3.801 -0.9458 -1.8075 -0.5136
 6566SOL     OW20507   0.630   4.380   4.559 -0.7006  0.1205  0.1143
 6566SOL    HW120508   0.561   4.329   4.517  0.3321 -2.0609  0.8677
 6566SOL    HW220509   0.594   4.402   4.645 -0.0867 -2.1730  1.0408
 6567SOL     OW20510   6.999   3.889   5.676  0.1239  0.0488 -0.0179
 6567SOL    HW120511   6.918   3.862   5.719  0.4565  2.4243  2.3291
 6567SOL    HW220512   7.020   3.974   5.715  3.0779  0.1199 -1.4868
 6568SOL     OW20513   2.623   6.244   5.981 -0.1188  0.2836  0.3492
 6568SOL    HW120514   2.570   6.179   6.027  0.7261 -0.2148  0.6416
 6568SOL    HW220515   2.668   6.292   6.050 -2.6605  2.9969  0.3385
 6569SOL     OW20516   2.533   2.383   4.091  0.3604  0.1927 -0.8994
 6569SOL    HW120517   2.560   2.291   4.092 -0.9627 -0.2153 -0.7100
 6569SOL    HW220518   2.465   2.387   4.024 -1.6548  0.3659  1.0012
 6570SOL     OW20519   0.379   1.882   7.714 -0.1632 -0.3935  0.1494
 6570SOL    HW120520   0.380   1.978   7.710  1.0983 -0.3481  0.8948
 6570SOL    HW220521   0.314   1.863   7.783  0.4941 -0.0103  0.8959
 6571SOL     OW20522   0.802   2.113   1.212 -0.2819  0.6582  0.0833
 6571SOL    HW120523   0.790   2.073   1.298 -1.6873  0.3791 -0.2156
 6571SOL    HW220524   0.847   2.196   1.230  2.7774 -1.0069  0.7002
 6572SOL     OW20525   0.828   5.686   1.277  0.1246  0.0012  0.1130
 6572SOL    HW120526   0.820   5.777   1.247  0.4459 -0.4120 -1.2972
 6572SOL    HW220527   0.922   5.669   1.277  0.1282 -0.0320  1.3515
 6573SOL     OW20528   5.773   4.305   5.961 -0.3102 -0.3665  0.5816
 6573SOL    HW120529   5.838   4.339   5.900  0.0752 -0.6948  0.8034
 6573SOL    HW220530   5.813   4.226   5.998 -0.7046 -0.3996  0.9532
 6574SOL     OW20531   6.571   5.726   4.257  0.2861  0.1510  0.1900
 6574SOL    HW120532   6.517   5.757   4.330 -1.0361 -0.8151 -0.3298
 6574SOL    HW220533   6.560   5.793   4.190  2.2684  1.5327  1.1514
 6575SOL     OW20534   0.997   1.881   7.228  0.5229  0.0514  0.0051
 6575SOL    HW120535   1.081   1.900   7.271 -0.4709  3.0000  0.9178
 6575SOL    HW220536   1.021   1.843   7.144  2.6454 -2.1772  1.5031
 6576SOL     OW20537   4.968   5.832   3.775 -0.0962  0.5245  0.1041
 6576SOL    HW120538   4.978   5.757   3.833 -1.8162 -0.0911 -0.3442
 6576SOL    HW220539   5.057   5.852   3.747  1.0443  1.7798  4.0027
 6577SOL     OW20540   1.468   1.408   7.531  0.1635 -0.0094 -0.6860
 6577SOL    HW120541   1.431   1.376   7.449 -1.6022  0.8267 -0.2767
 6577SOL    HW220542   1.483   1.329   7.583  1.1154 -0.5329 -1.6941
 6578SOL     OW20543   4.276   7.071   7.768  0.1289 -0.3158  0.5170
 6578SOL    HW120544   4.311   7.102   7.685  0.1572 -0.6594  0.4006
 6578SOL    HW220545   4.181   7.069   7.754  0.0718  0.4073  0.7611
 6579SOL     OW20546   4.649   7.371   2.931 -0.6204 -0.1915  0.4150
 6579SOL    HW120547   4.675   7.290   2.975 -0.9008 -0.1767  0.6141
 6579SOL    HW220548   4.665   7.354   2.838  0.4433 -0.0455  0.5607
 6580SOL     OW20549   6.868   0.785   0.065 -0.1436  0.1144  0.3194
 6580SOL    HW120550   6.798   0.759   0.006  0.5207  0.5808 -0.7148
 6580SOL    HW220551   6.921   0.845   0.013  1.6537 -1.0782  0.6913
 6581SOL     OW20552   7.604   1.580   5.635 -0.2770  0.3277 -0.5269
 6581SOL    HW120553   7.671   1.526   5.593 -0.0469  0.1374  0.0810
 6581SOL    HW220554   7.523   1.528   5.627  0.2941 -1.0874  1.8187
 6582SOL     OW20555   0.327   1.450   3.117  0.1880  0.3750 -0.7462
 6582SOL    HW120556   0.329   1.517   3.049 -0.1565  0.9702 -0.1833
 6582SOL    HW220557   0.238   1.454   3.152  0.7748  1.1021  0.7361
 6583SOL     OW20558   3.138   1.046   7.356  0.1157 -0.0102 -0.0837
 6583SOL    HW120559   3.135   1.127   7.306  0.5546  0.6365  0.8979
 6583SOL    HW220560   3.190   1.068   7.434 -2.7515 -0.1267  2.0745
 6584SOL     OW20561   2.988   0.862   3.145 -0.1114  0.0913 -0.7119
 6584SOL    HW120562   2.927   0.922   3.189 -0.9350 -1.0496 -0.2637
 6584SOL    HW220563   2.986   0.782   3.198  1.2728 -0.2132 -1.0746
 6585SOL     OW20564   7.101   5.665   5.065 -0.3675  0.1283  0.4304
 6585SOL    HW120565   7.138   5.633   5.147 -2.2605 -3.4034  0.1204
 6585SOL    HW220566   7.013   5.695   5.088 -0.7444 -0.4676 -0.1875
 6586SOL     OW20567   3.276   0.337   5.540 -0.1232  0.3290 -0.4031
 6586SOL    HW120568   3.181   0.330   5.528 -0.1859  1.4601 -0.6554
 6586SOL    HW220569   3.299   0.258   5.588 -0.6169 -1.9328 -3.5637
 6587SOL     OW20570   0.940   6.738   4.001  0.4057 -0.6818 -0.0965
 6587SOL    HW120571   0.941   6.833   4.015  1.2709 -0.9587  2.2068
 6587SOL    HW220572   0.937   6.701   4.090 -1.1333 -2.8187 -0.9623
 6588SOL     OW20573   0.583   3.101   1.916 -0.7260 -0.5223  0.0689
 6588SOL    HW120574   0.554   3.010   1.925  0.4800 -1.0838 -1.2034
 6588SOL    HW220575   0.580   3.117   1.821 -1.3564  0.9246  0.3179
 6589SOL     OW20576   4.616   7.328   5.898  0.1938 -0.3461 -0.2921
 6589SOL    HW120577   4.706   7.310   5.870 -0.3780 -1.7687 -1.3109
 6589SOL    HW220578   4.585   7.395   5.837  0.1149 -0.8869 -0.8622
 6590SOL     OW20579   3.360   4.556   5.625 -0.2682  0.1361 -0.0335
 6590SOL    HW120580   3.293   4.498   5.591 -3.0525  1.7734  2.1574
 6590SOL    HW220581   3.413   4.501   5.682 -0.4807 -0.9681 -0.8713
 6591SOL     OW20582   3.463   1.685   0.578  0.0596 -0.0800 -0.3629
 6591SOL    HW120583   3.520   1.668   0.652 -0.0257 -1.0013 -0.4930
 6591SOL    HW220584   3.380   1.643   0.602 -0.3557  0.6776 -0.4546
 6592SOL     OW20585   3.188   0.421   3.637 -0.3611 -0.3471 -0.2562
 6592SOL    HW120586   3.191   0.471   3.718 -0.8552  0.9066 -0.9968
 6592SOL    HW220587   3.095   0.415   3.616 -0.2069 -0.2233 -0.9925
 6593SOL     OW20588   6.968   4.024   3.776  0.1842  0.2209  0.6620
 6593SOL    HW120589   6.926   4.010   3.692  1.4938  0.3722 -0.0472
 6593SOL    HW220590   7.010   3.940   3.796  0.6947  0.4788  0.6856
 6594SOL     OW20591   1.594   3.611   0.086  0.0945  0.5178  0.8585
 6594SOL    HW120592   1.647   3.686   0.059  0.3502  0.0528  0.0478
 6594SOL    HW220593   1.618   3.541   0.026 -1.0942  0.1602  0.7648
 6595SOL     OW20594   0.939   3.535   6.045 -0.3635 -0.0299  0.5441
 6595SOL    HW120595   1.020   3.558   5.998 -1.7419 -0.1496 -2.0900
 6595SOL    HW220596   0.967   3.521   6.135  2.3198  1.2825  0.0217
 6596SOL     OW20597   2.839   7.146   4.039 -0.0349 -0.3343  0.2501
 6596SOL    HW120598   2.768   7.093   4.073 -0.4770  0.6800  0.9392
 6596SOL    HW220599   2.840   7.225   4.094  3.0545 -1.2700  1.7736
 6597SOL     OW20600   0.526   4.686   5.289 -0.1017 -0.2438 -0.6151
 6597SOL    HW120601   0.434   4.662   5.298 -0.5217  1.0821 -1.2041
 6597SOL    HW220602   0.529   4.780   5.305  0.9862 -0.0666 -1.7050
 6598SOL     OW20603   0.946   5.178   2.758 -0.0120  0.3668  0.6311
 6598SOL    HW120604   0.928   5.084   2.768  1.0751  0.1105  0.2326
 6598SOL    HW220605   1.005   5.183   2.684 -0.0694  1.3814  0.6483
 6599SOL     OW20606   4.112   2.212   5.248 -0.0396  0.1060 -0.6069
 6599SOL    HW120607   4.162   2.268   5.307  1.7194  0.7316 -2.5795
 6599SOL    HW220608   4.032   2.263   5.229  0.4105  0.8772 -0.4857
 6600SOL     OW20609   5.264   1.221   6.347 -0.1304 -0.4028 -0.0860
 6600SOL    HW120610   5.260   1.315   6.331  0.5031 -0.0490  1.6188
 6600SOL    HW220611   5.176   1.198   6.378 -0.5799 -0.5949 -1.4259
 6601SOL     OW20612   0.362   7.392   2.898 -0.3216 -0.2540  0.4289
 6601SOL    HW120613   0.413   7.346   2.831  0.6341 -0.5895  1.3523
 6601SOL    HW220614   0.360   7.483   2.870 -1.1722 -0.6233 -0.7870
 6602SOL     OW20615   6.151   0.933   4.199  0.2918  0.3562  0.4621
 6602SOL    HW120616   6.095   1.010   4.190  1.7840  1.4978  0.5835
 6602SOL    HW220617   6.152   0.894   4.112 -0.9608  0.0869  0.5414
 6603SOL     OW20618   5.872   7.057   3.179  0.0039  0.0621 -0.5831
 6603SOL    HW120619   5.900   7.033   3.090 -0.6294 -2.0923 -0.2546
 6603SOL    HW220620   5.948   7.037   3.233 -0.0522  0.1581 -0.4694
 6604SOL     OW20621   4.176   1.047   3.172 -0.3155 -0.3268  0.0555
 6604SOL    HW120622   4.262   1.029   3.134  0.9240  2.6378  1.1783
 6604SOL    HW220623   4.180   1.139   3.199 -4.0333  0.0897 -0.2778
 6605SOL     OW20624   3.053   5.519   0.398 -0.2034 -0.2742  0.1241
 6605SOL    HW120625   3.020   5.444   0.349  0.3413  1.4000 -3.0820
 6605SOL    HW220626   2.978   5.578   0.405  0.2432  0.3911 -0.5920
 6606SOL     OW20627   3.306   6.714   1.512 -0.7802  0.1752 -0.0631
 6606SOL    HW120628   3.362   6.775   1.560 -0.3372 -0.9238  0.8774
 6606SOL    HW220629   3.358   6.634   1.507 -1.8834 -0.5660 -0.0195
 6607SOL     OW20630   5.341   0.922   0.872 -0.1662  0.1143 -0.6222
 6607SOL    HW120631   5.419   0.894   0.920 -1.4901  0.5322  2.0139
 6607SOL    HW220632   5.351   1.017   0.863 -0.6968  0.2980  0.4947
 6608SOL     OW20633   4.813   6.333   3.681  0.1021  0.4369  0.1800
 6608SOL    HW120634   4.851   6.252   3.645 -2.5074 -1.6357  1.7096
 6608SOL    HW220635   4.813   6.319   3.776 -2.7265  0.9971  0.3597
 6609SOL     OW20636   3.183   1.851   3.653 -0.3435 -0.0527 -0.2974
 6609SOL    HW120637   3.257   1.876   3.708  0.7615 -1.6953 -0.9522
 6609SOL    HW220638   3.117   1.918   3.670  0.6191  0.4793  1.6465
 6610SOL     OW20639   7.834   6.044   5.032  0.4716  0.6052 -0.8253
 6610SOL    HW120640   7.888   6.112   4.992  0.9082 -0.0089 -1.3025
 6610SOL    HW220641   7.762   6.031   4.971 -0.3971  1.6289 -0.0499
 6611SOL     OW20642   7.545   5.508   4.572  0.0572 -0.2069 -0.4635
 6611SOL    HW120643   7.512   5.550   4.651 -1.1980 -0.3332 -0.8975
 6611SOL    HW220644   7.472   5.510   4.511  0.9251 -0.3441 -1.5426
 6612SOL     OW20645   7.830   7.049   7.467  0.0144  0.1868  0.0107
 6612SOL    HW120646   7.811   7.122   7.408  1.4152  0.4810 -0.1133
 6612SOL    HW220647   7.765   6.982   7.444 -1.4905  1.4791  0.3402
 6613SOL     OW20648   2.724   0.592   1.236 -0.0769  0.0948 -0.0305
 6613SOL    HW120649   2.786   0.657   1.202  1.5073 -0.2400  2.0208
 6613SOL    HW220650   2.740   0.514   1.184  0.4848  0.3378 -0.2297
 6614SOL     OW20651   7.451   1.400   6.442 -0.4138  0.0206  0.7353
 6614SOL    HW120652   7.545   1.405   6.427 -0.5848 -0.7131 -0.7666
 6614SOL    HW220653   7.443   1.384   6.536  0.9527  0.2861  0.9144
 6615SOL     OW20654   7.995   0.207   2.842 -0.2390 -0.5154  0.5668
 6615SOL    HW120655   7.940   0.188   2.919 -1.9806  2.0942  0.1097
 6615SOL    HW220656   7.933   0.212   2.769  0.8515  0.6783 -0.3155
 6616SOL     OW20657   4.350   6.253   4.213  0.0358  0.0965  0.3399
 6616SOL    HW120658   4.347   6.157   4.212 -0.5318  0.0786  1.6346
 6616SOL    HW220659   4.269   6.280   4.169 -0.3409 -0.0421  0.9347
 6617SOL     OW20660   6.566   2.704   2.226 -0.4886 -0.3249 -0.1772
 6617SOL    HW120661   6.530   2.767   2.288 -1.3486 -0.2313 -0.7561
 6617SOL    HW220662   6.494   2.685   2.166  0.3363 -0.3681 -1.1842
 6618SOL     OW20663   4.368   1.811   4.194 -0.1868  0.3532 -0.2651
 6618SOL    HW120664   4.293   1.759   4.223 -0.8271 -0.2318 -2.7587
 6618SOL    HW220665   4.361   1.813   4.099  2.5684  0.9214 -0.5501
 6619SOL     OW20666   2.928   3.524   3.738 -0.2652 -0.0957  0.0184
 6619SOL    HW120667   2.906   3.451   3.795  2.0286  0.9677  2.4955
 6619SOL    HW220668   2.844   3.562   3.714 -1.4136 -2.1587  0.5053
 6620SOL     OW20669   1.977   0.392   0.492  0.1925 -0.1575  0.0695
 6620SOL    HW120670   1.912   0.447   0.536  0.8107 -1.0750  2.2545
 6620SOL    HW220671   1.926   0.338   0.432 -1.0386 -0.5690  1.4319
 6621SOL     OW20672   0.173   7.370   6.914 -0.1497  0.7291  0.4798
 6621SOL    HW120673   0.241   7.404   6.856 -2.8534  1.3617 -2.6373
 6621SOL    HW220674   0.161   7.279   6.887 -0.9968  0.8305  0.4932
 6622SOL     OW20675   0.449   6.763   4.573  0.0324  0.1383  0.0578
 6622SOL    HW120676   0.506   6.835   4.598  0.2170  0.1180 -0.3143
 6622SOL    HW220677   0.482   6.688   4.623  0.4244  0.0901 -0.2718
 6623SOL     OW20678   7.710   0.265   0.457  0.0485  0.0314  0.4702
 6623SOL    HW120679   7.691   0.195   0.519 -0.0514  0.4556  0.9198
 6623SOL    HW220680   7.803   0.284   0.470  1.2293 -2.7623 -2.4499
 6624SOL     OW20681   4.256   3.522   6.686  0.5179 -0.2661  0.1576
 6624SOL    HW120682   4.188   3.472   6.640 -1.6641  0.0238  2.8051
 6624SOL    HW220683   4.289   3.461   6.751 -0.0324  0.7803  1.4509
 6625SOL     OW20684   6.611   6.955   6.701 -0.0782  0.4199  0.2984
 6625SOL    HW120685   6.648   6.891   6.640 -3.0569 -0.7690 -0.4393
 6625SOL    HW220686   6.634   7.040   6.663  0.5562 -0.2664 -0.9221
 6626SOL     OW20687   3.904   5.628   6.343  0.2313  0.4130 -0.5248
 6626SOL    HW120688   3.951   5.548   6.367 -1.7150 -0.2570  1.3449
 6626SOL    HW220689   3.973   5.694   6.334  1.6976 -0.9486  0.1602
 6627SOL     OW20690   6.594   2.137   3.587 -0.1175  0.2714 -0.0962
 6627SOL    HW120691   6.535   2.172   3.654 -0.1514 -1.9479  1.1639
 6627SOL    HW220692   6.546   2.063   3.550  0.4383  0.6772 -1.6916
 6628SOL     OW20693   6.340   5.834   0.846 -0.0599  0.2390 -0.1378
 6628SOL    HW120694   6.342   5.762   0.783  0.1658 -1.1986  1.4408
 6628SOL    HW220695   6.289   5.903   0.803 -1.3192 -1.3098 -1.2222
 6629SOL     OW20696   0.120   1.897   2.010  0.4238  0.4179  0.0293
 6629SOL    HW120697   0.081   1.860   1.931  2.4781  0.4240 -1.0627
 6629SOL    HW220698   0.154   1.982   1.983  2.0140  0.0120  0.6207
 6630SOL     OW20699   2.893   4.177   6.643  0.2493 -0.9339 -0.0429
 6630SOL    HW120700   2.927   4.164   6.554 -0.9818  0.5362 -0.7758
 6630SOL    HW220701   2.905   4.092   6.686  1.9770 -1.3296 -1.2140
 6631SOL     OW20702   6.992   1.215   1.386  0.4317 -0.2731 -0.0424
 6631SOL    HW120703   7.045   1.258   1.319  1.2940 -0.2332  0.6584
 6631SOL    HW220704   6.986   1.124   1.358 -1.0872  0.1651 -1.3350
 6632SOL     OW20705   1.552   7.545   2.250  0.2100 -0.1915 -0.4018
 6632SOL    HW120706   1.472   7.593   2.274 -0.6942 -1.4630 -0.7573
 6632SOL    HW220707   1.622   7.589   2.299 -0.8859  0.2176  0.8507
 6633SOL     OW20708   1.106   7.110   1.287  0.1171 -0.2980 -0.1669
 6633SOL    HW120709   1.029   7.167   1.282  1.4729  1.5776 -1.0585
 6633SOL    HW220710   1.111   7.069   1.201  1.2948  1.3093 -0.9170
 6634SOL     OW20711   6.009   4.096   3.786 -0.7628 -0.6381  0.0872
 6634SOL    HW120712   6.056   4.035   3.843  1.1826 -0.3339 -1.0802
 6634SOL    HW220713   6.014   4.056   3.700  2.7936  2.1271 -1.2450
 6635SOL     OW20714   4.740   1.661   1.127 -0.0985 -0.0358 -0.4558
 6635SOL    HW120715   4.792   1.597   1.177 -1.1308  0.0946  0.8541
 6635SOL    HW220716   4.759   1.641   1.036  0.6554 -1.3312 -0.0480
 6636SOL     OW20717   2.593   3.800   2.483 -0.2768 -0.3803  0.1456
 6636SOL    HW120718   2.579   3.758   2.568 -1.5323 -1.1296 -0.4059
 6636SOL    HW220719   2.633   3.732   2.429  0.5389  0.1019  0.1227
 6637SOL     OW20720   6.224   4.397   0.522 -0.4749  0.5182  0.2140
 6637SOL    HW120721   6.162   4.430   0.457 -0.0490  1.8132  0.4495
 6637SOL    HW220722   6.219   4.459   0.594 -0.8151 -0.8043  1.3768
 6638SOL     OW20723   7.871   2.385   1.459  0.4067  0.4560 -0.0732
 6638SOL    HW120724   7.881   2.469   1.415  0.0456  0.2495 -0.5628
 6638SOL    HW220725   7.960   2.358   1.481  0.4304  1.6778  1.4713
 6639SOL     OW20726   7.340   0.576   5.712  0.0319  0.1083  0.4734
 6639SOL    HW120727   7.264   0.546   5.662  0.5184 -1.7220  0.7476
 6639SOL    HW220728   7.407   0.593   5.646 -0.2055  0.4840  0.3229
 6640SOL     OW20729   2.704   3.318   1.726 -0.6218  0.2554  0.2153
 6640SOL    HW120730   2.633   3.325   1.663 -0.4196  2.3954  0.1541
 6640SOL    HW220731   2.674   3.252   1.789 -0.8793 -1.8415 -1.9757
 6641SOL     OW20732   2.241   7.714   5.258 -0.1040 -0.0252 -0.0015
 6641SOL    HW120733   2.216   7.781   5.194  1.0095 -0.5223 -0.9986
 6641SOL    HW220734   2.324   7.745   5.295 -0.1964 -0.2648  0.4159
 6642SOL     OW20735   1.768   5.131   2.709  0.3445  0.3707 -0.3659
 6642SOL    HW120736   1.816   5.214   2.701 -1.4210  1.3498 -1.5506
 6642SOL    HW220737   1.823   5.067   2.663  0.9745  1.2207 -0.8239
 6643SOL     OW20738   1.732   5.700   3.285 -0.1630  0.7505 -0.0711
 6643SOL    HW120739   1.721   5.615   3.328  0.1061  0.4108 -0.6654
 6643SOL    HW220740   1.646   5.741   3.290  0.1202  1.2539  1.8863
 6644SOL     OW20741   6.150   3.356   0.639 -0.0379  0.2275  0.0075
 6644SOL    HW120742   6.118   3.444   0.625 -1.1495 -0.2437 -0.5320
 6644SOL    HW220743   6.081   3.299   0.604  0.6492 -0.8507  0.3454
 6645SOL     OW20744   7.215   1.606   4.746 -0.3227  0.2694 -0.3321
 6645SOL    HW120745   7.131   1.559   4.749 -0.5162  0.6546  0.6582
 6645SOL    HW220746   7.245   1.595   4.656 -0.5743 -1.3859 -0.2528
 6646SOL     OW20747   7.640   1.458   1.197 -0.2943 -0.1310 -0.0090
 6646SOL    HW120748   7.675   1.547   1.189  0.0360 -0.3004 -0.5336
 6646SOL    HW220749   7.718   1.402   1.200 -0.3747 -0.2257  3.3587
 6647SOL     OW20750   2.689   6.154   2.440  0.2863  0.2295 -0.0359
 6647SOL    HW120751   2.670   6.068   2.403  0.0730  0.1895  0.1632
 6647SOL    HW220752   2.605   6.185   2.475  0.6732 -0.1583  1.2785
 6648SOL     OW20753   4.570   5.270   5.492  0.1692  0.1673 -0.2291
 6648SOL    HW120754   4.588   5.364   5.484  1.1658  0.1605  1.5664
 6648SOL    HW220755   4.534   5.246   5.406  0.4171  2.0608 -0.9184
 6649SOL     OW20756   4.895   4.263   2.824  0.2068  0.0796  0.5350
 6649SOL    HW120757   4.916   4.185   2.876 -1.9059 -0.5830  0.4654
 6649SOL    HW220758   4.957   4.329   2.855  0.6027 -0.9833  2.1778
 6650SOL     OW20759   0.822   7.095   4.243 -0.0864 -0.0816  0.0579
 6650SOL    HW120760   0.879   7.124   4.314  0.1781 -0.9329  0.2065
 6650SOL    HW220761   0.882   7.072   4.172 -0.2014 -1.2407  0.3061
 6651SOL     OW20762   6.112   3.366   7.629 -0.5100  0.0612 -0.0110
 6651SOL    HW120763   6.120   3.453   7.590 -1.1821  1.1793  2.1404
 6651SOL    HW220764   6.201   3.330   7.625 -0.4781  0.2904 -2.0652
 6652SOL     OW20765   0.373   3.155   7.912  0.1834  0.4593  0.6307
 6652SOL    HW120766   0.430   3.128   7.984  0.1059  1.9436  1.2876
 6652SOL    HW220767   0.285   3.154   7.950  0.0840  0.7532  0.4116
 6653SOL     OW20768   1.585   7.360   2.890  0.3916 -0.8321 -0.1030
 6653SOL    HW120769   1.530   7.436   2.910  1.2946 -0.2413  0.2074
 6653SOL    HW220770   1.633   7.344   2.972 -0.2518 -2.1459  0.0412
 6654SOL     OW20771   6.244   3.981   4.663  0.8069  0.1767  0.2888
 6654SOL    HW120772   6.282   4.047   4.722 -0.3037  1.8429 -0.7792
 6654SOL    HW220773   6.212   4.031   4.588  1.3094 -1.7790 -1.3149
 6655SOL     OW20774   2.742   0.816   7.358 -0.2343 -0.1171 -0.1089
 6655SOL    HW120775   2.738   0.813   7.454 -1.1768 -0.5611 -0.1431
 6655SOL    HW220776   2.828   0.781   7.336 -0.7170 -1.8254  0.5282
 6656SOL     OW20777   2.032   0.479   6.417 -0.2287 -0.0668  0.1502
 6656SOL    HW120778   1.979   0.531   6.477 -0.7455 -1.6541  1.1522
 6656SOL    HW220779   1.968   0.427   6.367  0.2614  0.2847 -0.8854
 6657SOL     OW20780   4.274   7.870   4.647  0.3929  0.1831  0.5188
 6657SOL    HW120781   4.336   7.923   4.597 -0.6180  0.8693 -0.0366
 6657SOL    HW220782   4.206   7.847   4.585 -0.2015 -0.0785  1.2519
 6658SOL     OW20783   5.762   2.053   5.602  0.4121  0.8506  1.1889
 6658SOL    HW120784   5.800   2.139   5.583  0.8294  0.1008 -1.8413
 6658SOL    HW220785   5.837   2.000   5.632  0.5992  0.9488  0.8999
 6659SOL     OW20786   5.967   6.731   7.408  0.5859  0.5217 -0.0885
 6659SOL    HW120787   6.011   6.652   7.439 -1.3363 -0.8557 -0.6836
 6659SOL    HW220788   5.961   6.787   7.485  0.6386 -0.5763  0.7402
 6660SOL     OW20789   1.802   3.824   2.304  0.5276  0.2015  0.2016
 6660SOL    HW120790   1.797   3.820   2.208 -3.4515 -0.2714  0.2579
 6660SOL    HW220791   1.809   3.733   2.331 -1.2013  0.0783  0.3335
 6661SOL     OW20792   6.685   0.385   5.581 -0.0411 -0.0099 -0.0691
 6661SOL    HW120793   6.646   0.396   5.667 -0.5762  1.8896 -0.5190
 6661SOL    HW220794   6.769   0.343   5.598 -0.4521 -0.3448  1.2844
 6662SOL     OW20795   0.834   6.752   4.581  0.3840 -0.4327 -0.0156
 6662SOL    HW120796   0.904   6.790   4.635  1.3031  1.4423 -2.3689
 6662SOL    HW220797   0.762   6.814   4.587 -0.5570 -1.5599  1.0948
 6663SOL     OW20798   5.789   6.079   0.262 -0.4841 -0.1992  0.1648
 6663SOL    HW120799   5.879   6.108   0.247 -0.8279  0.1863 -1.2629
 6663SOL    HW220800   5.755   6.141   0.327  0.0635  0.1022  0.1727
 6664SOL     OW20801   6.168   5.227   2.741 -0.6768  0.0246  0.3422
 6664SOL    HW120802   6.094   5.287   2.748 -0.2743  0.5672  0.0779
 6664SOL    HW220803   6.238   5.270   2.790  0.2411  0.8001 -1.5121
 6665SOL     OW20804   3.983   2.721   4.443  0.7268 -0.3467 -0.1865
 6665SOL    HW120805   3.933   2.729   4.362  0.9371 -2.8650 -0.6487
 6665SOL    HW220806   3.934   2.773   4.506 -1.0158 -0.5958 -1.2524
 6666SOL     OW20807   7.715   4.673   2.476 -0.1439 -0.5581  0.4576
 6666SOL    HW120808   7.724   4.621   2.396 -0.0580 -0.3442  0.3250
 6666SOL    HW220809   7.640   4.635   2.522 -1.4123  0.4960 -0.6501
 6667SOL     OW20810   4.326   5.376   6.674  0.7305  0.2042 -0.5878
 6667SOL    HW120811   4.370   5.291   6.667 -1.5741 -1.2397  1.0023
 6667SOL    HW220812   4.389   5.432   6.719  1.2911 -1.5176  0.9031
 6668SOL     OW20813   6.549   2.826   3.391 -0.0477 -0.1187 -0.0985
 6668SOL    HW120814   6.507   2.831   3.477 -1.5098 -1.5986 -0.6662
 6668SOL    HW220815   6.483   2.786   3.334  0.3319  2.1233 -2.3058
 6669SOL     OW20816   1.803   4.667   0.690 -0.2131  0.0226 -0.3172
 6669SOL    HW120817   1.828   4.642   0.601 -1.6244  0.7520 -0.9631
 6669SOL    HW220818   1.761   4.589   0.726 -0.1797 -0.0887 -0.5169
 6670SOL     OW20819   6.428   4.073   6.982 -0.0539  0.0461  0.7033
 6670SOL    HW120820   6.446   4.031   6.898 -2.3287 -1.3335  0.8304
 6670SOL    HW220821   6.472   4.158   6.976 -1.2813  0.5914 -2.4279
 6671SOL     OW20822   6.710   0.105   4.116  0.4066 -0.4400  0.1839
 6671SOL    HW120823   6.657   0.120   4.194 -0.3778 -1.8030 -0.0696
 6671SOL    HW220824   6.767   0.031   4.140 -0.0948 -1.1020 -0.6545
 6672SOL     OW20825   1.651   4.621   4.323 -0.1386 -0.0445  0.1418
 6672SOL    HW120826   1.562   4.651   4.339 -0.9365 -2.3408  0.3156
 6672SOL    HW220827   1.662   4.628   4.228 -1.1969 -1.4700 -0.1117
 6673SOL     OW20828   1.080   3.390   6.747  0.1698 -0.3959  0.2270
 6673SOL    HW120829   1.162   3.428   6.778  0.1832 -0.3879  0.1823
 6673SOL    HW220830   1.106   3.305   6.710  0.1631 -0.3789  0.1831
 6674SOL     OW20831   5.031   7.286   7.732  0.2942  0.1000 -0.0306
 6674SOL    HW120832   5.087   7.234   7.790 -0.2649  0.8235  1.2031
 6674SOL    HW220833   5.041   7.376   7.764 -0.5059  0.4297 -0.6743
 6675SOL     OW20834   1.842   1.518   7.909 -0.7108  0.0193  0.0942
 6675SOL    HW120835   1.926   1.542   7.947  0.3565  0.5035 -2.3754
 6675SOL    HW220836   1.845   1.423   7.901 -0.0824  0.0876 -0.5901
 6676SOL     OW20837   4.024   5.135   1.318 -0.2460  0.1174 -0.0803
 6676SOL    HW120838   4.057   5.047   1.334  0.0129  0.4557  1.4094
 6676SOL    HW220839   3.982   5.161   1.400  0.5738  1.7677 -0.1292
 6677SOL     OW20840   4.376   3.103   4.618  0.3641  0.1004 -0.3628
 6677SOL    HW120841   4.371   3.124   4.525  1.6420 -0.8934 -0.6890
 6677SOL    HW220842   4.400   3.010   4.620  0.1472  0.0586  0.9608
 6678SOL     OW20843   2.727   2.474   3.202  0.5580  0.2554  0.4279
 6678SOL    HW120844   2.763   2.427   3.277 -0.9020 -1.2029  0.2865
 6678SOL    HW220845   2.792   2.540   3.181  1.9387 -0.6353  1.7026
 6679SOL     OW20846   2.461   7.490   2.694  0.2658  0.4287  0.2408
 6679SOL    HW120847   2.378   7.538   2.694 -0.2955 -0.3292  3.0223
 6679SOL    HW220848   2.436   7.398   2.698  1.3293 -0.1614 -3.3417
 6680SOL     OW20849   7.936   2.316   3.920  0.2899 -0.2694 -0.0417
 6680SOL    HW120850   7.920   2.233   3.876  0.1497 -0.4057  0.2609
 6680SOL    HW220851   7.858   2.330   3.974 -0.1096  0.5407 -0.8179
 6681SOL     OW20852   0.714   5.816   6.826 -0.5666 -0.2901  0.4001
 6681SOL    HW120853   0.647   5.884   6.827  0.5586  0.8794  1.8332
 6681SOL    HW220854   0.738   5.807   6.734 -0.5315  1.5326  0.1946
 6682SOL     OW20855   7.249   4.110   2.259  0.2613  0.2606  0.7630
 6682SOL    HW120856   7.240   4.074   2.171 -0.6265  1.1778  0.4630
 6682SOL    HW220857   7.164   4.096   2.301  0.4266  0.5226  1.2000
 6683SOL     OW20858   7.140   5.624   4.513 -0.1311  0.0561  0.3422
 6683SOL    HW120859   7.215   5.569   4.538  0.7245  0.2286 -1.6774
 6683SOL    HW220860   7.177   5.711   4.502 -0.6999  0.2273 -0.2591
 6684SOL     OW20861   2.318   4.007   6.841  0.4840 -0.7791  0.7049
 6684SOL    HW120862   2.274   3.984   6.759  3.1895 -1.2950 -0.7326
 6684SOL    HW220863   2.267   3.963   6.909 -2.5242  0.6006 -0.4826
 6685SOL     OW20864   4.573   3.527   0.556  0.2035  0.3225 -0.5099
 6685SOL    HW120865   4.531   3.479   0.627  0.8642  2.6504  1.5781
 6685SOL    HW220866   4.660   3.548   0.589 -0.4722  4.0081 -0.7015
 6686SOL     OW20867   1.405   1.173   7.682  0.0008 -0.0918  0.9694
 6686SOL    HW120868   1.369   1.158   7.769 -0.3174 -4.9844  0.2436
 6686SOL    HW220869   1.328   1.182   7.625  0.0975 -1.2802  0.6409
 6687SOL     OW20870   4.987   2.045   1.285 -0.3460  0.7057  0.2408
 6687SOL    HW120871   5.040   2.012   1.213  2.5225  0.0110  2.5098
 6687SOL    HW220872   4.917   2.094   1.242 -1.2772 -3.0077 -3.1426
 6688SOL     OW20873   0.738   4.024   5.502 -0.0089  0.1366 -0.0875
 6688SOL    HW120874   0.702   3.959   5.563  0.5771 -1.5797 -1.5028
 6688SOL    HW220875   0.809   4.065   5.551 -1.0200  0.4705  1.1807
 6689SOL     OW20876   5.080   7.986   3.696 -0.0549 -0.3405 -0.1063
 6689SOL    HW120877   5.124   7.948   3.621 -0.8956 -1.3470 -0.1016
 6689SOL    HW220878   5.146   7.985   3.766 -0.0421 -1.7165 -0.1289
 6690SOL     OW20879   0.520   3.566   4.262 -0.7324 -0.0634  0.1762
 6690SOL    HW120880   0.448   3.563   4.326 -0.8468 -0.7038  0.0190
 6690SOL    HW220881   0.591   3.517   4.303 -0.7867 -0.4293 -0.1638
 6691SOL     OW20882   1.702   1.047   6.793  0.0454 -0.2115 -0.4117
 6691SOL    HW120883   1.778   1.086   6.749 -1.6319  0.9605 -2.4289
 6691SOL    HW220884   1.663   0.990   6.728 -1.9699  0.8283 -0.1901
 6692SOL     OW20885   3.255   4.506   2.632 -0.5313  0.0694 -0.4794
 6692SOL    HW120886   3.226   4.555   2.555 -0.8906 -0.6733 -0.8262
 6692SOL    HW220887   3.231   4.415   2.613  0.8652 -0.3874 -0.2130
 6693SOL     OW20888   3.603   5.453   7.803  0.2231  0.0118  0.0765
 6693SOL    HW120889   3.643   5.540   7.798 -0.4521  0.3523  0.4253
 6693SOL    HW220890   3.657   5.406   7.867 -0.2303  0.6353  0.9367
 6694SOL     OW20891   4.941   3.468   7.936 -0.3771 -0.1335 -0.4285
 6694SOL    HW120892   4.984   3.502   8.015  0.6192 -1.3554 -0.4133
 6694SOL    HW220893   4.850   3.451   7.963 -0.1769 -0.0405  0.3099
 6695SOL     OW20894   4.907   2.222   0.432 -0.5541 -0.5270  0.3308
 6695SOL    HW120895   4.909   2.302   0.484  0.8966  0.3432 -0.9824
 6695SOL    HW220896   4.849   2.241   0.359 -1.6814 -1.3505  0.9820
 6696SOL     OW20897   1.991   0.480   7.269  0.4516 -0.8471 -0.2359
 6696SOL    HW120898   1.983   0.432   7.186  1.2170  0.5020 -1.1061
 6696SOL    HW220899   1.958   0.568   7.250 -1.8778 -1.1890  1.5908
 6697SOL     OW20900   1.412   6.103   4.872  0.3163  0.3483  0.0541
 6697SOL    HW120901   1.364   6.044   4.814  0.5821  1.3371 -1.2320
 6697SOL    HW220902   1.382   6.080   4.960 -1.4005 -0.0765 -0.5902
 6698SOL     OW20903   5.128   6.904   2.422  0.0023 -0.3452  0.4096
 6698SOL    HW120904   5.043   6.891   2.381  0.7186 -1.1785 -0.8650
 6698SOL    HW220905   5.118   6.867   2.510 -1.1054  0.1092  0.4985
 6699SOL     OW20906   3.334   5.476   5.371 -0.0364 -0.4590 -0.3276
 6699SOL    HW120907   3.316   5.441   5.285 -1.4160 -0.6251  0.0134
 6699SOL    HW220908   3.274   5.549   5.381 -1.0102 -1.4005  1.0818
 6700SOL     OW20909   1.280   0.148   6.574  0.0178 -0.9710  0.0308
 6700SOL    HW120910   1.360   0.098   6.590 -0.1804 -0.7180  2.0248
 6700SOL    HW220911   1.209   0.091   6.603 -0.2994 -0.0743  1.0873
 6701SOL     OW20912   5.469   7.508   0.730  0.2414 -0.2973 -0.0861
 6701SOL    HW120913   5.426   7.538   0.810 -0.1280 -0.7514 -0.1122
 6701SOL    HW220914   5.561   7.496   0.756  0.3711  0.6868 -0.0339
 6702SOL     OW20915   1.066   7.225   3.333 -0.3807  0.0558 -0.0451
 6702SOL    HW120916   0.984   7.181   3.352  0.3310 -1.0473  0.6032
 6702SOL    HW220917   1.067   7.302   3.390 -1.5883  0.9011 -1.1105
 6703SOL     OW20918   3.346   5.332   2.955  0.5924  0.8107  0.4836
 6703SOL    HW120919   3.409   5.299   2.891  2.0011  2.1635  1.1186
 6703SOL    HW220920   3.337   5.261   3.018  0.7819  0.2619 -0.0974
 6704SOL     OW20921   5.690   5.236   7.424  0.0518  0.5460  0.2691
 6704SOL    HW120922   5.758   5.274   7.368 -0.0843  0.3810 -0.0060
 6704SOL    HW220923   5.609   5.245   7.374  0.1345 -0.8308 -0.1396
 6705SOL     OW20924   6.007   0.405   0.355  0.4248  0.1292 -0.2251
 6705SOL    HW120925   6.004   0.410   0.451  0.9245  0.0537 -0.2036
 6705SOL    HW220926   5.949   0.475   0.325  0.8657  0.6448  0.1262
 6706SOL     OW20927   7.778   2.854   1.401 -0.1756 -0.3446  0.0181
 6706SOL    HW120928   7.780   2.935   1.452  1.3231 -0.2907 -0.0637
 6706SOL    HW220929   7.700   2.809   1.431 -0.5119  0.6894  0.7796
 6707SOL     OW20930   0.430   7.295   0.864  0.5012 -0.0715 -0.3972
 6707SOL    HW120931   0.510   7.345   0.884  0.3334  0.4785 -1.0585
 6707SOL    HW220932   0.433   7.282   0.769 -0.7410  0.9217 -0.5946
 6708SOL     OW20933   5.911   1.181   1.602  0.1106  0.6639 -0.1878
 6708SOL    HW120934   5.882   1.244   1.667  0.8636  0.5158  0.3029
 6708SOL    HW220935   5.897   1.225   1.518 -0.8539  0.8615  0.0618
 6709SOL     OW20936   7.725   6.332   3.882  0.4459 -0.0662 -0.0097
 6709SOL    HW120937   7.787   6.261   3.900  0.5052  0.0866  0.3987
 6709SOL    HW220938   7.697   6.317   3.791 -0.2428 -1.1610  0.3520
 6710SOL     OW20939   4.053   3.099   1.627  0.2406  0.0230 -0.6265
 6710SOL    HW120940   4.105   3.020   1.614  0.7466  0.3032 -0.3301
 6710SOL    HW220941   4.096   3.165   1.573 -0.1666  0.1033 -0.8546
 6711SOL     OW20942   3.735   0.700   3.252 -0.3726 -0.1389  0.1943
 6711SOL    HW120943   3.714   0.731   3.340 -1.4557  0.8291 -0.3673
 6711SOL    HW220944   3.811   0.752   3.225 -1.5371  1.3637 -0.3405
 6712SOL     OW20945   0.588   0.003   1.950  0.3511 -0.2947 -0.1959
 6712SOL    HW120946   0.584   0.083   2.001 -0.0512 -0.7123  0.4412
 6712SOL    HW220947   0.545  -0.063   2.004  1.5983 -1.1921 -0.2238
 6713SOL     OW20948   4.858   2.027   0.956  0.2375 -0.2955  0.6426
 6713SOL    HW120949   4.874   2.079   0.877 -1.5050  0.4385  0.7167
 6713SOL    HW220950   4.858   2.091   1.027  0.1571 -0.7137  1.0252
 6714SOL     OW20951   6.858   4.225   0.452 -0.2030 -0.0027  0.2207
 6714SOL    HW120952   6.819   4.190   0.532 -1.3551 -0.3559 -0.4710
 6714SOL    HW220953   6.951   4.231   0.472 -0.3045 -1.1896  1.1936
 6715SOL     OW20954   3.717   2.891   5.319  0.3032  0.0518  0.0531
 6715SOL    HW120955   3.755   2.896   5.232 -0.4838 -0.8529 -0.3485
 6715SOL    HW220956   3.785   2.849   5.372  0.1552 -0.8864 -0.4921
 6716SOL     OW20957   1.380   3.029   2.037  0.4129 -0.4544  0.1074
 6716SOL    HW120958   1.366   2.935   2.037  0.1794 -0.4395 -1.2471
 6716SOL    HW220959   1.448   3.043   1.971  0.4733  0.3235  0.3239
 6717SOL     OW20960   2.568   5.083   1.007 -0.0733 -0.0469  0.1937
 6717SOL    HW120961   2.582   5.137   0.929 -2.8307  0.7635  0.1398
 6717SOL    HW220962   2.488   5.035   0.989  0.0845 -1.0428  1.9198
 6718SOL     OW20963   4.083   2.716   7.653  0.6313 -0.3417 -0.1887
 6718SOL    HW120964   4.136   2.732   7.732 -0.5158 -0.7816  0.6882
 6718SOL    HW220965   4.032   2.637   7.673 -0.2091 -0.0485 -1.0905
 6719SOL     OW20966   1.659   2.536   7.675  0.5450 -0.4172  0.2140
 6719SOL    HW120967   1.634   2.444   7.685 -0.8899 -0.3329 -1.9197
 6719SOL    HW220968   1.751   2.539   7.703  0.4603 -2.3634  0.8594
 6720SOL     OW20969   2.963   2.521   6.836  0.7848 -0.0686 -0.3085
 6720SOL    HW120970   3.047   2.567   6.835  1.0265 -0.5076 -0.1607
 6720SOL    HW220971   2.898   2.591   6.828  1.0888  0.4534  1.4450
 6721SOL     OW20972   4.663   3.761   6.795 -0.0604 -0.4945  0.1029
 6721SOL    HW120973   4.750   3.785   6.764 -0.7407  0.8275 -0.9029
 6721SOL    HW220974   4.615   3.736   6.715 -1.2630  1.0399  0.2912
 6722SOL     OW20975   1.943   1.152   0.422 -0.1442 -0.1708  0.0607
 6722SOL    HW120976   1.960   1.245   0.409 -0.2723  0.0389  1.2344
 6722SOL    HW220977   2.030   1.114   0.441 -0.1141 -0.2576 -0.2545
 6723SOL     OW20978   3.776   5.308   6.826 -0.3997  0.4677 -0.1160
 6723SOL    HW120979   3.742   5.242   6.766  1.3723 -0.3956 -0.2291
 6723SOL    HW220980   3.775   5.266   6.912 -0.6850  0.8445  0.0701
 6724SOL     OW20981   2.225   7.999   1.051  0.0716 -0.0969 -0.5932
 6724SOL    HW120982   2.292   8.060   1.084 -0.3502  0.0296  0.0517
 6724SOL    HW220983   2.170   8.053   0.994 -1.1796  0.5349  1.1122
 6725SOL     OW20984   0.865   1.273   5.473 -0.5155  0.2144  0.2837
 6725SOL    HW120985   0.854   1.260   5.379  1.1378  1.6118 -0.1536
 6725SOL    HW220986   0.779   1.305   5.503 -1.0601 -0.2623 -0.7420
 6726SOL     OW20987   7.802   5.522   1.114 -0.0641  0.3949  0.4543
 6726SOL    HW120988   7.718   5.501   1.074 -0.6081  1.3335  1.0812
 6726SOL    HW220989   7.860   5.538   1.039 -0.3523 -0.5252  0.0177
 6727SOL     OW20990   6.080   2.062   1.453  0.0763 -0.1510  0.0312
 6727SOL    HW120991   6.005   2.055   1.394  0.3589 -0.2030 -0.3244
 6727SOL    HW220992   6.140   1.995   1.424  0.8121  0.7208 -0.4978
 6728SOL     OW20993   6.506   6.641   3.087  0.5127  0.0161  0.1077
 6728SOL    HW120994   6.516   6.564   3.144  1.5569  1.6471  2.2541
 6728SOL    HW220995   6.413   6.642   3.063  0.0824 -0.8237  1.6506
 6729SOL     OW20996   7.796   6.049   1.793 -0.5666  0.3271 -0.0931
 6729SOL    HW120997   7.783   6.059   1.887 -1.5696 -1.4908 -0.0020
 6729SOL    HW220998   7.717   6.084   1.753  0.2989  2.0793 -0.3643
 6730SOL     OW20999   4.420   2.718   6.961 -0.0540 -0.2861 -1.0792
 6730SOL    HW121000   4.376   2.634   6.947  0.5493 -0.6330 -0.8923
 6730SOL    HW221001   4.512   2.701   6.943  0.5973 -0.4451  1.8970
 6731SOL     OW21002   2.992   0.555   0.046  0.7112  0.1779  0.0706
 6731SOL    HW121003   2.930   0.489   0.016  2.7595 -2.3672  1.0346
 6731SOL    HW221004   2.945   0.638   0.038 -1.8068 -1.2886 -1.7574
 6732SOL     OW21005   5.675   4.705   2.969 -0.6661 -0.5310  0.1313
 6732SOL    HW121006   5.720   4.682   2.888 -1.1989  0.1163 -0.3724
 6732SOL    HW221007   5.595   4.652   2.968 -0.8092 -0.3177  0.0861
 6733SOL     OW21008   7.732   7.549   5.636  0.0414  0.0769  0.5016
 6733SOL    HW121009   7.698   7.575   5.722 -1.6732 -2.0246  0.5373
 6733SOL    HW221010   7.819   7.513   5.655  0.5075  1.4461  1.0549
 6734SOL     OW21011   0.732   1.832   4.506  0.5611  0.5438  0.0825
 6734SOL    HW121012   0.794   1.759   4.510 -2.2971 -1.9957  2.1459
 6734SOL    HW221013   0.701   1.832   4.415  0.6028 -0.8798  0.0491
 6735SOL     OW21014   6.762   7.137   1.719 -0.2048  0.5269  0.3712
 6735SOL    HW121015   6.730   7.125   1.629 -0.9067  0.0547  0.6782
 6735SOL    HW221016   6.773   7.049   1.753  3.3147  0.5597 -0.3240
 6736SOL     OW21017   5.681   3.157   4.383 -0.4799  0.0890 -0.0363
 6736SOL    HW121018   5.708   3.069   4.354 -0.3210 -0.0322  0.4628
 6736SOL    HW221019   5.590   3.165   4.355 -0.1947  0.1539 -0.9606
 6737SOL     OW21020   3.761   0.656   0.904 -0.2265 -0.2487  0.0270
 6737SOL    HW121021   3.842   0.707   0.906  1.6938 -2.8396 -2.3524
 6737SOL    HW221022   3.709   0.698   0.835 -0.0498  0.3107  0.2286
 6738SOL     OW21023   1.037   6.807   0.381 -0.1115 -0.3180  0.2272
 6738SOL    HW121024   1.079   6.725   0.406 -1.4457 -0.8697  0.7599
 6738SOL    HW221025   0.962   6.815   0.440 -1.2681  0.1589 -1.2149
 6739SOL     OW21026   6.926   0.372   2.040  0.3347  0.5246  0.3932
 6739SOL    HW121027   6.913   0.350   2.133  1.9678 -0.6982  0.3670
 6739SOL    HW221028   7.000   0.432   2.040 -0.3075  1.3334 -0.0591
 6740SOL     OW21029   3.206   7.106   0.782 -0.4221 -0.2815 -0.1000
 6740SOL    HW121030   3.212   7.062   0.867 -4.1485 -0.8497  0.0595
 6740SOL    HW221031   3.212   7.035   0.718  0.9187 -0.0377 -0.2596
 6741SOL     OW21032   2.458   7.724   1.418 -0.1446 -0.4686 -0.3502
 6741SOL    HW121033   2.409   7.801   1.389 -0.2298  0.4214  1.9092
 6741SOL    HW221034   2.477   7.742   1.510  2.2222 -1.9520 -0.4736
 6742SOL     OW21035   4.095   0.409   5.566 -0.2925 -0.1313  0.2478
 6742SOL    HW121036   4.007   0.374   5.553 -0.3585 -0.7174  1.9660
 6742SOL    HW221037   4.091   0.499   5.533 -0.3697 -1.3141 -3.4526
 6743SOL     OW21038   7.684   4.459   5.643  0.0422  0.0442 -0.0471
 6743SOL    HW121039   7.731   4.484   5.563 -1.1539 -0.1327 -0.8374
 6743SOL    HW221040   7.743   4.400   5.688  0.4598 -0.4317 -1.1779
 6744SOL     OW21041   0.578   4.436   6.860  0.2956  0.2930 -0.0793
 6744SOL    HW121042   0.499   4.486   6.882 -0.0894  0.0435 -0.8534
 6744SOL    HW221043   0.545   4.352   6.829  0.8360  0.3917 -0.9589
 6745SOL     OW21044   2.316   0.797   1.843  0.2502  0.1182 -0.0575
 6745SOL    HW121045   2.314   0.862   1.913 -0.1463  0.2387 -0.1786
 6745SOL    HW221046   2.318   0.713   1.889 -0.2548  0.1895  0.1001
 6746SOL     OW21047   6.190   4.499   3.659 -0.3629  0.2847  0.1692
 6746SOL    HW121048   6.168   4.434   3.593 -2.0694  0.3341  0.6508
 6746SOL    HW221049   6.137   4.575   3.637  0.4109  0.9502  0.5511
 6747SOL     OW21050   3.306   1.654   7.904 -0.3413 -0.0841 -0.0999
 6747SOL    HW121051   3.308   1.573   7.853 -1.3317 -1.6474  2.1686
 6747SOL    HW221052   3.322   1.723   7.840  0.2735 -2.0320 -2.1815
 6748SOL     OW21053   6.936   3.686   3.916 -0.0572  0.0575  0.1218
 6748SOL    HW121054   6.879   3.655   3.846  0.1037 -1.0227  0.4498
 6748SOL    HW221055   6.980   3.607   3.948  0.7695  0.7052  0.6354
 6749SOL     OW21056   1.229   0.203   2.405 -0.3883 -0.0122  0.1152
 6749SOL    HW121057   1.234   0.138   2.335 -0.5625  0.2529 -0.1464
 6749SOL    HW221058   1.311   0.192   2.453  0.3157  0.6416 -0.8852
 6750SOL     OW21059   4.335   3.301   1.948  0.3187  0.1267  0.3893
 6750SOL    HW121060   4.354   3.292   1.855  0.0264 -1.3569  0.4458
 6750SOL    HW221061   4.251   3.347   1.952 -0.4175 -1.1356 -0.1454
 6751SOL     OW21062   4.238   3.425   0.982  0.2238  0.1759  0.1333
 6751SOL    HW121063   4.154   3.471   0.973  0.7079  0.7510 -2.1385
 6751SOL    HW221064   4.223   3.340   0.941  1.0485  0.7558 -1.4540
 6752SOL     OW21065   3.399   0.053   3.325  0.0287  0.8662  0.0330
 6752SOL    HW121066   3.384  -0.015   3.259 -0.5839  0.9160  0.1174
 6752SOL    HW221067   3.396   0.135   3.276  0.1543  0.8669  0.0279
 6753SOL     OW21068   6.714   7.383   3.898 -0.0592 -0.0471 -0.6843
 6753SOL    HW121069   6.647   7.437   3.856 -0.0272 -0.0234 -0.7049
 6753SOL    HW221070   6.776   7.361   3.828  0.7742  1.1833 -0.3640
 6754SOL     OW21071   5.568   5.741   1.172 -0.6379 -0.0709 -0.0037
 6754SOL    HW121072   5.624   5.693   1.233 -0.8790 -0.7780 -0.3318
 6754SOL    HW221073   5.612   5.825   1.160 -1.5104  0.8662  2.5854
 6755SOL     OW21074   3.258   3.795   5.958  0.2453 -0.3270  0.3037
 6755SOL    HW121075   3.255   3.700   5.944 -1.1041 -0.2896  0.2952
 6755SOL    HW221076   3.345   3.820   5.925 -0.0242 -1.3128 -1.3032
 6756SOL     OW21077   2.147   7.121   6.493  0.1086  0.1761  0.4515
 6756SOL    HW121078   2.097   7.170   6.558 -1.3072  0.1126 -0.5455
 6756SOL    HW221079   2.139   7.173   6.413 -1.1036 -1.4503 -0.5266
 6757SOL     OW21080   1.856   5.092   1.526 -0.1962 -0.1482  0.3569
 6757SOL    HW121081   1.782   5.059   1.577  1.3778 -2.6771  1.2243
 6757SOL    HW221082   1.914   5.133   1.592  0.0327  0.1461 -0.0216
 6758SOL     OW21083   7.972   0.499   1.240  0.1627 -0.3939 -0.2344
 6758SOL    HW121084   7.994   0.430   1.177 -1.9070 -1.3598  0.0308
 6758SOL    HW221085   8.001   0.463   1.325 -0.5195 -0.7584 -0.1527
 6759SOL     OW21086   2.349   7.876   0.713  0.0846  0.1798  0.4649
 6759SOL    HW121087   2.283   7.848   0.650 -1.7759  0.2756  2.2253
 6759SOL    HW221088   2.330   7.823   0.791  2.0147  0.3455  1.0807
 6760SOL     OW21089   2.694   5.398   1.420 -0.4114  0.4070  0.8875
 6760SOL    HW121090   2.616   5.384   1.473 -1.6085 -1.6639 -1.2173
 6760SOL    HW221091   2.734   5.312   1.412  2.1549  1.4054  1.8766
 6761SOL     OW21092   2.458   3.871   6.388  0.6168  0.9072  0.2228
 6761SOL    HW121093   2.504   3.887   6.305 -0.0756 -0.3262 -0.4339
 6761SOL    HW221094   2.365   3.873   6.364  0.4128  0.3501  0.9255
 6762SOL     OW21095   1.636   1.434   7.210  0.0830  0.3877 -0.5819
 6762SOL    HW121096   1.548   1.398   7.219  0.3581 -0.1931 -0.1860
 6762SOL    HW221097   1.668   1.441   7.300  0.8872 -0.5246 -0.7907
 6763SOL     OW21098   2.960   3.708   5.306 -0.5669 -0.4468  0.0685
 6763SOL    HW121099   2.891   3.770   5.281  0.4627  0.4797 -0.5500
 6763SOL    HW221100   3.023   3.761   5.355  0.1129 -1.1007 -0.0841
 6764SOL     OW21101   6.563   4.362   6.438  0.1206 -0.2835 -0.3199
 6764SOL    HW121102   6.525   4.327   6.518  0.4566  0.1206  0.0195
 6764SOL    HW221103   6.546   4.295   6.372  0.0460 -0.7208  0.1385
 6765SOL     OW21104   6.392   5.996   6.313  0.1396  0.5088 -0.6827
 6765SOL    HW121105   6.342   5.983   6.233 -0.3204  0.4809 -0.3909
 6765SOL    HW221106   6.368   6.084   6.343  1.3696  1.0904 -1.3208
 6766SOL     OW21107   5.167   6.748   3.373 -0.4301  0.6986 -0.5639
 6766SOL    HW121108   5.188   6.671   3.321  1.1970 -0.4669  1.6452
 6766SOL    HW221109   5.076   6.737   3.398 -0.4400 -0.0961 -0.9415
 6767SOL     OW21110   2.238   7.176   5.278 -0.0156 -0.6424  0.4365
 6767SOL    HW121111   2.318   7.195   5.327  0.4437 -2.0938  0.2915
 6767SOL    HW221112   2.268   7.127   5.201 -0.9115  0.0411 -0.3755
 6768SOL     OW21113   2.942   1.326   6.353  0.3446  0.2750 -0.0860
 6768SOL    HW121114   2.962   1.300   6.443 -0.6663  0.2523  0.1364
 6768SOL    HW221115   2.894   1.408   6.361 -1.2155 -0.5601 -0.4956
 6769SOL     OW21116   7.562   5.459   4.889 -0.0483 -0.7753 -0.0005
 6769SOL    HW121117   7.485   5.470   4.944  0.8340 -1.1439  1.3563
 6769SOL    HW221118   7.627   5.519   4.926  1.0527 -2.1281  0.3263
 6770SOL     OW21119   1.702   3.163   1.576  0.0168  0.1546 -0.1280
 6770SOL    HW121120   1.762   3.233   1.601 -0.1026  1.1170 -2.3659
 6770SOL    HW221121   1.616   3.196   1.598  0.0976 -0.2361  0.8437
 6771SOL     OW21122   2.976   0.760   5.040  0.6503 -0.8222 -0.2766
 6771SOL    HW121123   2.984   0.775   4.946  2.4886 -4.5014 -0.9139
 6771SOL    HW221124   3.008   0.670   5.053  0.4508 -0.5150  3.8862
 6772SOL     OW21125   7.860   4.395   4.469  0.2143  0.0512 -0.0208
 6772SOL    HW121126   7.863   4.381   4.374  2.0858  0.0519 -0.0120
 6772SOL    HW221127   7.903   4.480   4.482 -1.2075  0.6818  0.7549
 6773SOL     OW21128   7.698   1.627   0.957  0.1445 -0.3997  0.1994
 6773SOL    HW121129   7.609   1.632   0.993  0.5801  1.7897  1.0996
 6773SOL    HW221130   7.688   1.657   0.866 -0.1886 -1.2545 -0.0592
 6774SOL     OW21131   4.975   1.956   7.649  0.0922  0.0701  0.3975
 6774SOL    HW121132   4.886   1.939   7.680  0.1780  1.1525  1.3057
 6774SOL    HW221133   5.022   1.984   7.727  0.2758  3.1213 -0.6746
 6775SOL     OW21134   0.302   4.909   2.000  0.3287  0.5871  0.5514
 6775SOL    HW121135   0.290   4.945   1.913 -1.0076  0.3218  0.6036
 6775SOL    HW221136   0.228   4.943   2.051  0.1368 -0.6131  1.1196
 6776SOL     OW21137   0.037   5.135   0.152  0.5314  0.6120 -0.6985
 6776SOL    HW121138   0.042   5.157   0.245  1.0322 -0.6778 -0.4086
 6776SOL    HW221139  -0.039   5.078   0.145  1.8452 -1.2201 -0.6478
 6777SOL     OW21140   5.935   2.926   2.434  0.1297  0.0005  0.3391
 6777SOL    HW121141   5.880   2.912   2.357  1.4495 -1.9099 -0.3358
 6777SOL    HW221142   5.889   2.882   2.505  0.1864 -0.5522  0.0410
 6778SOL     OW21143   4.224   2.155   0.367 -0.6345  0.1560 -0.1265
 6778SOL    HW121144   4.315   2.182   0.377 -0.7060 -0.1242  1.5217
 6778SOL    HW221145   4.181   2.231   0.328 -0.0415  0.9677  0.7648
 6779SOL     OW21146   2.756   6.772   5.126  0.2576  0.6779  0.0161
 6779SOL    HW121147   2.719   6.737   5.045  1.9742 -0.3566 -0.3763
 6779SOL    HW221148   2.764   6.866   5.110 -1.4035  0.8355 -0.1526
 6780SOL     OW21149   1.074   1.327   7.338 -0.1671 -0.3033  0.5716
 6780SOL    HW121150   1.100   1.376   7.260  0.2465 -2.0441 -0.4082
 6780SOL    HW221151   0.979   1.339   7.343  0.0801  2.0452  1.4149
 6781SOL     OW21152   1.412   6.008   2.898  0.0420  0.4643  0.0645
 6781SOL    HW121153   1.462   5.972   2.825 -1.0513  0.4533 -0.6919
 6781SOL    HW221154   1.321   6.008   2.868 -0.4274  0.4742  1.4159
 6782SOL     OW21155   4.443   4.566   6.117  0.0074 -0.3956 -0.4991
 6782SOL    HW121156   4.451   4.565   6.022 -3.4297  0.8800 -0.9554
 6782SOL    HW221157   4.351   4.543   6.133  0.2030  0.5019  2.4438
 6783SOL     OW21158   0.942   3.394   2.708  0.2566  0.1855  0.0423
 6783SOL    HW121159   0.938   3.483   2.673 -1.5371  0.2919  0.3973
 6783SOL    HW221160   0.951   3.405   2.803  1.5026 -0.0498 -0.0356
 6784SOL     OW21161   2.859   4.443   5.989  0.2167 -1.0148 -0.7199
 6784SOL    HW121162   2.859   4.459   6.083  1.6791 -2.7844 -0.3624
 6784SOL    HW221163   2.952   4.451   5.964 -0.3048  0.9669 -2.3421
 6785SOL     OW21164   0.957   4.368   3.044 -0.5195 -0.2583  0.3009
 6785SOL    HW121165   0.955   4.454   3.085 -0.0607 -0.0304 -0.1329
 6785SOL    HW221166   0.865   4.347   3.027 -0.5569  0.9250 -1.1619
 6786SOL     OW21167   5.001   5.028   0.194  0.2479 -0.4355  0.0700
 6786SOL    HW121168   5.071   5.043   0.257 -0.7312 -3.4217  2.1323
 6786SOL    HW221169   4.940   5.100   0.209  1.3821  0.4721  0.4753
 6787SOL     OW21170   3.452   3.582   0.709  0.0141 -0.2668  0.0946
 6787SOL    HW121171   3.533   3.612   0.668  0.9298  1.6866  3.0018
 6787SOL    HW221172   3.384   3.599   0.644  1.2217  3.4954 -0.4289
 6788SOL     OW21173   4.936   1.809   6.162 -0.3318  0.1758 -0.3046
 6788SOL    HW121174   4.871   1.754   6.206  0.2640  0.2437  0.6865
 6788SOL    HW221175   4.985   1.850   6.233  1.5578 -0.7639 -1.0027
 6789SOL     OW21176   7.278   5.517   4.933 -0.2483 -0.4072  0.0170
 6789SOL    HW121177   7.301   5.581   4.866  0.7805  0.4323  1.1278
 6789SOL    HW221178   7.222   5.565   4.994  0.0271 -0.7444  0.5432
 6790SOL     OW21179   0.069   4.834   6.761 -0.4326 -0.3619  0.4123
 6790SOL    HW121180   0.107   4.771   6.699  1.1247  0.8711  0.0438
 6790SOL    HW221181  -0.022   4.842   6.733  0.2730  0.3787 -1.9719
 6791SOL     OW21182   5.929   6.341   0.667  0.0210  0.3745  0.2711
 6791SOL    HW121183   5.984   6.275   0.625 -0.4014  0.6112 -0.6690
 6791SOL    HW221184   5.986   6.381   0.733 -0.4431 -2.7616  2.8611
 6792SOL     OW21185   4.878   2.244   2.795  0.3103  0.1386  0.1464
 6792SOL    HW121186   4.837   2.166   2.759  2.1334 -0.0576 -1.6245
 6792SOL    HW221187   4.935   2.276   2.726  1.7414  1.4504  1.8361
 6793SOL     OW21188   4.268   7.414   5.148 -0.2575  0.1016 -0.5752
 6793SOL    HW121189   4.351   7.436   5.188 -0.7633  1.1145 -0.0597
 6793SOL    HW221190   4.223   7.359   5.213 -0.6355  0.8634 -0.1797
 6794SOL     OW21191   7.600   4.920   3.979  0.0688  0.1500  0.8539
 6794SOL    HW121192   7.667   4.920   3.911 -0.2303 -0.0618  0.5515
 6794SOL    HW221193   7.612   4.836   4.024 -0.7540 -0.4487  0.0158
 6795SOL     OW21194   0.542   1.902   4.981 -0.0338  0.1279 -0.1682
 6795SOL    HW121195   0.520   1.991   4.956 -1.3141 -0.1760 -0.1684
 6795SOL    HW221196   0.542   1.852   4.899  0.3079  0.0464 -0.1216
 6796SOL     OW21197   7.683   2.881   1.149  0.2387  0.5396  0.4810
 6796SOL    HW121198   7.727   2.877   1.234  0.1579 -0.1092  0.4967
 6796SOL    HW221199   7.657   2.973   1.140 -0.1664  0.5252  1.3761
 6797SOL     OW21200   6.492   7.830   0.953 -0.2080  0.3230  0.1156
 6797SOL    HW121201   6.488   7.895   0.882 -1.2445  1.5323  1.2090
 6797SOL    HW221202   6.457   7.877   1.029  1.6258 -0.6806  1.6368
 6798SOL     OW21203   3.743   4.179   5.844  0.5301 -0.2066  0.7162
 6798SOL    HW121204   3.793   4.102   5.872  1.1191  0.3019  1.0976
 6798SOL    HW221205   3.729   4.166   5.750 -0.6988 -1.5049  1.0368
 6799SOL     OW21206   3.821   2.987   1.724 -0.8881  0.4207  0.8821
 6799SOL    HW121207   3.905   3.020   1.691 -0.2112 -1.0821  0.9887
 6799SOL    HW221208   3.755   3.040   1.680  0.0527  0.0877 -1.0509
 6800SOL     OW21209   3.823   7.547   3.426 -0.6577  0.4344 -0.0856
 6800SOL    HW121210   3.911   7.551   3.389  0.0801 -1.7342  1.1919
 6800SOL    HW221211   3.826   7.606   3.501 -0.4618  0.7719 -0.3591
 6801SOL     OW21212   7.285   1.895   5.147  0.1319 -0.4394 -0.4801
 6801SOL    HW121213   7.251   1.963   5.089 -1.8648 -0.5449  0.4808
 6801SOL    HW221214   7.356   1.938   5.195 -0.3246  0.6212 -0.7252
 6802SOL     OW21215   6.569   3.223   0.914 -0.3041  0.3363 -0.4222
 6802SOL    HW121216   6.496   3.162   0.928  0.4273 -0.1030  2.2189
 6802SOL    HW221217   6.529   3.299   0.873 -2.1992 -0.0635  0.5247
 6803SOL     OW21218   2.900   3.790   1.323 -0.8526  0.3562 -0.8949
 6803SOL    HW121219   2.876   3.878   1.354 -0.2593 -0.0396  0.7876
 6803SOL    HW221220   2.989   3.777   1.355 -1.4320 -1.4021  0.1247
 6804SOL     OW21221   5.486   0.620   0.270  0.0213  0.1167  0.4603
 6804SOL    HW121222   5.421   0.681   0.234  1.0176  0.1328 -1.4483
 6804SOL    HW221223   5.438   0.570   0.336 -2.5781 -1.2547 -2.1972
 6805SOL     OW21224   7.655   0.874   4.512 -1.3802  0.1280  0.1963
 6805SOL    HW121225   7.656   0.791   4.559  0.2825  1.1962  2.2532
 6805SOL    HW221226   7.705   0.858   4.432 -0.3257 -0.6798  0.9855
 6806SOL     OW21227   4.641   1.546   1.596 -0.3074 -0.1619 -0.1136
 6806SOL    HW121228   4.736   1.535   1.589 -0.5286 -1.8601 -1.1186
 6806SOL    HW221229   4.626   1.638   1.577  0.9894 -0.3407 -2.4072
 6807SOL     OW21230   4.553   0.634   4.450 -0.1459 -0.5280 -0.3333
 6807SOL    HW121231   4.534   0.686   4.372 -0.0164  1.3026  0.7905
 6807SOL    HW221232   4.521   0.546   4.429  0.3041 -0.2118 -2.5976
 6808SOL     OW21233   2.869   4.269   5.770  0.7643 -0.3217 -0.2642
 6808SOL    HW121234   2.860   4.335   5.701  0.8957 -0.9018 -0.8473
 6808SOL    HW221235   2.847   4.315   5.850 -2.8248 -0.4159 -0.9941
 6809SOL     OW21236   3.446   0.014   1.952  0.2726 -0.5065  0.0112
 6809SOL    HW121237   3.485   0.102   1.952 -1.6011  0.3576  0.6161
 6809SOL    HW221238   3.510  -0.041   1.998  1.6382  0.4257 -0.6969
 6810SOL     OW21239   3.057   6.768   1.439 -0.2008  0.4977  1.0382
 6810SOL    HW121240   3.144   6.758   1.477  0.3435 -1.0813 -0.5014
 6810SOL    HW221241   3.061   6.720   1.356 -1.4285  3.4197 -0.8783
 6811SOL     OW21242   0.522   4.790   0.558 -0.0567 -0.2943  0.7504
 6811SOL    HW121243   0.552   4.729   0.625  0.4896  1.7759  2.5295
 6811SOL    HW221244   0.601   4.815   0.511 -0.2835 -0.9729  0.0008
 6812SOL     OW21245   2.756   6.636   0.015 -0.1595  0.4738 -0.9405
 6812SOL    HW121246   2.671   6.672  -0.012 -0.0697  0.1681 -1.6396
 6812SOL    HW221247   2.733   6.561   0.071 -0.3436  1.4721  0.3708
 6813SOL     OW21248   6.881   6.831   1.160 -0.3484 -0.1683  0.8665
 6813SOL    HW121249   6.893   6.736   1.168  1.5721 -0.0311  0.3205
 6813SOL    HW221250   6.969   6.866   1.173 -0.7363  1.4230 -0.5120
 6814SOL     OW21251   6.547   7.426   5.125 -0.0091  0.3715  0.4468
 6814SOL    HW121252   6.535   7.332   5.139 -0.0458  0.0223 -1.5923
 6814SOL    HW221253   6.610   7.452   5.192  1.0413 -1.3917  0.2141
 6815SOL     OW21254   5.951   3.049   1.680 -0.0282  0.0492 -0.5795
 6815SOL    HW121255   5.864   3.034   1.643 -0.8944 -1.0791  1.6771
 6815SOL    HW221256   5.966   3.143   1.671 -1.7951  0.3784 -0.4531
 6816SOL     OW21257   3.280   5.224   4.023  0.9202  0.0985 -0.1704
 6816SOL    HW121258   3.328   5.286   4.078  0.9605  0.5597 -0.7153
 6816SOL    HW221259   3.267   5.270   3.940  1.1894 -0.7244 -0.6833
 6817SOL     OW21260   3.368   1.017   0.895  0.1677 -0.8905 -0.0338
 6817SOL    HW121261   3.452   0.979   0.872  0.1942 -0.6860 -0.2832
 6817SOL    HW221262   3.388   1.080   0.964  0.3433 -0.2517 -0.6537
 6818SOL     OW21263   0.759   3.343   7.334 -0.0590  0.1261 -0.0861
 6818SOL    HW121264   0.679   3.322   7.285 -0.8339  1.0788  0.7298
 6818SOL    HW221265   0.748   3.300   7.418  0.1780  0.4539  0.1153
 6819SOL     OW21266   6.483   0.641   4.472 -0.3452  0.0158 -0.2182
 6819SOL    HW121267   6.403   0.692   4.461 -0.0610  0.4959 -0.1134
 6819SOL    HW221268   6.495   0.635   4.567 -0.6388 -0.6733 -0.2201
 6820SOL     OW21269   7.909   5.433   1.341  0.0815 -0.0933 -0.3122
 6820SOL    HW121270   7.876   5.461   1.256  1.1292  1.2190 -0.3208
 6820SOL    HW221271   7.977   5.497   1.362 -0.0855 -0.4528  1.4633
 6821SOL     OW21272   0.995   3.967   6.422 -0.0659  0.1168 -0.0832
 6821SOL    HW121273   0.910   3.954   6.380  0.5229  0.8105 -1.5415
 6821SOL    HW221274   0.973   3.995   6.511 -1.3855  0.7061 -0.5622
 6822SOL     OW21275   1.998   1.587   6.647 -0.6389 -0.5175 -0.1186
 6822SOL    HW121276   2.031   1.519   6.589  1.1710  1.3993 -1.4677
 6822SOL    HW221277   2.050   1.578   6.727  1.0086  0.4413 -1.0285
 6823SOL     OW21278   6.738   6.820   2.726 -0.0919 -0.2645  0.3303
 6823SOL    HW121279   6.775   6.907   2.741 -0.1530 -0.2625  0.4790
 6823SOL    HW221280   6.799   6.777   2.666  0.0668 -0.2071  0.4499
 6824SOL     OW21281   2.323   7.237   2.601  0.0853  0.4648 -0.0579
 6824SOL    HW121282   2.273   7.172   2.650  1.6757 -0.1352  0.8207
 6824SOL    HW221283   2.257   7.283   2.549 -1.2399 -1.0057  0.2398
 6825SOL     OW21284   3.455   0.705   5.786  0.6481  0.0859  0.6427
 6825SOL    HW121285   3.434   0.762   5.712 -1.7473 -1.3976  0.0618
 6825SOL    HW221286   3.411   0.746   5.861 -0.0111 -0.2929  0.4750
 6826SOL     OW21287   3.686   2.166   1.551 -0.0037 -0.2094  0.5312
 6826SOL    HW121288   3.613   2.210   1.594  0.7867  1.0333  0.6480
 6826SOL    HW221289   3.736   2.128   1.623 -0.0889 -0.3506  0.5154
 6827SOL     OW21290   5.384   2.211   2.107 -0.3583  0.0923  0.1267
 6827SOL    HW121291   5.381   2.118   2.086  3.0799  0.1884 -1.6319
 6827SOL    HW221292   5.422   2.252   2.029 -1.5844  3.0057  0.8888
 6828SOL     OW21293   3.716   7.330   6.870 -0.4014 -0.6411  0.3465
 6828SOL    HW121294   3.697   7.421   6.850 -1.3027 -1.2491 -1.8101
 6828SOL    HW221295   3.631   7.290   6.883  0.0371 -0.9192  2.7950
 6829SOL     OW21296   1.013   2.128   0.225  0.0438  0.6854 -0.6179
 6829SOL    HW121297   1.007   2.053   0.166  0.5586 -0.7369  1.0687
 6829SOL    HW221298   0.922   2.158   0.235 -0.2239  0.0009 -0.9386
 6830SOL     OW21299   0.338   2.692   1.089 -0.3894 -0.0514 -0.1284
 6830SOL    HW121300   0.319   2.676   1.181 -0.9353  0.9123 -0.0549
 6830SOL    HW221301   0.257   2.670   1.044  0.3497 -2.0155 -0.5873
 6831SOL     OW21302   1.915   5.065   4.782 -0.4648 -0.0175  0.1044
 6831SOL    HW121303   1.917   5.158   4.806 -0.1877 -0.2065  0.8527
 6831SOL    HW221304   1.910   5.020   4.866 -0.4183 -0.6876 -0.2508
 6832SOL     OW21305   2.251   7.998   5.422  0.0434 -0.7624  0.3627
 6832SOL    HW121306   2.203   8.033   5.497  0.2346 -3.4657  1.8918
 6832SOL    HW221307   2.183   7.963   5.365 -0.0073 -0.5619  0.2996
 6833SOL     OW21308   3.327   4.562   6.665  0.5127  0.4011  1.0280
 6833SOL    HW121309   3.241   4.585   6.632  1.1931  0.1051 -1.0806
 6833SOL    HW221310   3.329   4.467   6.665  0.3871  0.3811  2.3835
 6834SOL     OW21311   0.756   7.786   1.507  0.4829  0.0221 -0.2307
 6834SOL    HW121312   0.804   7.777   1.589  0.7461  1.1978 -0.2429
 6834SOL    HW221313   0.822   7.768   1.439  0.5372  0.1719 -0.2164
 6835SOL     OW21314   2.661   7.695   4.031 -0.2390  0.1905 -0.6293
 6835SOL    HW121315   2.666   7.638   4.108 -0.5018  2.4207  1.1353
 6835SOL    HW221316   2.630   7.638   3.961 -0.1166 -1.9052  0.9279
 6836SOL     OW21317   0.293   5.441   4.923 -0.1440 -0.8662 -0.7387
 6836SOL    HW121318   0.242   5.520   4.908 -0.2654 -1.0900 -1.5328
 6836SOL    HW221319   0.378   5.473   4.954 -0.4360 -0.4606 -0.3459
 6837SOL     OW21320   3.778   2.084   0.264 -0.2762  0.0174  0.0326
 6837SOL    HW121321   3.703   2.136   0.234  0.7077  0.9481 -0.8815
 6837SOL    HW221322   3.848   2.105   0.202  0.8250 -0.6353  1.0282
 6838SOL     OW21323   1.872   7.747   6.755  0.0522  0.0834 -0.0651
 6838SOL    HW121324   1.884   7.666   6.705  0.6933  0.5660 -0.7029
 6838SOL    HW221325   1.840   7.810   6.690  0.1098  0.4956  0.3079
 6839SOL     OW21326   2.338   7.088   1.380 -0.1335  0.4481 -0.1299
 6839SOL    HW121327   2.254   7.080   1.426  0.2744 -0.2109  0.5229
 6839SOL    HW221328   2.356   6.999   1.349 -0.2270  0.8096 -1.2661
 6840SOL     OW21329   5.192   1.494   2.502 -0.0015 -0.6351 -0.4110
 6840SOL    HW121330   5.193   1.422   2.439  1.1150 -1.5801  0.6436
 6840SOL    HW221331   5.268   1.478   2.558  1.3610  2.3113 -1.1959
 6841SOL     OW21332   7.240   7.672   0.777 -0.2635 -0.0261  0.2192
 6841SOL    HW121333   7.169   7.717   0.823 -2.2184 -1.0541 -1.5781
 6841SOL    HW221334   7.197   7.630   0.702  2.6209  1.4206 -2.5156
 6842SOL     OW21335   7.299   5.451   1.753  0.2624  0.3619  0.1771
 6842SOL    HW121336   7.372   5.390   1.742  1.3354  1.8904 -1.8582
 6842SOL    HW221337   7.315   5.494   1.837  2.4164  1.5018 -0.7454
 6843SOL     OW21338   6.348   3.087   3.236  0.1151  0.7372  0.0443
 6843SOL    HW121339   6.315   3.134   3.160  0.1563 -1.5170 -1.4562
 6843SOL    HW221340   6.289   3.013   3.247  0.2363  0.8742  2.1211
 6844SOL     OW21341   1.059   1.928   4.416 -0.0226  0.1015 -0.2718
 6844SOL    HW121342   1.004   1.855   4.388  0.9700 -1.0190  0.6029
 6844SOL    HW221343   1.053   1.928   4.511 -0.1257  1.2769 -0.2567
 6845SOL     OW21344   7.533   4.738   5.879 -0.3816 -0.3230  0.0626
 6845SOL    HW121345   7.615   4.773   5.845  0.1141 -1.2459  0.2647
 6845SOL    HW221346   7.489   4.700   5.802 -1.7231  2.1326 -0.4985
 6846SOL     OW21347   6.620   3.003   7.255  0.3245  0.0468 -0.1550
 6846SOL    HW121348   6.706   3.026   7.288  0.4931  1.9411 -1.7662
 6846SOL    HW221349   6.570   3.084   7.256 -0.5988 -0.4483 -1.6837
 6847SOL     OW21350   3.735   6.367   1.849 -0.1174  0.0220  0.0949
 6847SOL    HW121351   3.781   6.347   1.767  1.8130 -0.9307  1.3163
 6847SOL    HW221352   3.690   6.450   1.832 -0.8013 -0.7661 -2.2914
 6848SOL     OW21353   7.304   5.396   7.934  0.2904  0.1826 -0.6271
 6848SOL    HW121354   7.305   5.335   7.860  1.5795 -1.6167  0.8029
 6848SOL    HW221355   7.391   5.388   7.973  0.0741  2.0722  0.3373
 6849SOL     OW21356   1.747   3.256   4.081 -0.4049 -0.4766  0.0692
 6849SOL    HW121357   1.665   3.207   4.093 -1.4588  0.7978 -1.4892
 6849SOL    HW221358   1.781   3.267   4.169 -1.7045 -1.4066  0.7280
 6850SOL     OW21359   1.413   7.571   5.253 -0.1808  0.2773 -0.0757
 6850SOL    HW121360   1.497   7.606   5.282  0.0978 -1.4247  1.3620
 6850SOL    HW221361   1.379   7.524   5.330 -0.3820 -2.7392 -1.8512
 6851SOL     OW21362   0.899   4.250   0.916 -0.8474  0.0409  0.2307
 6851SOL    HW121363   0.913   4.267   0.823 -1.0794  0.3432  0.2513
 6851SOL    HW221364   0.885   4.156   0.921 -0.4292 -0.0390  0.0103
 6852SOL     OW21365   2.536   4.203   0.984  0.6217  0.2905  0.7900
 6852SOL    HW121366   2.607   4.157   0.939  0.6363 -0.0220  1.1298
 6852SOL    HW221367   2.551   4.187   1.077  2.0196  2.9764  1.1184
 6853SOL     OW21368   0.777   2.276   7.567 -0.3582  0.2246 -0.3898
 6853SOL    HW121369   0.737   2.234   7.643  1.1478 -0.5789  0.0043
 6853SOL    HW221370   0.794   2.204   7.506  2.3177  0.1273  0.3137
 6854SOL     OW21371   4.365   5.889   7.759  0.1671 -0.3220  0.3592
 6854SOL    HW121372   4.397   5.900   7.848 -1.1148  1.6674  0.6254
 6854SOL    HW221373   4.311   5.966   7.742  0.7804 -0.3558 -2.3262
 6855SOL     OW21374   3.425   6.217   0.053  0.0517  0.2501 -0.3661
 6855SOL    HW121375   3.441   6.124   0.037 -0.1993  0.2127 -0.4117
 6855SOL    HW221376   3.425   6.256  -0.035  1.9600  0.6013 -0.2400
 6856SOL     OW21377   7.335   5.748   6.929  0.5851  0.3903  0.3012
 6856SOL    HW121378   7.302   5.664   6.959  0.8132  0.2924  0.2832
 6856SOL    HW221379   7.328   5.806   7.004 -0.3911  0.5927  0.0642
 6857SOL     OW21380   3.812   1.280   1.341  0.0898  0.5551 -0.3808
 6857SOL    HW121381   3.718   1.262   1.350  0.6844 -2.4085  1.1422
 6857SOL    HW221382   3.829   1.346   1.408 -0.7303  0.3594  0.0428
 6858SOL     OW21383   5.411   5.569   1.396  0.7578 -0.0632  0.3454
 6858SOL    HW121384   5.403   5.650   1.446  0.5898 -0.2186  0.5706
 6858SOL    HW221385   5.377   5.501   1.454  1.2182 -0.3474  0.2867
 6859SOL     OW21386   0.052   4.017   5.582 -0.0902 -0.4642  0.2002
 6859SOL    HW121387   0.039   4.062   5.666 -1.5254  0.9511 -0.7165
 6859SOL    HW221388   0.016   3.930   5.595 -0.3246 -0.2486  1.0415
 6860SOL     OW21389   0.833   5.681   4.722 -0.2529  0.5275 -0.2656
 6860SOL    HW121390   0.905   5.636   4.677 -0.0173 -0.5052  1.0753
 6860SOL    HW221391   0.780   5.718   4.651 -0.2792 -1.6157 -1.4676
 6861SOL     OW21392   4.213   4.402   6.548 -0.2730 -0.8705 -0.1945
 6861SOL    HW121393   4.198   4.487   6.508 -0.8470 -1.1798 -0.6506
 6861SOL    HW221394   4.266   4.354   6.484  1.7572 -0.2048  0.8847
 6862SOL     OW21395   3.041   2.162   0.467  0.3923 -0.0825 -0.3758
 6862SOL    HW121396   2.993   2.210   0.534 -0.0856 -1.3614  0.2334
 6862SOL    HW221397   2.995   2.181   0.386  0.3598  0.6639 -0.1873
 6863SOL     OW21398   4.174   1.530   0.512  0.2637 -0.3323 -0.0788
 6863SOL    HW121399   4.137   1.457   0.463  0.7091 -0.4491 -0.2449
 6863SOL    HW221400   4.266   1.533   0.485  0.0024  0.9783 -0.9111
 6864SOL     OW21401   1.956   4.375   7.141  0.0663  0.1840  0.5336
 6864SOL    HW121402   2.047   4.403   7.128 -0.1107  0.7605  0.4913
 6864SOL    HW221403   1.917   4.444   7.195 -0.7935  0.8197 -0.8491
 6865SOL     OW21404   7.295   3.213   4.944  0.5821  0.5806  0.0284
 6865SOL    HW121405   7.331   3.200   5.031 -0.8834  0.5378  0.6613
 6865SOL    HW221406   7.360   3.266   4.898  1.6426  0.1031  0.9484
 6866SOL     OW21407   4.538   1.350   4.063 -0.5734  0.9297  0.4841
 6866SOL    HW121408   4.547   1.386   3.975 -0.1642 -0.6726 -0.1623
 6866SOL    HW221409   4.533   1.255   4.050  0.2353  0.6057  2.2412
 6867SOL     OW21410   1.606   2.230   7.084  0.1188 -0.6224 -0.2182
 6867SOL    HW121411   1.624   2.318   7.051 -0.5220 -1.2783 -2.5005
 6867SOL    HW221412   1.655   2.172   7.025  1.4616 -1.7861  1.9323
 6868SOL     OW21413   4.569   4.938   6.894  0.3010 -0.2062  0.3273
 6868SOL    HW121414   4.606   4.875   6.832  0.8246  0.3326  0.0764
 6868SOL    HW221415   4.538   4.885   6.967  1.4048 -0.6974  0.4561
 6869SOL     OW21416   7.686   4.160   0.615 -0.2673  0.1147 -0.0494
 6869SOL    HW121417   7.753   4.211   0.569 -0.2514  0.9982  0.9041
 6869SOL    HW221418   7.733   4.117   0.687 -0.4486 -0.5199 -0.3057
 6870SOL     OW21419   7.448   1.684   2.161 -0.4905  0.6653  0.2421
 6870SOL    HW121420   7.445   1.601   2.207  2.0428 -0.4782 -1.4520
 6870SOL    HW221421   7.516   1.734   2.204 -0.1981  0.8001 -0.3650
 6871SOL     OW21422   0.027   0.003   0.227 -0.2754  0.5578  0.0680
 6871SOL    HW121423  -0.025   0.048   0.161 -1.4395 -1.1638 -0.2464
 6871SOL    HW221424  -0.036  -0.029   0.292  0.4928 -0.4770  0.3554
 6872SOL     OW21425   4.993   5.744   1.175 -0.5641 -0.1526 -0.0811
 6872SOL    HW121426   4.968   5.739   1.083 -0.3549 -1.5541 -0.0866
 6872SOL    HW221427   5.089   5.744   1.174 -0.4353  3.0571  0.0393
 6873SOL     OW21428   5.864   5.775   7.483 -0.6926  0.1058 -0.0343
 6873SOL    HW121429   5.948   5.759   7.526 -0.0228  1.2196 -0.8724
 6873SOL    HW221430   5.820   5.839   7.539 -1.2652 -0.9009  0.7121
 6874SOL     OW21431   1.706   4.793   7.432  0.5110 -0.0097  0.2052
 6874SOL    HW121432   1.639   4.861   7.442 -0.3383 -0.7920 -0.0557
 6874SOL    HW221433   1.769   4.812   7.501 -1.1637 -0.6151  2.0118
 6875SOL     OW21434   1.889   3.964   5.206  0.3548 -0.1711 -0.0205
 6875SOL    HW121435   1.825   3.903   5.243 -0.0745 -0.0386 -0.5229
 6875SOL    HW221436   1.960   3.967   5.270 -0.5410  0.3468  0.9763
 6876SOL     OW21437   5.031   2.553   4.327 -0.5048  0.4984  0.4845
 6876SOL    HW121438   4.994   2.593   4.248  0.6350 -1.5225 -1.1641
 6876SOL    HW221439   4.955   2.519   4.373 -1.1137  0.7829 -0.2690
 6877SOL     OW21440   7.774   4.719   4.406 -0.5502 -0.0505  0.1237
 6877SOL    HW121441   7.812   4.632   4.395 -1.4097 -0.4648  0.3027
 6877SOL    HW221442   7.829   4.761   4.471 -0.9423 -0.9859  1.0900
 6878SOL     OW21443   2.819   1.768   5.785 -0.4717  0.3118 -0.2472
 6878SOL    HW121444   2.900   1.804   5.822 -0.6492  0.1748  0.2725
 6878SOL    HW221445   2.846   1.686   5.744 -0.3955  0.1344  0.1575
 6879SOL     OW21446   6.972   6.431   2.458  0.1533 -0.1946 -0.0802
 6879SOL    HW121447   6.895   6.472   2.418  0.7039  1.4013  0.4256
 6879SOL    HW221448   7.035   6.502   2.467  0.7323 -0.8912  1.8805
 6880SOL     OW21449   7.568   7.311   5.259  0.6317  0.0283  0.5902
 6880SOL    HW121450   7.635   7.272   5.315 -0.1335 -2.3475 -0.0187
 6880SOL    HW221451   7.522   7.373   5.316  2.1019  0.2889  1.5501
 6881SOL     OW21452   2.881   6.031   1.597 -0.0664  0.2902 -0.1860
 6881SOL    HW121453   2.931   6.108   1.571  0.1713  0.4357  0.6858
 6881SOL    HW221454   2.792   6.048   1.565 -0.1688  1.2203  0.5613
 6882SOL     OW21455   4.481   7.672   2.627 -0.3407  0.0397  0.2685
 6882SOL    HW121456   4.414   7.625   2.577 -1.7927  1.7992  0.4654
 6882SOL    HW221457   4.541   7.706   2.560  1.6941 -3.3043  0.1947
 6883SOL     OW21458   6.939   1.281   4.107  0.1170  0.2085 -0.9212
 6883SOL    HW121459   6.900   1.235   4.033 -0.3084  0.2977 -0.7571
 6883SOL    HW221460   6.996   1.216   4.149 -2.2616 -0.9783  0.7190
 6884SOL     OW21461   7.543   4.189   5.939 -0.2059 -0.0923 -0.2207
 6884SOL    HW121462   7.562   4.274   5.898  1.3307 -0.1096  0.4139
 6884SOL    HW221463   7.626   4.161   5.976 -1.3200 -0.4950  2.1787
 6885SOL     OW21464   7.359   4.512   1.096  0.1398  0.1652 -0.0015
 6885SOL    HW121465   7.450   4.509   1.124  0.3214 -0.1955 -0.6073
 6885SOL    HW221466   7.334   4.420   1.083 -0.6539  0.1846  1.2068
 6886SOL     OW21467   4.597   1.342   6.134  0.1516 -0.4979  0.1548
 6886SOL    HW121468   4.600   1.284   6.210 -1.3342  0.0536  0.6644
 6886SOL    HW221469   4.561   1.287   6.064  1.6869 -1.0583 -0.2515
 6887SOL     OW21470   0.101   6.830   4.652 -0.3761  0.2537 -0.1826
 6887SOL    HW121471   0.138   6.890   4.588 -0.0395  0.7849  0.4954
 6887SOL    HW221472   0.104   6.744   4.609 -0.4479  0.6459 -0.9887
 6888SOL     OW21473   0.587   6.093   5.043 -0.5823 -0.3002  0.4391
 6888SOL    HW121474   0.681   6.080   5.027 -0.4687  0.6199  0.3167
 6888SOL    HW221475   0.577   6.082   5.138 -0.2951 -0.1066  0.4935
 6889SOL     OW21476   1.610   4.600   5.044 -0.4959  0.6960  0.2982
 6889SOL    HW121477   1.637   4.530   4.984 -1.3499  1.0255 -0.4897
 6889SOL    HW221478   1.692   4.634   5.080  0.3145  2.3898 -2.8326
 6890SOL     OW21479   4.887   7.479   4.438  0.8647  0.1838  0.0743
 6890SOL    HW121480   4.810   7.443   4.482  1.7087 -1.6015  0.1942
 6890SOL    HW221481   4.913   7.553   4.492  1.1316 -1.1825  1.9359
 6891SOL     OW21482   5.155   5.879   2.108  0.5313 -0.1192 -0.4545
 6891SOL    HW121483   5.209   5.918   2.177  0.9918 -2.1021  0.3596
 6891SOL    HW221484   5.215   5.862   2.036  0.5290 -0.2122 -0.4345
 6892SOL     OW21485   6.513   2.747   0.591 -0.5225  0.0215  0.1020
 6892SOL    HW121486   6.468   2.828   0.613  2.8434  1.7471  1.3564
 6892SOL    HW221487   6.497   2.690   0.667 -1.2342  0.2697  0.1498
 6893SOL     OW21488   3.368   5.779   7.054 -0.1418  0.5399 -0.0633
 6893SOL    HW121489   3.464   5.773   7.049 -0.1344  1.0748 -0.6932
 6893SOL    HW221490   3.338   5.688   7.050  0.2995  0.4218 -1.1380
 6894SOL     OW21491   6.209   7.395   5.676  0.2435  0.6400  0.2887
 6894SOL    HW121492   6.246   7.307   5.684  1.1211  1.0900  1.7268
 6894SOL    HW221493   6.285   7.453   5.688 -0.3999  1.5868 -0.1403
 6895SOL     OW21494   0.787   7.264   6.127  0.1063 -0.6963  0.4914
 6895SOL    HW121495   0.823   7.319   6.197  1.7339 -2.5682  1.2140
 6895SOL    HW221496   0.817   7.176   6.148 -0.0457 -1.4555 -2.1509
 6896SOL     OW21497   7.587   6.620   7.003 -0.6797 -0.0033 -0.1577
 6896SOL    HW121498   7.569   6.662   6.919 -0.5078 -0.5793 -0.4902
 6896SOL    HW221499   7.527   6.663   7.064 -0.3391  0.8837 -0.4315
 6897SOL     OW21500   3.562   1.189   1.967 -0.6889  0.2925 -0.5871
 6897SOL    HW121501   3.594   1.160   1.882  0.4057 -1.1667  0.2835
 6897SOL    HW221502   3.586   1.119   2.027 -1.5443  1.2370  0.9143
 6898SOL     OW21503   7.156   3.518   3.895 -0.5617  0.3118  0.4352
 6898SOL    HW121504   7.189   3.506   3.805 -0.6292  1.0533  0.3081
 6898SOL    HW221505   7.230   3.555   3.943 -0.3886 -0.4821  0.8000
 6899SOL     OW21506   0.424   3.051   1.167 -0.4765  0.1774 -0.5565
 6899SOL    HW121507   0.329   3.054   1.175 -0.5861 -2.4852  0.1278
 6899SOL    HW221508   0.454   3.010   1.248  1.2268  0.5347 -0.9558
 6900SOL     OW21509   1.450   6.000   7.355  0.7813 -0.5910 -0.2102
 6900SOL    HW121510   1.477   6.090   7.338  0.4767 -0.4663 -0.0380
 6900SOL    HW221511   1.471   5.953   7.274 -2.5820  0.4171 -1.8180
 6901SOL     OW21512   6.164   0.110   1.826  0.1951 -0.2191 -0.1323
 6901SOL    HW121513   6.125   0.036   1.780  0.2929 -0.3355 -0.0298
 6901SOL    HW221514   6.137   0.098   1.918 -0.5005  0.3416 -0.2584
 6902SOL     OW21515   1.480   6.940   6.256 -0.1318  0.2510 -0.1201
 6902SOL    HW121516   1.500   7.022   6.300  0.2280  0.8591 -1.3729
 6902SOL    HW221517   1.564   6.893   6.253 -0.8397 -1.5604  3.2101
 6903SOL     OW21518   0.382   4.620   6.940  0.1433  0.0396  0.0308
 6903SOL    HW121519   0.308   4.595   6.884  1.0826  0.8524 -1.6649
 6903SOL    HW221520   0.382   4.716   6.937  0.0974  0.1069  1.6298
 6904SOL     OW21521   3.623   1.977   0.463 -0.6163  0.1450  0.1494
 6904SOL    HW121522   3.696   1.999   0.405  0.8733 -1.6981  1.2073
 6904SOL    HW221523   3.613   2.053   0.519  0.6742  0.3633  0.1270
 6905SOL     OW21524   6.963   7.123   6.142  0.1298  0.3802  0.2791
 6905SOL    HW121525   6.923   7.179   6.208 -1.2570 -3.3485  2.9367
 6905SOL    HW221526   6.893   7.064   6.114  1.6844 -0.7179 -1.5975
 6906SOL     OW21527   3.814   5.528   1.048  0.1514  0.1124  0.4736
 6906SOL    HW121528   3.848   5.488   1.128 -1.4630  0.8242  1.5708
 6906SOL    HW221529   3.865   5.608   1.037 -0.3179  0.5645  1.4371
 6907SOL     OW21530   0.919   2.643   7.911 -0.2127  0.3459  0.1382
 6907SOL    HW121531   0.991   2.627   7.850  0.3553  0.8105  0.6717
 6907SOL    HW221532   0.869   2.562   7.912 -2.3642  1.3634 -3.6856
 6908SOL     OW21533   4.494   1.981   3.810 -0.1168 -0.8829  0.6531
 6908SOL    HW121534   4.478   1.887   3.803  0.2989 -0.9177  0.1756
 6908SOL    HW221535   4.579   1.988   3.853 -0.0070 -0.7255  0.4089
 6909SOL     OW21536   6.570   5.713   7.936 -0.2359  0.2443 -0.0876
 6909SOL    HW121537   6.540   5.720   8.026 -0.3132 -2.7391  0.1920
 6909SOL    HW221538   6.666   5.712   7.943 -0.2155  0.9534 -0.1601
 6910SOL     OW21539   1.641   7.920   6.073 -0.0362 -0.0933  0.6047
 6910SOL    HW121540   1.601   7.858   6.135  0.2453 -1.6175 -0.6615
 6910SOL    HW221541   1.568   7.948   6.017 -0.1329  0.6285  1.0792
 6911SOL     OW21542   6.189   1.606   2.193 -0.2806  0.6815 -0.3932
 6911SOL    HW121543   6.252   1.550   2.238 -0.8519 -0.6648 -1.2139
 6911SOL    HW221544   6.154   1.663   2.262  0.1951 -0.0911  0.5007
 6912SOL     OW21545   6.851   2.860   5.988 -0.6252  0.1327 -0.2945
 6912SOL    HW121546   6.844   2.833   5.897 -1.0949 -2.2784  0.4020
 6912SOL    HW221547   6.763   2.847   6.024  0.1205 -1.4491  1.0909
 6913SOL     OW21548   4.753   2.451   4.361  0.2914 -0.2882  0.0171
 6913SOL    HW121549   4.693   2.435   4.288  0.4858 -0.4632 -0.1083
 6913SOL    HW221550   4.800   2.368   4.371  0.7322 -0.0524 -0.0942
 6914SOL     OW21551   3.753   2.083   6.242 -0.3824 -0.1282  0.0530
 6914SOL    HW121552   3.729   1.998   6.278 -1.6291  0.8625  1.7113
 6914SOL    HW221553   3.838   2.102   6.280  0.2083 -0.8883 -0.8421
 6915SOL     OW21554   2.873   1.520   3.816  0.9485  0.0734  0.6756
 6915SOL    HW121555   2.843   1.490   3.730  2.7790  0.0151  0.0183
 6915SOL    HW221556   2.959   1.480   3.826  1.9120  2.1969  1.3566
 6916SOL     OW21557   2.075   0.227   2.414  0.0103 -0.1008  0.3907
 6916SOL    HW121558   2.020   0.298   2.447  0.6776  1.2551 -1.2620
 6916SOL    HW221559   2.030   0.196   2.336 -0.7254 -2.1620  1.5540
 6917SOL     OW21560   4.719   6.868   3.164 -0.4926  0.0880  0.6359
 6917SOL    HW121561   4.664   6.795   3.137 -1.6146  0.6209  1.3931
 6917SOL    HW221562   4.753   6.842   3.250 -0.0540  0.0134  0.4384
 6918SOL     OW21563   2.912   3.239   5.579 -0.0060  0.0010 -0.4040
 6918SOL    HW121564   2.908   3.326   5.539  1.0098 -0.1632 -0.8988
 6918SOL    HW221565   2.870   3.249   5.664  2.0481  1.5386  0.5242
 6919SOL     OW21566   2.467   6.507   6.711 -0.1719 -0.3543 -0.1942
 6919SOL    HW121567   2.429   6.454   6.781  0.3197  0.7583  0.9393
 6919SOL    HW221568   2.539   6.454   6.677  1.4356  0.2171  2.0866
 6920SOL     OW21569   7.626   5.639   7.404 -0.5023  0.2189  0.2646
 6920SOL    HW121570   7.649   5.664   7.314 -1.4011 -0.1144 -0.0737
 6920SOL    HW221571   7.571   5.561   7.394 -1.4053  0.7280  1.0393
 6921SOL     OW21572   4.826   5.320   2.131 -0.1372 -0.0509  0.3940
 6921SOL    HW121573   4.776   5.389   2.085  2.9560  2.7327  0.7918
 6921SOL    HW221574   4.857   5.263   2.060 -0.4595  0.5991 -0.2948
 6922SOL     OW21575   6.434   1.112   1.080  0.0908  0.1602 -0.5538
 6922SOL    HW121576   6.406   1.185   1.025  1.7973  0.5003 -1.0434
 6922SOL    HW221577   6.441   1.149   1.168  0.3273  0.4338 -0.6855
 6923SOL     OW21578   5.592   1.165   7.143 -0.3230 -0.0672 -0.0736
 6923SOL    HW121579   5.641   1.085   7.123  1.6005  0.6192  1.6202
 6923SOL    HW221580   5.567   1.199   7.057 -0.3803 -1.9684 -0.8686
 6924SOL     OW21581   1.214   6.795   4.251  0.5103 -0.3772 -0.5789
 6924SOL    HW121582   1.222   6.888   4.271  0.0718 -0.1644 -1.3630
 6924SOL    HW221583   1.128   6.770   4.284  1.6674 -1.1659  2.0773
 6925SOL     OW21584   4.481   4.094   5.424  0.1682 -0.0733  0.0687
 6925SOL    HW121585   4.536   4.134   5.491  1.3180  0.4245 -1.1291
 6925SOL    HW221586   4.525   4.012   5.402 -0.5528 -0.5528  0.3695
 6926SOL     OW21587   2.355   1.624   6.889 -0.4428  0.0567 -0.3979
 6926SOL    HW121588   2.305   1.542   6.892  0.1770 -0.3402 -0.6918
 6926SOL    HW221589   2.393   1.633   6.976  1.1086 -1.0215 -0.9054
 6927SOL     OW21590   6.588   0.268   4.720  0.5000 -0.8727  0.3080
 6927SOL    HW121591   6.554   0.210   4.788  0.6545  0.9520  2.0345
 6927SOL    HW221592   6.673   0.229   4.696  0.2168 -1.8198  0.7907
 6928SOL     OW21593   7.445   5.300   2.379 -0.7716  0.0702 -0.2573
 6928SOL    HW121594   7.525   5.294   2.327  0.1791  2.1518  0.8434
 6928SOL    HW221595   7.430   5.211   2.410  0.9085 -0.4426 -0.8203
 6929SOL     OW21596   3.040   5.648   7.162  0.2500 -0.1063 -0.4588
 6929SOL    HW121597   2.975   5.715   7.143  0.3854  0.1984  0.1403
 6929SOL    HW221598   3.064   5.662   7.254 -1.5206 -2.4930  0.4921
 6930SOL     OW21599   4.894   5.338   1.194  0.3276 -0.4440  0.0324
 6930SOL    HW121600   4.828   5.268   1.198 -0.1264 -0.1329 -1.4570
 6930SOL    HW221601   4.853   5.411   1.240 -0.1773 -0.4237 -0.4294
 6931SOL     OW21602   0.263   0.512   1.966 -0.5993 -0.4902  0.3949
 6931SOL    HW121603   0.273   0.421   1.993  0.1929  0.0860  2.1816
 6931SOL    HW221604   0.351   0.540   1.941 -0.6687  0.0342  0.7185
 6932SOL     OW21605   5.309   1.685   5.093 -0.1223 -0.4052  0.2400
 6932SOL    HW121606   5.293   1.596   5.125  2.3373 -0.7291  0.7813
 6932SOL    HW221607   5.339   1.733   5.171 -0.2557  0.5710 -0.2986
 6933SOL     OW21608   6.565   6.815   4.564 -0.4576  0.9143 -0.0996
 6933SOL    HW121609   6.489   6.777   4.519  0.2125  1.0511 -1.4084
 6933SOL    HW221610   6.609   6.866   4.496  1.5546 -0.2655  0.2401
 6934SOL     OW21611   6.049   1.693   5.228 -0.0623 -0.5231  0.4852
 6934SOL    HW121612   6.142   1.706   5.213  0.1706 -0.3646  1.9298
 6934SOL    HW221613   6.009   1.704   5.142  1.1636  0.2061 -0.0175
 6935SOL     OW21614   7.080   7.054   0.984  0.1853  0.2520 -0.4103
 6935SOL    HW121615   7.102   7.067   1.076  1.8059  2.9682 -1.0424
 6935SOL    HW221616   7.062   7.143   0.952  2.0646 -0.2426 -3.1935
 6936SOL     OW21617   4.966   2.284   6.054  0.0378  0.6039 -0.1750
 6936SOL    HW121618   5.038   2.264   5.995 -1.1164 -1.0998 -1.1049
 6936SOL    HW221619   4.986   2.234   6.133 -0.2094 -0.0619 -0.5224
 6937SOL     OW21620   7.453   6.565   5.415 -0.3829  0.1039  0.5120
 6937SOL    HW121621   7.498   6.603   5.339 -0.4141 -0.6402  0.1186
 6937SOL    HW221622   7.407   6.639   5.454  0.4936  0.7147  0.4330
 6938SOL     OW21623   0.266   0.286   6.857  0.0584 -0.0236  0.7134
 6938SOL    HW121624   0.298   0.289   6.767 -0.9328  2.2239  0.3571
 6938SOL    HW221625   0.299   0.203   6.892  1.5472 -0.3551 -1.3010
 6939SOL     OW21626   3.982   0.128   4.056  0.2621  0.1509 -0.7325
 6939SOL    HW121627   3.887   0.136   4.059  0.1800  1.1864 -3.6213
 6939SOL    HW221628   4.014   0.212   4.088  0.1788  0.1842 -0.7355
 6940SOL     OW21629   3.301   3.406   6.456  0.2977 -0.8345  0.4630
 6940SOL    HW121630   3.220   3.435   6.499  0.1846 -1.4310  0.6644
 6940SOL    HW221631   3.281   3.318   6.425  0.7809 -0.8732  0.2549
 6941SOL     OW21632   0.772   3.044   7.369  0.3326  0.0145  0.3531
 6941SOL    HW121633   0.839   3.113   7.366  1.5495 -1.0530  1.8401
 6941SOL    HW221634   0.793   2.993   7.447 -1.8548 -0.7604  0.5067
 6942SOL     OW21635   7.252   7.549   2.210 -0.7118 -0.1376 -0.4071
 6942SOL    HW121636   7.301   7.466   2.209 -0.3896  0.0513 -0.1463
 6942SOL    HW221637   7.170   7.528   2.163  0.1914 -0.0984 -2.0913
 6943SOL     OW21638   3.922   6.418   0.495 -0.2552  0.3139 -0.5982
 6943SOL    HW121639   3.894   6.328   0.509 -0.1627 -0.0654 -2.5885
 6943SOL    HW221640   3.913   6.460   0.581  0.7809 -1.8533  0.6629
 6944SOL     OW21641   6.430   1.094   7.470  0.3916  0.1988  0.2957
 6944SOL    HW121642   6.484   1.156   7.421 -1.0914  1.4374  0.1475
 6944SOL    HW221643   6.375   1.149   7.526 -0.0068 -1.0614  1.1983
 6945SOL     OW21644   0.327   6.941   6.046 -0.0293 -0.0408 -0.0846
 6945SOL    HW121645   0.318   6.936   5.951  1.0860 -0.8229 -0.1673
 6945SOL    HW221646   0.237   6.936   6.079 -0.3576 -0.8066 -1.0524
 6946SOL     OW21647   5.510   2.809   5.917  0.6997 -0.2397 -0.2791
 6946SOL    HW121648   5.526   2.773   5.830  2.1821 -0.1073 -0.0844
 6946SOL    HW221649   5.465   2.892   5.900 -0.3585 -0.8940 -0.8294
 6947SOL     OW21650   6.757   2.023   0.523  0.2111  0.1984  0.1976
 6947SOL    HW121651   6.768   2.048   0.615 -0.3137  0.8669  0.0921
 6947SOL    HW221652   6.703   2.093   0.487 -0.0974 -0.3844 -0.4746
 6948SOL     OW21653   0.551   2.464   0.473  0.1641  0.0189  0.1728
 6948SOL    HW121654   0.507   2.383   0.450  1.1645 -0.4494 -0.1293
 6948SOL    HW221655   0.535   2.475   0.567  0.7776 -0.9985  0.4058
 6949SOL     OW21656   1.620   7.088   1.673  0.7823  0.1543 -0.2323
 6949SOL    HW121657   1.713   7.085   1.694  0.6512 -0.3992  0.2898
 6949SOL    HW221658   1.579   7.121   1.753  0.4491 -0.3250 -0.2065
 6950SOL     OW21659   5.932   4.010   6.682 -0.5323 -0.4474 -0.3477
 6950SOL    HW121660   5.847   3.992   6.642 -1.2421  2.0900 -0.1937
 6950SOL    HW221661   5.970   4.078   6.626  0.0863  0.5310  1.2120
 6951SOL     OW21662   2.260   5.574   2.432 -0.0572 -0.3730 -0.0023
 6951SOL    HW121663   2.187   5.537   2.382 -0.2237 -2.6431  1.7894
 6951SOL    HW221664   2.231   5.572   2.523  1.4728  0.6222  0.5566
 6952SOL     OW21665   5.878   4.288   4.835 -0.1134 -0.0061 -0.2100
 6952SOL    HW121666   5.936   4.213   4.823  0.0869 -0.1194  1.3429
 6952SOL    HW221667   5.795   4.250   4.864 -0.3049  0.3124 -0.3378
 6953SOL     OW21668   4.072   7.556   4.762 -0.3800 -0.1101  0.0707
 6953SOL    HW121669   4.101   7.508   4.685  1.6200 -0.7190  1.1366
 6953SOL    HW221670   4.031   7.636   4.728  4.0176  1.7001 -1.6628
 6954SOL     OW21671   3.588   5.793   5.795  0.0746  0.3963 -0.1851
 6954SOL    HW121672   3.548   5.729   5.735 -0.0917 -0.5260  0.8848
 6954SOL    HW221673   3.648   5.742   5.848 -0.9408  0.8908  1.4982
 6955SOL     OW21674   0.069   2.774   5.111  0.5237 -0.2845  0.2424
 6955SOL    HW121675   0.045   2.864   5.088  1.1394 -0.5305 -1.4925
 6955SOL    HW221676   0.067   2.726   5.028  0.5654 -1.8045  1.0773
 6956SOL     OW21677   4.579   4.751   4.998 -0.3128 -0.5904  0.3236
 6956SOL    HW121678   4.594   4.715   4.911  0.5315 -1.8554  0.9647
 6956SOL    HW221679   4.512   4.694   5.037 -1.1579  0.3455  0.3011
 6957SOL     OW21680   7.935   2.493   1.771 -0.3370  0.1456  0.0189
 6957SOL    HW121681   7.949   2.580   1.734  1.1571  0.0883  0.3744
 6957SOL    HW221682   7.976   2.433   1.709 -0.1223 -0.1774  0.4635
 6958SOL     OW21683   0.855   1.062   0.112 -0.4520 -0.6658 -0.1052
 6958SOL    HW121684   0.847   1.136   0.172 -1.5107 -0.7403 -0.1412
 6958SOL    HW221685   0.874   0.987   0.168 -0.0836 -0.4984 -0.0015
 6959SOL     OW21686   7.442   6.416   1.577 -0.8565 -0.3263 -0.5883
 6959SOL    HW121687   7.461   6.329   1.613 -1.0024 -0.5121 -0.9471
 6959SOL    HW221688   7.435   6.401   1.482  0.0980  0.2561 -0.7555
 6960SOL     OW21689   2.665   5.564   1.015 -0.5178  0.3927 -0.0455
 6960SOL    HW121690   2.593   5.510   0.982  0.3085 -0.9941  0.3410
 6960SOL    HW221691   2.716   5.586   0.937 -0.1404 -0.5062 -0.0693
 6961SOL     OW21692   6.670   1.576   3.151 -0.3665 -0.5767  0.0959
 6961SOL    HW121693   6.691   1.589   3.058 -0.0895 -0.2643  0.1989
 6961SOL    HW221694   6.686   1.483   3.166 -1.6750 -0.9128 -0.4784
 6962SOL     OW21695   3.096   0.017   0.651  0.0075 -0.6457  0.2002
 6962SOL    HW121696   3.008  -0.019   0.660 -0.0475 -0.4945  0.2635
 6962SOL    HW221697   3.154  -0.060   0.655 -0.2600 -1.1489 -2.9329
 6963SOL     OW21698   7.766   6.320   5.451  0.4794 -0.1511 -0.5821
 6963SOL    HW121699   7.747   6.261   5.378 -1.2786  1.1016 -1.2003
 6963SOL    HW221700   7.681   6.335   5.492  1.1424  0.7524  0.5106
 6964SOL     OW21701   6.655   4.862   5.660 -0.2308 -0.7321  0.2662
 6964SOL    HW121702   6.606   4.797   5.710 -1.0964 -2.9378 -3.1238
 6964SOL    HW221703   6.746   4.835   5.668 -0.5742 -2.4270 -1.0472
 6965SOL     OW21704   3.259   4.284   5.848  0.7284  0.1105  0.4772
 6965SOL    HW121705   3.332   4.314   5.794 -0.1805  2.7634  0.6155
 6965SOL    HW221706   3.299   4.256   5.930  1.5288  3.2878  1.2721
 6966SOL     OW21707   3.982   0.205   1.524 -0.8733 -0.4424  0.6629
 6966SOL    HW121708   4.010   0.114   1.537  0.9980  0.2261  1.6260
 6966SOL    HW221709   3.954   0.209   1.433  3.8675 -0.8471 -1.0608
 6967SOL     OW21710   4.657   0.671   0.068  0.1755  0.2863 -0.2439
 6967SOL    HW121711   4.685   0.686  -0.022  2.4247  0.1914  0.3693
 6967SOL    HW221712   4.726   0.709   0.122 -1.8115  1.6618  1.5227
 6968SOL     OW21713   7.233   3.705   1.208 -0.1158  0.4452  0.4817
 6968SOL    HW121714   7.319   3.740   1.186 -0.9285  1.7454 -0.7515
 6968SOL    HW221715   7.215   3.639   1.141  0.3942 -0.6861  1.4237
 6969SOL     OW21716   3.820   7.194   5.698 -0.5790  0.0452 -0.2158
 6969SOL    HW121717   3.789   7.226   5.782 -0.3910  0.6795 -0.3799
 6969SOL    HW221718   3.757   7.227   5.635 -0.6095 -0.2596 -0.3452
 6970SOL     OW21719   2.885   2.907   1.065 -0.2950 -0.1593 -0.0611
 6970SOL    HW121720   2.939   2.882   1.140 -0.0950  0.0073 -0.1475
 6970SOL    HW221721   2.805   2.856   1.075 -0.1251 -0.4034  0.0751
 6971SOL     OW21722   5.522   4.176   6.949 -0.1555 -0.9188 -0.5691
 6971SOL    HW121723   5.541   4.221   7.031 -0.1097 -1.5752 -0.2150
 6971SOL    HW221724   5.606   4.142   6.920 -0.4776 -2.4255  0.1631
 6972SOL     OW21725   1.012   6.383   1.213  0.0006 -0.0050  0.5469
 6972SOL    HW121726   0.943   6.331   1.255 -0.0228 -1.0345 -0.6950
 6972SOL    HW221727   1.075   6.399   1.283 -0.4655 -0.8761  1.1975
 6973SOL     OW21728   0.050   0.893   2.005  0.4124  0.0513 -0.3035
 6973SOL    HW121729   0.010   0.917   2.089  0.2152  1.9384 -0.8843
 6973SOL    HW221730   0.143   0.910   2.018  0.1667  2.2017 -1.0006
 6974SOL     OW21731   7.973   2.759   1.743  0.2205  0.1213 -0.0026
 6974SOL    HW121732   8.015   2.845   1.733 -0.4323  0.4922  0.3545
 6974SOL    HW221733   7.880   2.780   1.754 -0.0472 -0.6730 -0.6807
 6975SOL     OW21734   0.537   6.012   6.844  0.1562 -0.2164 -0.3891
 6975SOL    HW121735   0.506   6.042   6.929  0.6015  0.6769 -0.5283
 6975SOL    HW221736   0.581   6.088   6.806  1.1328 -0.9845 -0.8560
 6976SOL     OW21737   6.724   6.578   1.793  0.0662  0.2939 -0.1549
 6976SOL    HW121738   6.680   6.503   1.753  0.0968 -0.0087  0.3611
 6976SOL    HW221739   6.817   6.562   1.777  0.0690  0.2509 -0.0977
 6977SOL     OW21740   6.502   5.786   0.205 -0.1552 -0.5365  0.1408
 6977SOL    HW121741   6.559   5.755   0.275 -1.4132 -2.1961  0.4858
 6977SOL    HW221742   6.415   5.793   0.245 -0.2137  2.3920 -0.2528
 6978SOL     OW21743   7.444   7.168   4.855 -0.0634  0.4855  0.3495
 6978SOL    HW121744   7.491   7.248   4.878  0.7802  0.1080 -0.0194
 6978SOL    HW221745   7.512   7.108   4.824 -0.7821 -0.0937 -0.1419
 6979SOL     OW21746   0.232   2.228   3.998 -0.2021 -0.1547 -0.3117
 6979SOL    HW121747   0.273   2.229   3.912  0.3229 -0.9900 -0.0822
 6979SOL    HW221748   0.144   2.193   3.983  0.1585 -1.0489 -0.4097
 6980SOL     OW21749   4.533   4.551   5.875  0.2339 -0.1227 -1.0030
 6980SOL    HW121750   4.527   4.456   5.878  1.4968 -0.2572  2.8766
 6980SOL    HW221751   4.616   4.568   5.830  0.9846 -1.0091 -0.0156
 6981SOL     OW21752   1.908   5.779   2.633 -0.3005  0.4665  0.0350
 6981SOL    HW121753   1.970   5.851   2.627 -0.0762  0.1811 -1.4224
 6981SOL    HW221754   1.924   5.726   2.555 -1.9770  0.0615 -0.0817
 6982SOL     OW21755   4.333   0.006   2.949 -0.9833  0.4622 -0.0753
 6982SOL    HW121756   4.238   0.018   2.946 -1.0332  0.2750  0.5267
 6982SOL    HW221757   4.345  -0.089   2.956 -0.8207  0.5687  1.5197
 6983SOL     OW21758   5.768   4.390   7.121 -0.5007  0.4386  0.7258
 6983SOL    HW121759   5.820   4.324   7.076  0.6811  2.0194 -0.3684
 6983SOL    HW221760   5.807   4.398   7.208 -0.1968  0.2010  0.6093
 6984SOL     OW21761   6.894   2.522   4.588 -0.2654 -0.5264  0.3642
 6984SOL    HW121762   6.804   2.524   4.622 -0.5032 -0.2851 -0.2646
 6984SOL    HW221763   6.890   2.575   4.508  0.7795  0.7862  1.1430
 6985SOL     OW21764   7.010   5.331   1.813 -0.2098  0.1341  0.0598
 6985SOL    HW121765   6.967   5.350   1.730 -1.4607 -0.3300  0.5721
 6985SOL    HW221766   7.098   5.367   1.804 -1.0085  2.0407 -0.6729
 6986SOL     OW21767   5.039   3.778   1.922 -0.2732  0.7055  0.2407
 6986SOL    HW121768   5.128   3.744   1.926 -0.7926 -0.6257  1.4595
 6986SOL    HW221769   5.043   3.850   1.860  1.4823  0.1672 -0.3108
 6987SOL     OW21770   6.295   3.459   5.422  0.4652  0.0501 -0.6372
 6987SOL    HW121771   6.302   3.431   5.331 -0.1690  0.2768 -0.7594
 6987SOL    HW221772   6.263   3.549   5.417 -2.0717 -0.7503 -0.1499
 6988SOL     OW21773   2.710   0.051   6.641  0.0250 -0.2931  0.0742
 6988SOL    HW121774   2.801   0.025   6.629  0.1772 -0.0557  0.6904
 6988SOL    HW221775   2.660  -0.030   6.629  0.4657 -0.8187  1.5717
 6989SOL     OW21776   7.636   6.948   5.329 -0.1723  0.0327  0.2518
 6989SOL    HW121777   7.676   6.974   5.246 -1.2109  0.1489 -0.2262
 6989SOL    HW221778   7.557   6.901   5.304 -0.3016 -0.2687  1.1783
 6990SOL     OW21779   0.200   4.545   2.311 -0.7918  0.1494  1.0098
 6990SOL    HW121780   0.161   4.585   2.389 -0.2575  1.4078  0.6508
 6990SOL    HW221781   0.294   4.558   2.323 -0.7034  0.2749  0.2005
 6991SOL     OW21782   7.335   0.881   4.366  0.2847 -0.7276 -0.8658
 6991SOL    HW121783   7.387   0.955   4.335  1.3698 -0.0221  2.2859
 6991SOL    HW221784   7.378   0.804   4.329  1.2288  0.0597 -1.4376
 6992SOL     OW21785   0.604   4.980   6.461  0.5719  0.8136 -0.5681
 6992SOL    HW121786   0.523   4.947   6.498  0.5177  1.2381 -0.3027
 6992SOL    HW221787   0.665   4.906   6.465  0.6459  0.9243  0.6077
 6993SOL     OW21788   2.176   6.927   7.284  0.3367 -0.1267 -0.0316
 6993SOL    HW121789   2.095   6.882   7.263 -0.4802  0.1707  2.2341
 6993SOL    HW221790   2.165   6.957   7.374  1.5231  3.0566 -0.7979
 6994SOL     OW21791   3.282   6.705   2.685 -0.0613 -0.0443 -0.2001
 6994SOL    HW121792   3.246   6.704   2.773 -0.0590  2.0746 -0.1238
 6994SOL    HW221793   3.357   6.646   2.689 -0.0521  0.0275  1.2004
 6995SOL     OW21794   3.744   7.903   1.425 -0.2713 -0.2817  0.0563
 6995SOL    HW121795   3.705   7.991   1.426  0.8809  0.3310  3.5416
 6995SOL    HW221796   3.678   7.848   1.467  0.6879 -0.1182  1.8896
 6996SOL     OW21797   4.170   6.429   1.495 -0.3819  0.0842  0.3109
 6996SOL    HW121798   4.223   6.396   1.422  1.7855  2.1048  0.8844
 6996SOL    HW221799   4.104   6.484   1.453 -0.4623 -0.4141 -0.2390
 6997SOL     OW21800   6.952   0.639   1.679 -0.3286  0.1935 -0.2216
 6997SOL    HW121801   7.021   0.593   1.632  1.1107  1.8951  0.1093
 6997SOL    HW221802   6.905   0.689   1.612  0.8944  1.5944 -0.0920
 6998SOL     OW21803   1.240   5.657   0.911 -0.0704  0.3791  0.6774
 6998SOL    HW121804   1.198   5.743   0.909  1.4565  1.2102  2.0462
 6998SOL    HW221805   1.313   5.664   0.850 -0.5102 -0.3088  0.0426
 6999SOL     OW21806   1.180   2.696   2.218  0.1270  0.2724 -0.7095
 6999SOL    HW121807   1.090   2.675   2.243 -0.0692 -0.1636 -1.7200
 6999SOL    HW221808   1.230   2.691   2.299 -0.4392 -1.3109 -0.4331
 7000SOL     OW21809   4.503   2.562   5.758  0.4148 -0.9416 -0.1906
 7000SOL    HW121810   4.449   2.580   5.681 -0.4687 -0.0947  0.6007
 7000SOL    HW221811   4.578   2.621   5.749  0.2486 -0.7502 -0.3241
 7001SOL     OW21812   0.621   6.988   0.332  0.1252  0.0853 -0.8897
 7001SOL    HW121813   0.561   7.060   0.312 -1.2692 -0.9929 -0.7778
 7001SOL    HW221814   0.612   6.928   0.257  2.0424  0.4839 -1.4819
 7002SOL     OW21815   1.412   2.165   4.252  0.4330 -0.5397  0.2599
 7002SOL    HW121816   1.320   2.144   4.238  0.7898 -0.7337 -2.5635
 7002SOL    HW221817   1.417   2.196   4.342 -2.4494 -0.1234  0.3688
 7003SOL     OW21818   3.786   0.816   4.563 -0.0898  0.1617  0.0329
 7003SOL    HW121819   3.723   0.774   4.504 -0.9088  1.0939  0.2270
 7003SOL    HW221820   3.864   0.760   4.558 -0.0099  0.3621 -2.1688
 7004SOL     OW21821   1.818   6.770   1.557  0.2481 -0.6086 -0.0219
 7004SOL    HW121822   1.770   6.807   1.484 -0.0898 -0.3809  0.3179
 7004SOL    HW221823   1.892   6.724   1.516  0.3193 -0.0942 -0.4738
 7005SOL     OW21824   5.910   3.900   5.112  0.0239  0.0312  0.3825
 7005SOL    HW121825   5.862   3.832   5.066 -0.1636  0.0005  0.6206
 7005SOL    HW221826   5.998   3.896   5.075 -0.1588  0.0979 -0.0665
 7006SOL     OW21827   5.482   7.567   7.063 -0.2479  0.0413 -0.1542
 7006SOL    HW121828   5.577   7.564   7.055 -0.2101  0.0554  0.2696
 7006SOL    HW221829   5.453   7.624   6.992 -0.1717 -2.1261 -2.0500
 7007SOL     OW21830   2.326   5.837   2.128 -0.2863  0.5448 -0.6018
 7007SOL    HW121831   2.404   5.846   2.072  0.5736  0.3149  0.5122
 7007SOL    HW221832   2.337   5.905   2.195 -0.2288 -0.5003  0.4773
 7008SOL     OW21833   0.703   4.704   7.101  0.2049 -0.2983 -0.1592
 7008SOL    HW121834   0.755   4.625   7.083  0.7787  0.4111 -1.8643
 7008SOL    HW221835   0.761   4.759   7.154  0.7394 -0.0614 -0.9601
 7009SOL     OW21836   1.714   1.501   3.064 -0.7029 -0.0268 -0.0644
 7009SOL    HW121837   1.677   1.422   3.105  0.5980  0.1467  1.5650
 7009SOL    HW221838   1.719   1.565   3.136 -1.6348  1.5353 -1.3295
 7010SOL     OW21839   8.003   6.563   7.896 -0.5875  0.2393 -0.0315
 7010SOL    HW121840   7.993   6.525   7.809  2.1431 -0.2275 -0.2286
 7010SOL    HW221841   7.946   6.511   7.952 -1.7995  0.0510 -1.3877
 7011SOL     OW21842   2.516   2.701   3.268 -0.5057 -0.7571  0.0464
 7011SOL    HW121843   2.497   2.764   3.198 -2.2120 -0.1214  1.0126
 7011SOL    HW221844   2.583   2.643   3.231  1.4227  1.8075 -0.7560
 7012SOL     OW21845   4.607   7.443   1.788  0.4380  0.0744  0.0285
 7012SOL    HW121846   4.640   7.407   1.706 -1.8215 -0.6168 -0.6640
 7012SOL    HW221847   4.575   7.367   1.837 -2.6166  0.7970 -0.6045
 7013SOL     OW21848   3.289   5.765   4.978 -0.4919  0.2287 -0.1061
 7013SOL    HW121849   3.199   5.790   4.959 -0.2358  0.2890 -1.3461
 7013SOL    HW221850   3.315   5.820   5.052 -0.9826  1.3291 -0.7258
 7014SOL     OW21851   1.885   7.414   3.553 -0.5374 -0.1844  0.1495
 7014SOL    HW121852   1.806   7.461   3.580  0.3461  0.7827  1.1871
 7014SOL    HW221853   1.855   7.326   3.532 -2.0861  0.5336 -0.8083
 7015SOL     OW21854   0.180   1.502   0.618 -0.6636  0.0068 -0.0472
 7015SOL    HW121855   0.114   1.533   0.556 -0.1516 -1.7983 -1.5955
 7015SOL    HW221856   0.215   1.422   0.578  2.1384  0.6240  0.9229
 7016SOL     OW21857   3.042   2.294   0.151 -0.0924  0.1044 -0.1711
 7016SOL    HW121858   3.052   2.358   0.081 -1.3770  0.1036 -0.3734
 7016SOL    HW221859   3.126   2.296   0.198  0.1223  1.4315 -0.5865
 7017SOL     OW21860   4.534   6.802   7.000 -0.0001  0.4768  0.1289
 7017SOL    HW121861   4.475   6.766   6.935 -0.4855  0.3803  0.6131
 7017SOL    HW221862   4.619   6.763   6.980 -0.4042 -0.5309  0.3205
 7018SOL     OW21863   7.819   2.633   5.183  0.3496  0.0234 -0.5371
 7018SOL    HW121864   7.833   2.608   5.274 -0.5267 -0.8934 -0.6511
 7018SOL    HW221865   7.855   2.722   5.178  0.6964 -0.0304  0.6154
 7019SOL     OW21866   4.134   2.275   1.824 -0.0336 -0.5910 -0.2083
 7019SOL    HW121867   4.101   2.238   1.906  0.8558 -1.2832 -0.1511
 7019SOL    HW221868   4.175   2.358   1.850  1.0507 -1.2346  0.2064
 7020SOL     OW21869   0.943   5.849   7.602  0.8154  0.6660  0.0578
 7020SOL    HW121870   0.866   5.865   7.657  0.2736  0.7854 -0.7300
 7020SOL    HW221871   0.975   5.763   7.630 -0.9980 -0.4769 -1.2285
 7021SOL     OW21872   7.925   6.720   3.412 -0.1349  0.1461 -0.5216
 7021SOL    HW121873   7.942   6.776   3.336  0.3599 -0.8520 -1.1579
 7021SOL    HW221874   7.994   6.654   3.410  0.8328  0.9754  1.6864
 7022SOL     OW21875   5.615   4.607   7.066  0.4382  0.5452  0.4416
 7022SOL    HW121876   5.546   4.585   7.128 -0.8870  0.8972 -0.8632
 7022SOL    HW221877   5.669   4.528   7.061 -1.0706 -0.5001 -0.0667
 7023SOL     OW21878   1.773   2.597   0.771 -0.2956 -0.0882 -0.6094
 7023SOL    HW121879   1.790   2.622   0.862 -0.1827  0.8580 -0.8803
 7023SOL    HW221880   1.822   2.516   0.759 -2.1573 -1.5435  0.8366
 7024SOL     OW21881   4.061   7.589   4.262 -0.0998 -0.1018  0.5091
 7024SOL    HW121882   3.966   7.591   4.277 -0.2154 -0.3806 -0.1459
 7024SOL    HW221883   4.071   7.544   4.178  0.6217 -0.1730  0.6257
 7025SOL     OW21884   3.593   5.057   3.807  0.4536 -0.9559 -0.1497
 7025SOL    HW121885   3.532   5.011   3.865 -0.0297 -1.2208 -0.8411
 7025SOL    HW221886   3.623   5.132   3.857 -0.6576 -0.6728  0.1179
 7026SOL     OW21887   6.536   2.062   4.344 -0.0772 -0.0097 -0.2468
 7026SOL    HW121888   6.496   1.987   4.301  1.5632 -0.2136 -1.5524
 7026SOL    HW221889   6.484   2.137   4.315 -0.0551 -0.3497 -1.2159
 7027SOL     OW21890   6.035   7.425   7.071 -0.2166 -0.5113  0.1732
 7027SOL    HW121891   6.108   7.469   7.115 -1.4431  0.9818  0.8043
 7027SOL    HW221892   6.031   7.466   6.984 -1.4340  0.7744  0.8032
 7028SOL     OW21893   2.299   3.711   1.514  0.0539  0.4364 -0.3327
 7028SOL    HW121894   2.254   3.648   1.570 -0.2233 -0.1040 -1.1464
 7028SOL    HW221895   2.390   3.680   1.510  0.0898  0.5158 -0.1255
 7029SOL     OW21896   2.296   2.956   3.976  0.5344  0.4756  0.7395
 7029SOL    HW121897   2.216   3.009   3.976  0.0389 -0.2562  1.0912
 7029SOL    HW221898   2.266   2.868   3.956  1.5462  0.5661 -1.4284
 7030SOL     OW21899   0.853   1.855   2.089  0.0668 -0.4126 -0.0984
 7030SOL    HW121900   0.932   1.844   2.142 -0.0632 -0.6896  0.0360
 7030SOL    HW221901   0.834   1.949   2.094  0.4790 -0.3181 -0.2621
 7031SOL     OW21902   3.588   2.717   3.005  0.1474 -0.4128 -0.8049
 7031SOL    HW121903   3.511   2.755   3.046  1.4682  1.1206  0.3367
 7031SOL    HW221904   3.577   2.737   2.912 -1.2724 -1.0688 -0.8096
 7032SOL     OW21905   1.037   5.938   2.440  0.1539 -0.7924  0.1141
 7032SOL    HW121906   1.027   5.850   2.477 -0.5410 -1.0926 -0.7554
 7032SOL    HW221907   1.118   5.934   2.389 -0.6548 -1.3947 -1.1621
 7033SOL     OW21908   4.340   3.349   6.214  0.3437 -0.3030  1.0185
 7033SOL    HW121909   4.416   3.315   6.167  0.4643 -0.1444  1.0981
 7033SOL    HW221910   4.302   3.414   6.155 -0.0768 -0.8070  0.7290
 7034SOL     OW21911   4.520   2.754   2.979  0.2390  0.1247  0.2314
 7034SOL    HW121912   4.548   2.687   3.042 -1.8718 -1.4011 -0.3578
 7034SOL    HW221913   4.454   2.711   2.926  0.3131  2.0841 -1.5745
 7035SOL     OW21914   3.946   6.095   5.277 -0.4019  0.2773 -0.0306
 7035SOL    HW121915   3.950   6.144   5.194  1.7090  0.9482  0.4175
 7035SOL    HW221916   3.993   6.150   5.340 -1.0899 -0.7029  1.3855
 7036SOL     OW21917   2.202   3.007   2.093  0.2764 -0.0069  0.7038
 7036SOL    HW121918   2.142   3.035   2.162 -0.6304 -1.5382  0.5791
 7036SOL    HW221919   2.195   2.912   2.093  1.9294 -0.1580 -0.0377
 7037SOL     OW21920   0.736   0.110   6.976  0.1021 -0.4063  0.1682
 7037SOL    HW121921   0.801   0.176   6.955  0.7249 -0.5881  1.4390
 7037SOL    HW221922   0.742   0.099   7.071  0.0675 -2.3200  0.0042
 7038SOL     OW21923   4.927   2.010   7.391  0.5911 -0.2846 -0.4724
 7038SOL    HW121924   4.944   2.017   7.485  0.8656  1.5777 -0.6315
 7038SOL    HW221925   4.908   1.917   7.378  1.0060 -0.6750  1.3378
 7039SOL     OW21926   7.390   7.142   1.739 -0.6220 -0.1809 -0.5907
 7039SOL    HW121927   7.438   7.063   1.712  0.8659 -0.4191  2.3419
 7039SOL    HW221928   7.378   7.192   1.658  1.6972 -1.6930 -1.9720
 7040SOL     OW21929   6.984   2.799   3.961 -0.1802 -0.5018 -0.3343
 7040SOL    HW121930   7.074   2.823   3.941 -0.1119 -1.4485 -1.2046
 7040SOL    HW221931   6.991   2.721   4.016 -0.4028  1.2475  2.3764
 7041SOL     OW21932   7.107   0.743   7.204 -0.2237  0.0954  0.1114
 7041SOL    HW121933   7.156   0.791   7.138  0.0423  0.8520  0.8378
 7041SOL    HW221934   7.018   0.738   7.169  0.3450 -1.4014 -1.2739
 7042SOL     OW21935   2.714   0.383   2.066 -0.2881  0.0616 -0.3924
 7042SOL    HW121936   2.724   0.454   2.003  1.8887 -0.2421 -0.4788
 7042SOL    HW221937   2.626   0.394   2.102 -0.9797  1.1901 -2.3050
 7043SOL     OW21938   0.506   0.749   1.257  0.1196 -0.0426  0.1669
 7043SOL    HW121939   0.478   0.769   1.168  1.3322 -0.2125 -0.2569
 7043SOL    HW221940   0.425   0.726   1.302 -0.6012  0.6927 -0.7080
 7044SOL     OW21941   5.715   3.665   0.045 -0.0232  0.0808  0.1129
 7044SOL    HW121942   5.698   3.707   0.129 -0.7426 -0.8442  0.4553
 7044SOL    HW221943   5.628   3.643   0.012  0.1464  1.8445 -1.6477
 7045SOL     OW21944   0.311   0.925   2.058  0.5293 -0.7116 -0.0693
 7045SOL    HW121945   0.297   0.867   2.133 -0.9369 -0.4147 -0.0854
 7045SOL    HW221946   0.289   1.012   2.092  1.3538 -0.3484 -0.4347
 7046SOL     OW21947   3.682   7.192   0.158 -0.0417 -0.4389 -0.1614
 7046SOL    HW121948   3.703   7.222   0.247  2.3942  1.4893 -1.2670
 7046SOL    HW221949   3.750   7.128   0.138  1.4138  1.4802 -1.6961
 7047SOL     OW21950   7.011   3.402   0.790  0.4849  0.1518  0.7661
 7047SOL    HW121951   7.031   3.451   0.710  0.8914 -0.5981  0.4057
 7047SOL    HW221952   6.939   3.451   0.830 -0.6742 -0.2333 -0.7741
 7048SOL     OW21953   7.320   6.894   2.756 -0.3532 -0.2584 -0.6011
 7048SOL    HW121954   7.351   6.980   2.785  1.5372 -0.8257 -0.7505
 7048SOL    HW221955   7.296   6.907   2.664  0.4662  0.0023 -0.7872
 7049SOL     OW21956   3.390   3.666   1.620 -0.1995 -0.0784 -0.2973
 7049SOL    HW121957   3.424   3.739   1.671  0.0336 -0.3419 -0.0753
 7049SOL    HW221958   3.306   3.645   1.661 -0.6992  0.6551 -0.9238
 7050SOL     OW21959   4.535   5.279   3.698 -0.0189  0.2119  0.1429
 7050SOL    HW121960   4.458   5.224   3.683  2.2404 -2.5129 -3.1190
 7050SOL    HW221961   4.534   5.343   3.627  0.9984 -0.3595 -0.4288
 7051SOL     OW21962   7.065   7.322   7.326 -0.5656  0.4339 -0.1448
 7051SOL    HW121963   7.006   7.390   7.359  1.0871  1.4203  0.9052
 7051SOL    HW221964   7.008   7.249   7.305 -2.3741  2.0003 -0.9482
 7052SOL     OW21965   0.257   5.255   3.810  0.5763  0.1619  0.4083
 7052SOL    HW121966   0.178   5.306   3.828  0.1103 -0.0544 -0.9320
 7052SOL    HW221967   0.308   5.262   3.890 -1.6272 -1.2392  2.0338
 7053SOL     OW21968   7.130   2.704   1.957  0.1966  0.0295 -0.0394
 7053SOL    HW121969   7.042   2.674   1.982  0.0102  0.0549 -0.6559
 7053SOL    HW221970   7.178   2.707   2.040  0.1748 -1.8304  0.0898
 7054SOL     OW21971   7.698   3.732   0.635 -0.3716 -0.4935  0.3644
 7054SOL    HW121972   7.682   3.653   0.686 -2.5962 -0.3573 -0.0011
 7054SOL    HW221973   7.624   3.735   0.573 -0.2105  1.7281  0.2099
 7055SOL     OW21974   7.498   5.231   4.776  0.2612 -0.6452 -0.1853
 7055SOL    HW121975   7.570   5.178   4.812 -0.5026 -0.8546  1.1290
 7055SOL    HW221976   7.499   5.311   4.828 -0.1241 -0.4216 -0.5146
 7056SOL     OW21977   6.735   5.648   3.914 -0.4597 -0.5318 -1.0576
 7056SOL    HW121978   6.821   5.691   3.919  0.4896 -2.4591  1.0161
 7056SOL    HW221979   6.675   5.710   3.956  0.2843  0.0705 -0.8623
 7057SOL     OW21980   1.809   0.750   6.286 -0.1170 -0.2070 -0.1552
 7057SOL    HW121981   1.844   0.678   6.233 -1.0920 -0.1757 -0.8779
 7057SOL    HW221982   1.833   0.728   6.376  0.9531 -0.6315 -0.5299
 7058SOL     OW21983   3.912   0.029   5.706 -0.5805 -0.2669  0.5949
 7058SOL    HW121984   3.948   0.059   5.789 -0.3974  0.3370  0.3035
 7058SOL    HW221985   3.849   0.097   5.681  1.4504  1.0745 -1.1750
 7059SOL     OW21986   5.628   2.198   2.913  0.2645  0.0183  0.1453
 7059SOL    HW121987   5.687   2.259   2.869 -1.1788  0.2605 -1.5816
 7059SOL    HW221988   5.542   2.216   2.875 -0.3475 -2.6310  0.0597
 7060SOL     OW21989   1.850   5.572   2.795  0.6019 -0.2447  0.2651
 7060SOL    HW121990   1.869   5.582   2.888  0.2798 -0.6877  0.3816
 7060SOL    HW221991   1.887   5.651   2.754  0.6192  0.0168  0.7821
 7061SOL     OW21992   3.339   7.063   1.737 -0.8590  0.0261 -0.1158
 7061SOL    HW121993   3.275   7.081   1.669 -0.4044  1.0087 -0.3022
 7061SOL    HW221994   3.332   7.138   1.797  1.0227  0.8685 -0.8594
 7062SOL     OW21995   7.074   6.373   7.948 -0.1643  0.1663  0.5958
 7062SOL    HW121996   6.996   6.416   7.981 -0.9446 -0.4682 -0.3489
 7062SOL    HW221997   7.116   6.334   8.025 -2.0958 -1.5524  0.8542
 7063SOL     OW21998   3.000   4.824   2.560  0.4322 -0.2673 -0.3009
 7063SOL    HW121999   3.033   4.911   2.581 -2.3137  0.4411  1.6337
 7063SOL    HW222000   2.920   4.840   2.510  0.1141 -1.7113 -0.2874
 7064SOL     OW22001   5.010   3.662   5.987  0.0506 -0.2082  0.0602
 7064SOL    HW122002   5.024   3.681   5.894 -1.5253 -1.7006 -0.5275
 7064SOL    HW222003   4.929   3.709   6.009  0.7511  0.6750  0.9026
 7065SOL     OW22004   4.180   0.970   5.458 -1.3204  0.2832  0.1201
 7065SOL    HW122005   4.230   0.999   5.534 -0.3715 -0.8599 -0.0485
 7065SOL    HW222006   4.168   1.049   5.405  3.5407  0.1327 -1.7013
 7066SOL     OW22007   5.423   1.523   0.323  0.2664  0.3736 -0.2911
 7066SOL    HW122008   5.463   1.602   0.287 -0.0475  0.8950  0.4825
 7066SOL    HW222009   5.452   1.521   0.414 -1.1465  0.5640  0.1901
 7067SOL     OW22010   2.227   0.852   7.725 -0.1429 -0.0118 -0.6333
 7067SOL    HW122011   2.311   0.856   7.680  0.2664  1.1481  0.2035
 7067SOL    HW222012   2.165   0.893   7.664 -0.0583 -0.5771 -1.1123
 7068SOL     OW22013   2.107   5.062   1.432 -0.3196  0.1341  0.4663
 7068SOL    HW122014   2.146   5.149   1.438  1.5065 -0.7346  3.5196
 7068SOL    HW222015   2.014   5.075   1.449  0.2599  1.3656  3.2324
 7069SOL     OW22016   7.247   3.331   5.883  0.6195  0.4696  0.2422
 7069SOL    HW122017   7.268   3.353   5.792  1.7624 -0.1006  0.3552
 7069SOL    HW222018   7.197   3.250   5.877  2.3607 -0.6509  0.1971
 7070SOL     OW22019   7.147   2.978   1.257 -0.3048 -0.4366  0.6615
 7070SOL    HW122020   7.171   2.926   1.180 -0.1912  1.0362 -0.3371
 7070SOL    HW222021   7.080   2.925   1.302  0.1232 -1.6276 -0.0582
 7071SOL     OW22022   3.724   1.778   7.534 -0.1270  0.3045  0.2059
 7071SOL    HW122023   3.677   1.841   7.480 -0.2221 -0.8229 -1.0660
 7071SOL    HW222024   3.815   1.786   7.507 -0.1517 -0.1547 -0.0287
 7072SOL     OW22025   2.389   1.935   0.484 -0.0214  0.3332 -0.3385
 7072SOL    HW122026   2.379   2.028   0.501  0.4145  0.5648 -1.2773
 7072SOL    HW222027   2.469   1.910   0.530 -0.7034  0.1690  0.8006
 7073SOL     OW22028   6.222   0.710   6.235 -0.1185 -0.2057  0.0182
 7073SOL    HW122029   6.203   0.715   6.329 -0.6120 -0.2894 -0.0768
 7073SOL    HW222030   6.216   0.617   6.214  0.1139 -0.2017 -0.0754
 7074SOL     OW22031   0.729   3.801   6.586 -0.7070 -0.6898  0.1220
 7074SOL    HW122032   0.649   3.818   6.635 -0.3920 -0.2443  0.4917
 7074SOL    HW222033   0.740   3.878   6.530 -0.8014 -0.9755 -0.2953
 7075SOL     OW22034   5.602   5.182   4.067  0.0868 -0.2062 -0.1096
 7075SOL    HW122035   5.674   5.206   4.125  1.1484 -0.4064 -1.2923
 7075SOL    HW222036   5.642   5.124   4.001 -0.8319  0.8348 -1.6548
 7076SOL     OW22037   2.015   6.441   7.436  0.5516  0.5590  0.6609
 7076SOL    HW122038   2.011   6.484   7.351 -2.3184  1.5439  1.1854
 7076SOL    HW222039   2.050   6.354   7.418 -0.9615  0.3637 -1.7041
 7077SOL     OW22040   0.005   2.668   4.862 -0.4673  0.0731  0.0381
 7077SOL    HW122041  -0.072   2.642   4.813  0.3224 -0.2549 -1.0659
 7077SOL    HW222042   0.074   2.610   4.831 -0.0579 -0.5288  1.9624
 7078SOL     OW22043   5.013   6.086   6.244 -0.2314  0.1361  0.2541
 7078SOL    HW122044   5.086   6.025   6.257  0.7176  0.8848 -1.2871
 7078SOL    HW222045   4.935   6.034   6.265  0.7196 -0.6064  2.2184
 7079SOL     OW22046   5.516   6.882   7.709 -0.2237  0.0231 -0.0385
 7079SOL    HW122047   5.548   6.815   7.769  1.2013 -0.7239 -1.5368
 7079SOL    HW222048   5.447   6.928   7.757 -0.0815 -1.4302  1.6234
 7080SOL     OW22049   5.338   1.870   6.145  0.3831  0.3887 -0.4664
 7080SOL    HW122050   5.288   1.830   6.073  1.9593  0.1572 -1.4879
 7080SOL    HW222051   5.360   1.797   6.203 -1.2518  0.6390  0.5192
 7081SOL     OW22052   7.435   5.970   2.220  0.1191 -0.5299 -0.1875
 7081SOL    HW122053   7.418   6.021   2.300 -1.5833 -0.1544 -0.7532
 7081SOL    HW222054   7.508   5.913   2.243  0.6812  0.6580  1.1472
 7082SOL     OW22055   5.392   0.984   4.186 -0.0374  0.8327  0.3816
 7082SOL    HW122056   5.364   0.999   4.096  0.4125 -0.5156 -0.0071
 7082SOL    HW222057   5.482   0.952   4.178 -0.6707 -1.2913  1.1373
 7083SOL     OW22058   3.988   6.427   2.294 -0.2247 -0.1205 -0.1406
 7083SOL    HW122059   4.013   6.517   2.270  0.6749 -0.9501 -2.6886
 7083SOL    HW222060   4.061   6.397   2.348 -0.2256  0.4779  0.2079
 7084SOL     OW22061   0.571   7.765   3.031 -0.7430  0.4001 -1.0356
 7084SOL    HW122062   0.638   7.712   2.988 -0.3840 -0.4477  0.4887
 7084SOL    HW222063   0.488   7.732   2.996 -0.6844 -2.7116  1.2954
 7085SOL     OW22064   0.499   1.480   0.914 -0.3775  0.6959 -0.2478
 7085SOL    HW122065   0.474   1.534   0.839  1.2320  0.5773 -0.8935
 7085SOL    HW222066   0.550   1.538   0.970 -0.1522  0.3207 -0.0616
 7086SOL     OW22067   3.887   0.347   2.508  0.0537  0.3600  0.1819
 7086SOL    HW122068   3.873   0.397   2.427 -0.6989  0.8388  0.5955
 7086SOL    HW222069   3.961   0.390   2.550  2.0823 -1.3796 -1.3890
 7087SOL     OW22070   3.506   0.634   1.886 -0.2990  0.4400 -0.3771
 7087SOL    HW122071   3.570   0.684   1.937 -1.2918  1.3552  0.0159
 7087SOL    HW222072   3.506   0.676   1.800  0.3920 -0.2351 -0.7075
 7088SOL     OW22073   5.695   5.330   0.667  0.2622  0.0301 -0.0045
 7088SOL    HW122074   5.703   5.409   0.614 -1.5150  0.6561  0.5910
 7088SOL    HW222075   5.680   5.260   0.603  1.6557  0.1655 -0.5211
 7089SOL     OW22076   7.462   1.018   5.108 -0.0266 -0.1843 -0.2942
 7089SOL    HW122077   7.506   0.993   5.189 -1.3065 -0.6482  0.2841
 7089SOL    HW222078   7.481   1.112   5.098  2.3548 -0.6681 -0.9134
 7090SOL     OW22079   4.293   6.309   5.961  0.1711 -0.0483  0.3586
 7090SOL    HW122080   4.201   6.285   5.966  0.2778 -0.4511  0.4817
 7090SOL    HW222081   4.296   6.382   5.899 -0.2059 -0.1690  0.1945
 7091SOL     OW22082   3.423   4.347   2.291  0.2707 -0.0577 -0.3846
 7091SOL    HW122083   3.342   4.305   2.319  1.2793 -0.2043  2.7819
 7091SOL    HW222084   3.483   4.273   2.274  0.8279  0.0057  1.1366
 7092SOL     OW22085   6.210   0.614   2.786 -0.0538  0.0649 -0.4055
 7092SOL    HW122086   6.198   0.556   2.711 -0.4834  0.3819 -0.5863
 7092SOL    HW222087   6.198   0.702   2.750  2.9725  0.4750 -0.6489
 7093SOL     OW22088   5.021   4.946   5.935 -0.2813  0.3989 -0.2359
 7093SOL    HW122089   4.936   4.984   5.911 -1.0085 -0.9705  0.0753
 7093SOL    HW222090   5.085   4.995   5.883 -1.2343  1.5542 -0.3696
 7094SOL     OW22091   1.905   3.347   6.510 -0.5729  0.2691  0.1586
 7094SOL    HW122092   1.976   3.287   6.534  0.9625  0.7360 -2.7469
 7094SOL    HW222093   1.848   3.294   6.454 -0.0983  1.0295 -1.0782
 7095SOL     OW22094   1.509   3.479   5.038 -0.0439 -0.1285 -0.0832
 7095SOL    HW122095   1.536   3.517   5.122 -1.8138 -0.3011  0.6033
 7095SOL    HW222096   1.464   3.551   4.993 -1.2695 -0.7054  0.1853
 7096SOL     OW22097   3.289   7.322   1.303  0.5938 -0.4775 -0.2299
 7096SOL    HW122098   3.362   7.346   1.246  0.6204 -0.0855 -0.0309
 7096SOL    HW222099   3.213   7.367   1.265  0.7368  0.3613  0.4367
 7097SOL     OW22100   2.848   6.030   2.033 -0.0415 -0.3287 -0.7898
 7097SOL    HW122101   2.886   6.055   2.118  0.3177 -2.6509 -0.1812
 7097SOL    HW222102   2.755   6.021   2.050  0.0860 -1.2112 -0.4960
 7098SOL     OW22103   1.272   0.911   0.593 -0.4857 -0.3203 -0.2676
 7098SOL    HW122104   1.358   0.922   0.554 -0.7409 -0.1095 -0.7921
 7098SOL    HW222105   1.266   0.981   0.659 -0.3186 -0.2366 -0.3402
 7099SOL     OW22106   0.580   5.062   2.615  0.2764  0.2232 -0.6170
 7099SOL    HW122107   0.518   5.056   2.542  1.8306  1.3223 -2.1015
 7099SOL    HW222108   0.536   5.119   2.678 -1.3905 -1.3164 -0.3098
 7100SOL     OW22109   4.148   1.554   0.777 -0.1434  0.2259  0.2081
 7100SOL    HW122110   4.178   1.640   0.804  1.4809 -0.2335 -0.0097
 7100SOL    HW222111   4.154   1.555   0.681 -1.1728  0.2234  0.1339
 7101SOL     OW22112   4.491   7.828   1.678  0.2407 -0.0709 -0.4076
 7101SOL    HW122113   4.544   7.894   1.724 -0.2473  0.1718 -0.1890
 7101SOL    HW222114   4.480   7.864   1.590 -2.3413  1.5419  0.4407
 7102SOL     OW22115   6.897   7.007   7.004 -0.6057  0.6920 -0.1525
 7102SOL    HW122116   6.946   6.989   6.924 -3.0898 -0.6056 -1.4989
 7102SOL    HW222117   6.859   7.094   6.991  0.7096  1.4212  0.6186
 7103SOL     OW22118   3.711   3.460   6.740 -0.2445 -0.2793  0.2686
 7103SOL    HW122119   3.756   3.425   6.816  1.6667 -1.1384 -1.1803
 7103SOL    HW222120   3.639   3.400   6.724  0.4689 -1.1694  0.3203
 7104SOL     OW22121   7.353   0.842   7.345  0.5552 -0.1351 -0.5080
 7104SOL    HW122122   7.269   0.796   7.353  0.4411  0.1325 -0.1298
 7104SOL    HW222123   7.348   0.885   7.259 -0.1517  0.7557 -0.0449
 7105SOL     OW22124   7.563   0.335   6.627  0.1962  0.0769 -0.2330
 7105SOL    HW122125   7.573   0.395   6.553 -0.9551  0.8862  0.2246
 7105SOL    HW222126   7.628   0.363   6.691 -1.4076  2.0218  0.6807
 7106SOL     OW22127   6.413   2.429   2.894 -0.0002 -0.2119  0.2070
 7106SOL    HW122128   6.397   2.385   2.810 -1.1714 -0.2446  0.4415
 7106SOL    HW222129   6.499   2.471   2.882  0.1438 -0.7558 -0.7768
 7107SOL     OW22130   6.570   4.567   4.832  0.0535  0.0680  0.7217
 7107SOL    HW122131   6.621   4.639   4.870  0.2584 -0.0533  0.6784
 7107SOL    HW222132   6.480   4.588   4.854 -0.2879  2.0260 -1.9278
 7108SOL     OW22133   6.983   4.608   2.907  0.1827  0.5553  0.1489
 7108SOL    HW122134   6.893   4.630   2.929 -0.1319  0.6437 -1.1425
 7108SOL    HW222135   6.976   4.550   2.832  1.0850 -2.1844  2.0235
 7109SOL     OW22136   6.500   2.814   4.314  0.6470  0.2748 -0.3151
 7109SOL    HW122137   6.415   2.814   4.357  0.8713 -1.7853  0.2347
 7109SOL    HW222138   6.481   2.841   4.224 -0.1197  2.6304  0.4876
 7110SOL     OW22139   5.492   7.550   3.752 -0.1509  0.1387  0.0633
 7110SOL    HW122140   5.580   7.513   3.746 -1.1454 -2.2672 -1.1518
 7110SOL    HW222141   5.495   7.606   3.829  2.4268  0.1661  0.0460
 7111SOL     OW22142   4.264   7.565   0.976 -0.0436 -0.0899 -0.3374
 7111SOL    HW122143   4.316   7.493   0.942 -0.6507 -1.2217  1.0111
 7111SOL    HW222144   4.236   7.614   0.898  1.6452 -0.3953 -1.1731
 7112SOL     OW22145   3.802   6.009   0.309  0.4231 -0.4709  0.3233
 7112SOL    HW122146   3.784   5.923   0.346 -2.0088 -1.2668 -2.3009
 7112SOL    HW222147   3.794   6.069   0.383 -1.1451 -2.2151  1.6753
 7113SOL     OW22148   5.740   7.466   7.044 -0.2645  0.5128  0.2109
 7113SOL    HW122149   5.827   7.442   7.076  0.1889  0.4254 -1.0175
 7113SOL    HW222150   5.727   7.410   6.967 -1.3807  0.5707  0.3478
 7114SOL     OW22151   7.682   1.230   2.381 -0.0896 -0.3574  0.0798
 7114SOL    HW122152   7.774   1.214   2.404  0.2967 -1.2369 -1.9174
 7114SOL    HW222153   7.659   1.308   2.431  1.7269 -0.1262  0.6526
 7115SOL     OW22154   1.031   2.135   3.398 -0.0184 -0.7557 -0.3906
 7115SOL    HW122155   1.119   2.131   3.436 -0.5120 -0.1432  0.8527
 7115SOL    HW222156   1.032   2.215   3.345  0.5441 -1.3979 -1.3808
 7116SOL     OW22157   7.359   2.536   1.453  0.2200 -0.6500 -0.4308
 7116SOL    HW122158   7.312   2.567   1.531  0.4148  0.9239 -0.8997
 7116SOL    HW222159   7.301   2.557   1.380  0.1736 -1.8364 -0.7609
 7117SOL     OW22160   2.100   5.947   2.562  0.4021 -0.2567  0.2542
 7117SOL    HW122161   2.181   5.903   2.536  0.4396  0.7582 -1.5040
 7117SOL    HW222162   2.116   5.978   2.651  2.2307  0.5312 -0.3064
 7118SOL     OW22163   5.968   2.857   7.502 -0.0122  0.0026  0.0240
 7118SOL    HW122164   5.901   2.789   7.495 -0.6254  0.4433  1.2787
 7118SOL    HW222165   6.041   2.825   7.449 -0.4393 -1.4448  0.2690
 7119SOL     OW22166   1.524   6.462   2.301  0.0704 -0.0507  0.1904
 7119SOL    HW122167   1.617   6.481   2.284  0.1092  0.1975  0.6584
 7119SOL    HW222168   1.481   6.479   2.217  0.5407 -0.8144 -0.2108
 7120SOL     OW22169   0.243   6.104   0.756  0.6077 -0.4808 -0.1517
 7120SOL    HW122170   0.214   6.105   0.847  1.6512 -0.5175  0.1928
 7120SOL    HW222171   0.232   6.194   0.727 -1.6426 -0.8442 -0.6480
 7121SOL     OW22172   5.954   1.935   2.360 -0.1499 -0.1890 -0.3081
 7121SOL    HW122173   5.912   1.850   2.374 -0.5573  0.3815  2.6226
 7121SOL    HW222174   5.891   1.999   2.395  0.7853  1.1930 -1.0592
 7122SOL     OW22175   2.365   0.784   5.061 -0.6311  0.3387  0.3981
 7122SOL    HW122176   2.401   0.866   5.026  1.4032 -1.3148 -1.7643
 7122SOL    HW222177   2.294   0.762   5.000  2.2099 -1.9872 -2.4408
 7123SOL     OW22178   7.494   3.600   6.716 -0.1217  0.1147  0.2212
 7123SOL    HW122179   7.426   3.573   6.777  0.3999  1.7544  1.6003
 7123SOL    HW222180   7.576   3.573   6.758  0.1846 -0.3178 -0.6134
 7124SOL     OW22181   5.577   1.971   7.862 -0.2825 -0.3112 -0.3016
 7124SOL    HW122182   5.596   2.063   7.881  0.5346 -0.3665 -0.8019
 7124SOL    HW222183   5.501   1.950   7.917 -0.4563  0.6494 -0.1641
 7125SOL     OW22184   3.356   6.374   5.672  0.5981 -0.3406 -0.0824
 7125SOL    HW122185   3.318   6.293   5.638  0.8555 -0.6161  0.2714
 7125SOL    HW222186   3.350   6.436   5.599 -4.7273  1.1396  1.1438
 7126SOL     OW22187   6.976   0.639   6.639  0.3398 -0.4206 -0.1069
 7126SOL    HW122188   6.991   0.557   6.593 -0.8316 -0.4816 -0.4072
 7126SOL    HW222189   6.884   0.635   6.666  0.7498  0.0061  1.4602
 7127SOL     OW22190   1.572   6.279   4.667 -0.1435 -0.0891  0.2018
 7127SOL    HW122191   1.524   6.261   4.586 -0.5887 -2.4458  0.9134
 7127SOL    HW222192   1.513   6.252   4.737 -0.1805  2.8613  1.4436
 7128SOL     OW22193   1.014   0.183   0.869  0.1973  0.4272 -0.7528
 7128SOL    HW122194   1.033   0.270   0.834  0.7637  1.6076  2.1523
 7128SOL    HW222195   1.100   0.141   0.875  0.1618  0.3829 -0.5250
 7129SOL     OW22196   3.600   4.630   6.451  0.0513  0.6296 -0.4311
 7129SOL    HW122197   3.582   4.718   6.416  1.5616  1.6708  1.2637
 7129SOL    HW222198   3.582   4.638   6.544 -0.7297 -1.1783 -0.3927
 7130SOL     OW22199   0.540   0.945   4.577  0.1506 -0.1641  0.5167
 7130SOL    HW122200   0.472   0.940   4.510  0.1321 -0.2602  0.5430
 7130SOL    HW222201   0.493   0.936   4.659  0.0050  1.3059  0.6117
 7131SOL     OW22202   3.415   6.830   6.366  0.1297  0.0249  0.0671
 7131SOL    HW122203   3.332   6.874   6.387 -0.7132 -2.6079  2.9571
 7131SOL    HW222204   3.483   6.890   6.396 -0.7735  1.3097 -0.3701
 7132SOL     OW22205   5.942   2.676   4.610  0.4361  0.4932  0.2879
 7132SOL    HW122206   5.921   2.598   4.560  0.6966 -0.1453  1.1477
 7132SOL    HW222207   5.985   2.643   4.689 -0.7748  1.4093  1.3644
 7133SOL     OW22208   1.430   3.860   1.568  0.1003 -0.2829 -0.4410
 7133SOL    HW122209   1.482   3.830   1.494 -0.4503 -0.0803 -0.9217
 7133SOL    HW222210   1.339   3.845   1.541 -0.1354  0.4773 -0.1125
 7134SOL     OW22211   7.536   5.304   3.934  0.1374 -0.1201 -0.0555
 7134SOL    HW122212   7.622   5.300   3.976  0.4309 -0.3645 -0.6657
 7134SOL    HW222213   7.474   5.280   4.003  0.4342  1.2873  0.7360
 7135SOL     OW22214   6.218   3.308   1.561 -0.2766  0.1966 -0.1363
 7135SOL    HW122215   6.218   3.375   1.630  1.1728 -0.1301  0.2219
 7135SOL    HW222216   6.268   3.347   1.490  0.2232 -0.3244 -0.0843
 7136SOL     OW22217   1.138   7.125   5.834 -0.1151  0.4772  0.1160
 7136SOL    HW122218   1.204   7.096   5.898 -0.9970 -0.3053  0.7024
 7136SOL    HW222219   1.180   7.196   5.787  1.5519 -0.6895 -0.2489
 7137SOL     OW22220   4.924   2.626   3.041 -0.0430 -0.1907  0.2962
 7137SOL    HW122221   4.850   2.590   3.090  0.5668  1.2644  2.4592
 7137SOL    HW222222   4.983   2.551   3.029 -0.8998 -0.9119  0.4646
 7138SOL     OW22223   2.047   2.321   0.498 -0.5270 -0.0946  0.3062
 7138SOL    HW122224   2.026   2.361   0.413  0.7147 -1.0816 -0.5216
 7138SOL    HW222225   2.136   2.352   0.517  0.5654 -2.4889 -0.4753
 7139SOL     OW22226   2.428   7.530   1.667 -0.0261  0.0236  0.5957
 7139SOL    HW122227   2.332   7.530   1.672 -0.0411  0.6942  0.3959
 7139SOL    HW222228   2.447   7.488   1.584 -0.2377  2.0511 -0.5308
 7140SOL     OW22229   0.839   2.645   4.073  0.4798  0.9038  0.2901
 7140SOL    HW122230   0.752   2.607   4.064  1.0597 -0.3889 -0.1148
 7140SOL    HW222231   0.872   2.651   3.983  0.6287  1.8495  0.3985
 7141SOL     OW22232   7.917   5.486   6.917  0.2249  0.1325 -0.1977
 7141SOL    HW122233   7.852   5.510   6.984  0.7519 -0.8104  0.6735
 7141SOL    HW222234   7.926   5.391   6.925  3.7514  0.4918  1.6777
 7142SOL     OW22235   7.208   6.926   5.364 -0.8490 -0.1143  0.6704
 7142SOL    HW122236   7.114   6.909   5.366 -0.7666 -1.2001 -1.6793
 7142SOL    HW222237   7.216   7.016   5.398 -2.4817 -0.6366  2.6688
 7143SOL     OW22238   6.931   7.796   5.709 -0.4479  0.2633 -0.2807
 7143SOL    HW122239   6.837   7.781   5.712 -0.2154 -1.1329  1.0755
 7143SOL    HW222240   6.947   7.864   5.775 -0.5473  0.8430 -0.8450
 7144SOL     OW22241   4.143   7.196   5.017  0.1971  0.1740 -0.8093
 7144SOL    HW122242   4.199   7.271   5.038 -0.9087  0.1137  3.1907
 7144SOL    HW222243   4.203   7.121   5.016  0.7167  0.5785 -0.4278
 7145SOL     OW22244   0.715   2.298   5.523  0.3744 -0.6787 -0.3763
 7145SOL    HW122245   0.636   2.337   5.486 -0.0552  0.4794  1.6029
 7145SOL    HW222246   0.752   2.246   5.452 -1.5857 -0.3954 -1.6813
 7146SOL     OW22247   7.133   5.162   0.595  0.1242 -0.0005 -0.6747
 7146SOL    HW122248   7.180   5.216   0.531 -1.4940  0.8485 -1.1882
 7146SOL    HW222249   7.070   5.221   0.636 -0.6329 -1.1338 -0.1341
 7147SOL     OW22250   3.531   6.968   6.658  0.2942 -0.2602 -0.0054
 7147SOL    HW122251   3.620   6.941   6.635 -0.7877 -1.7809 -2.9889
 7147SOL    HW222252   3.480   6.887   6.658 -1.2757  0.6652  0.7837
 7148SOL     OW22253   2.902   0.876   6.696  0.0233  0.0230  0.2276
 7148SOL    HW122254   2.826   0.835   6.656  1.7980 -2.8622 -0.4979
 7148SOL    HW222255   2.876   0.893   6.786 -1.5317 -0.6875 -0.0617
 7149SOL     OW22256   4.255   2.400   3.385  0.3835  0.3133  0.1747
 7149SOL    HW122257   4.180   2.441   3.428  0.1181  0.3129 -0.2801
 7149SOL    HW222258   4.314   2.473   3.367  1.2751  0.1143  2.0344
 7150SOL     OW22259   1.959   6.276   3.588 -0.0993 -0.0093 -0.0981
 7150SOL    HW122260   1.888   6.310   3.535 -1.3132 -1.0291  0.8049
 7150SOL    HW222261   1.962   6.182   3.567 -0.2622 -0.3295  1.2235
 7151SOL     OW22262   4.012   1.907   2.274 -0.1358 -0.3909 -0.1465
 7151SOL    HW122263   4.017   1.917   2.179  1.0335 -2.2982 -0.3490
 7151SOL    HW222264   4.086   1.958   2.307  0.7373 -1.4059 -0.4674
 7152SOL     OW22265   5.075   3.642   0.554  0.1281  0.2638  0.1132
 7152SOL    HW122266   5.149   3.587   0.530  0.7836  1.0289  0.3309
 7152SOL    HW222267   5.011   3.629   0.483 -0.2207 -1.6198  0.7259
 7153SOL     OW22268   7.665   5.862   5.215  0.0264 -0.5331 -0.1256
 7153SOL    HW122269   7.680   5.812   5.135  1.7605  0.0634 -0.2263
 7153SOL    HW222270   7.590   5.919   5.194  0.6544 -0.1487 -1.4610
 7154SOL     OW22271   0.073   3.126   7.194 -0.2038  0.0006 -0.0777
 7154SOL    HW122272   0.053   3.196   7.131 -2.3048  0.8528  1.4292
 7154SOL    HW222273   0.144   3.162   7.247 -0.2664  0.3845 -0.2470
 7155SOL     OW22274   1.028   5.690   2.597 -0.4042  0.3219 -0.0755
 7155SOL    HW122275   1.115   5.695   2.558 -0.6006  0.2369 -0.5360
 7155SOL    HW222276   1.039   5.723   2.686  0.0616  0.4893 -0.1938
 7156SOL     OW22277   6.388   1.615   7.160 -0.3954  0.1096 -0.1112
 7156SOL    HW122278   6.307   1.574   7.131 -0.6766  1.1804 -0.9438
 7156SOL    HW222279   6.456   1.575   7.106 -0.4186 -0.4889  0.2964
 7157SOL     OW22280   0.903   6.831   1.168 -0.0939 -0.3140  0.2980
 7157SOL    HW122281   0.909   6.758   1.107 -0.9442 -0.3655  0.2579
 7157SOL    HW222282   0.883   6.907   1.112  1.5908  0.1181  0.2441
 7158SOL     OW22283   6.145   5.195   5.206 -0.1373  0.2989 -0.6751
 7158SOL    HW122284   6.141   5.133   5.133  0.6616 -0.0431 -0.4408
 7158SOL    HW222285   6.218   5.164   5.260 -1.7058 -0.4728  1.1716
 7159SOL     OW22286   1.901   1.107   7.040  0.2676  0.6360 -0.3178
 7159SOL    HW122287   1.868   1.193   7.012 -0.8161  0.3582  0.0695
 7159SOL    HW222288   1.986   1.099   6.998 -0.7042  0.8185 -2.4082
 7160SOL     OW22289   7.694   2.838   6.755 -0.0813  0.8257 -0.4222
 7160SOL    HW122290   7.674   2.748   6.781  0.5021 -0.2026 -3.1995
 7160SOL    HW222291   7.609   2.881   6.748 -0.3699  0.4886  0.8340
 7161SOL     OW22292   1.006   1.810   5.095 -0.5457  0.0362  0.0865
 7161SOL    HW122293   1.026   1.807   5.002 -0.4708  1.5072  0.0376
 7161SOL    HW222294   1.010   1.718   5.123  0.7159 -0.2941 -1.0740
 7162SOL     OW22295   1.526   3.000   3.691 -0.3781  0.8479  0.1268
 7162SOL    HW122296   1.572   3.082   3.673  1.2578 -0.1149 -0.3220
 7162SOL    HW222297   1.589   2.948   3.741 -0.7160 -0.7707 -1.0480
 7163SOL     OW22298   4.195   7.494   4.517 -0.0547 -0.1146  0.1240
 7163SOL    HW122299   4.181   7.405   4.484  0.5143 -0.2186  0.1542
 7163SOL    HW222300   4.137   7.549   4.464  1.4285 -0.1523 -1.6535
 7164SOL     OW22301   0.568   6.582   2.264 -0.4480 -0.1850 -0.4559
 7164SOL    HW122302   0.535   6.651   2.321  1.0012  0.5293 -0.4573
 7164SOL    HW222303   0.659   6.568   2.291 -0.3008 -1.1506 -1.3488
 7165SOL     OW22304   5.055   1.803   6.779  0.0459  0.0882  0.0357
 7165SOL    HW122305   4.984   1.811   6.842 -0.0678  2.5206 -0.3065
 7165SOL    HW222306   5.012   1.790   6.695  0.0568  0.2700  0.0019
 7166SOL     OW22307   7.263   0.225   3.819 -0.2555 -0.7656  0.4801
 7166SOL    HW122308   7.353   0.259   3.821 -0.7984  0.9398 -1.0814
 7166SOL    HW222309   7.238   0.218   3.911  0.9364  0.3009  0.9084
 7167SOL     OW22310   0.879   4.895   2.808  0.2427 -0.5322 -0.1387
 7167SOL    HW122311   0.808   4.897   2.872  2.1850 -0.6703  2.1610
 7167SOL    HW222312   0.870   4.810   2.764 -0.5473 -0.8694  0.6538
 7168SOL     OW22313   6.303   6.881   0.366 -0.3904  0.8986 -0.1880
 7168SOL    HW122314   6.340   6.954   0.416 -1.2263  1.2302 -0.0272
 7168SOL    HW222315   6.323   6.902   0.275  0.0487  0.9274 -0.0898
 7169SOL     OW22316   0.383   6.325   7.412 -0.3104  0.3791 -0.2236
 7169SOL    HW122317   0.344   6.243   7.384  0.1786  0.4627 -1.1996
 7169SOL    HW222318   0.335   6.392   7.364  0.0802  0.5821 -0.3314
 7170SOL     OW22319   0.693   5.719   4.944 -0.4101 -0.0685 -0.0507
 7170SOL    HW122320   0.629   5.765   4.890  0.7351  1.8955  0.1705
 7170SOL    HW222321   0.762   5.694   4.882 -1.0487 -1.6416 -0.1826
 7171SOL     OW22322   6.302   6.531   4.301 -0.4639 -0.3311 -0.1456
 7171SOL    HW122323   6.381   6.542   4.354  0.7477 -2.1185 -1.4582
 7171SOL    HW222324   6.282   6.438   4.308 -1.9857 -0.0575 -0.5205
 7172SOL     OW22325   6.201   3.015   5.089 -0.3628 -0.0667  0.6013
 7172SOL    HW122326   6.116   2.973   5.076 -0.1576 -0.4945  0.6054
 7172SOL    HW222327   6.189   3.072   5.165 -0.8968  0.5776  0.0329
 7173SOL     OW22328   4.384   1.368   4.678  0.0791  0.3122 -0.4244
 7173SOL    HW122329   4.293   1.384   4.704  0.4878  1.1274  0.5173
 7173SOL    HW222330   4.380   1.285   4.630 -1.1819  0.4157 -0.5374
 7174SOL     OW22331   0.410   5.477   2.827  0.0803  0.7569 -0.2866
 7174SOL    HW122332   0.410   5.558   2.878  2.9913  0.7113 -0.0437
 7174SOL    HW222333   0.457   5.500   2.746 -0.3418 -0.3265 -0.8533
 7175SOL     OW22334   2.298   7.613   7.101  0.1963  0.2160 -0.1728
 7175SOL    HW122335   2.218   7.666   7.107 -0.0640 -0.0905 -0.8036
 7175SOL    HW222336   2.273   7.540   7.044  1.1049  0.4540 -0.8905
 7176SOL     OW22337   7.807   3.501   7.434 -0.0264 -0.2485 -0.1009
 7176SOL    HW122338   7.773   3.412   7.449  0.6404 -0.4521  0.2432
 7176SOL    HW222339   7.730   3.557   7.442 -0.1011 -0.5646  1.9863
 7177SOL     OW22340   7.717   0.735   1.242  0.1787 -0.0136 -0.3848
 7177SOL    HW122341   7.786   0.700   1.298 -0.1386 -0.7308 -0.4261
 7177SOL    HW222342   7.760   0.804   1.191  1.2338 -1.3807 -1.4192
 7178SOL     OW22343   7.505   6.433   4.011  0.1487 -1.0470 -0.6044
 7178SOL    HW122344   7.533   6.507   4.065 -1.0764 -0.6816 -0.4503
 7178SOL    HW222345   7.585   6.406   3.966  0.7021  0.1289 -0.3814
 7179SOL     OW22346   5.665   7.569   6.306  0.0312 -0.1058 -0.8227
 7179SOL    HW122347   5.705   7.621   6.237 -0.0511  2.9527  1.2260
 7179SOL    HW222348   5.726   7.496   6.321  1.1661  0.4497 -2.5135
 7180SOL     OW22349   0.542   0.204   3.322 -0.6077  0.3620 -0.4167
 7180SOL    HW122350   0.482   0.253   3.378  0.4972  1.1628  0.1080
 7180SOL    HW222351   0.607   0.168   3.381  0.9545  1.7645 -1.1759
 7181SOL     OW22352   3.379   5.911   7.377  0.4362  0.3422  0.3712
 7181SOL    HW122353   3.462   5.872   7.349 -0.1348  1.5398 -3.6086
 7181SOL    HW222354   3.404   5.993   7.419  1.2927  0.0502  0.4607
 7182SOL     OW22355   1.820   6.870   6.839  0.0501 -0.0616 -0.0777
 7182SOL    HW122356   1.799   6.777   6.824  0.5964 -0.1475 -0.3680
 7182SOL    HW222357   1.914   6.876   6.821 -0.1867  0.7669 -1.2059
 7183SOL     OW22358   3.018   7.714   1.197 -0.0159 -0.3326  0.0099
 7183SOL    HW122359   3.059   7.799   1.179  0.9889 -0.5281  1.2845
 7183SOL    HW222360   3.016   7.670   1.112 -0.4292  0.9059 -0.6405
 7184SOL     OW22361   0.483   1.405   6.840 -0.2030 -0.4998  0.0526
 7184SOL    HW122362   0.433   1.326   6.821  1.0734 -1.1495 -0.7372
 7184SOL    HW222363   0.520   1.389   6.927  0.6722 -1.1288 -0.4173
 7185SOL     OW22364   5.894   7.217   0.740 -0.2120  0.5038  0.2494
 7185SOL    HW122365   5.944   7.149   0.695 -1.9845 -1.3674  0.9398
 7185SOL    HW222366   5.900   7.194   0.832  0.6729  2.4150  0.7314
 7186SOL     OW22367   1.009   7.240   0.897 -0.2382 -0.3771 -0.8100
 7186SOL    HW122368   0.979   7.316   0.948  0.3215  0.7659 -2.1036
 7186SOL    HW222369   0.929   7.197   0.869 -0.6512  0.7715 -1.5059
 7187SOL     OW22370   5.639   6.103   6.310  0.0235 -0.6791 -1.1256
 7187SOL    HW122371   5.684   6.056   6.240  0.0292 -0.1214 -1.5076
 7187SOL    HW222372   5.709   6.153   6.353 -0.2959  0.7502 -2.1735
 7188SOL     OW22373   1.040   3.317   1.574  0.3000 -0.0601  0.2186
 7188SOL    HW122374   1.122   3.356   1.543  1.3115 -0.8733  1.7649
 7188SOL    HW222375   1.064   3.230   1.605 -0.3367  0.9699  4.1741
 7189SOL     OW22376   1.492   2.989   5.952 -0.0337  0.1042 -0.0858
 7189SOL    HW122377   1.580   2.997   5.989  0.1461 -1.1099 -0.2139
 7189SOL    HW222378   1.468   2.898   5.967 -0.2672 -0.2305 -2.2801
 7190SOL     OW22379   6.277   3.625   3.247  0.0099  0.4086  0.2571
 7190SOL    HW122380   6.286   3.681   3.170  1.2683  0.2715  0.2849
 7190SOL    HW222381   6.206   3.565   3.224 -0.9379  1.5892 -0.0209
 7191SOL     OW22382   2.080   0.298   2.061  0.1965  0.1133 -0.5036
 7191SOL    HW122383   2.026   0.230   2.102  0.9943  0.0527  0.5125
 7191SOL    HW222384   2.018   0.364   2.030 -0.6948 -1.7200 -2.8208
 7192SOL     OW22385   4.813   0.133   2.802  0.3631 -0.3652  0.3257
 7192SOL    HW122386   4.857   0.200   2.853  0.1985  0.2178 -0.2894
 7192SOL    HW222387   4.721   0.159   2.802  0.5536  0.4837 -1.4910
 7193SOL     OW22388   7.439   1.472   7.140 -0.2094  0.3283  0.0210
 7193SOL    HW122389   7.422   1.403   7.204  1.4946  0.9437  1.1796
 7193SOL    HW222390   7.468   1.425   7.061 -0.5522 -0.3433  0.2867
 7194SOL     OW22391   0.436   5.575   7.805  0.2570  0.1295  0.0337
 7194SOL    HW122392   0.364   5.514   7.788  1.1315 -1.0474  0.3776
 7194SOL    HW222393   0.513   5.531   7.770  0.9180  1.0670  0.2671
 7195SOL     OW22394   2.218   6.005   1.216 -0.1950 -0.1264 -0.0082
 7195SOL    HW122395   2.265   5.932   1.256  2.0025  1.5199  0.6473
 7195SOL    HW222396   2.131   6.004   1.256  0.4970 -1.1352  1.5408
 7196SOL     OW22397   4.816   2.216   1.198 -0.1139 -0.4457  0.0132
 7196SOL    HW122398   4.730   2.235   1.237 -0.2745 -0.7735 -0.1794
 7196SOL    HW222399   4.865   2.298   1.208  0.0629 -0.6956  1.4607
 7197SOL     OW22400   4.508   6.718   1.973 -0.2537  0.6316 -0.1284
 7197SOL    HW122401   4.570   6.676   1.913  0.3463 -0.6445  1.3323
 7197SOL    HW222402   4.495   6.654   2.043 -3.0051  0.9811 -0.2272
 7198SOL     OW22403   6.394   2.159   0.761 -1.0765 -0.0148  0.4182
 7198SOL    HW122404   6.367   2.146   0.851  0.0719 -1.5822  0.5770
 7198SOL    HW222405   6.479   2.202   0.767  0.3385 -2.6022  0.2420
 7199SOL     OW22406   6.472   3.391   3.215 -0.3480  0.2801 -0.1457
 7199SOL    HW122407   6.440   3.328   3.151 -0.2344 -0.7199  0.7488
 7199SOL    HW222408   6.449   3.477   3.178 -1.4816 -0.3115 -0.8831
 7200SOL     OW22409   7.936   0.913   6.388  0.1079 -0.0671 -0.0838
 7200SOL    HW122410   7.881   0.918   6.467  0.7114  0.5172  0.3063
 7200SOL    HW222411   8.020   0.951   6.415  0.2303  0.3919 -1.0939
 7201SOL     OW22412   1.793   6.595   4.256 -0.0854 -0.1107  0.4758
 7201SOL    HW122413   1.783   6.502   4.276 -2.0876 -0.0850 -0.2072
 7201SOL    HW222414   1.849   6.629   4.326 -1.0302 -1.4295  1.9356
 7202SOL     OW22415   7.579   7.773   2.369 -0.6053  0.3980 -0.0928
 7202SOL    HW122416   7.629   7.807   2.295 -1.3000  2.7051  0.4049
 7202SOL    HW222417   7.500   7.828   2.371 -0.0411  1.3088  3.0636
 7203SOL     OW22418   5.312   7.372   5.506 -0.1102  0.5031  0.3436
 7203SOL    HW122419   5.273   7.457   5.522  0.6797  1.1218 -0.8273
 7203SOL    HW222420   5.395   7.374   5.554 -0.3145  0.1921  0.7170
 7204SOL     OW22421   6.829   0.921   6.709  0.0006 -0.1757 -0.0276
 7204SOL    HW122422   6.811   0.850   6.648  1.1087 -1.8353  1.4936
 7204SOL    HW222423   6.747   0.932   6.758  0.1707 -1.2369  0.5204
 7205SOL     OW22424   5.200   4.498   4.339  0.0453 -0.1419 -0.3346
 7205SOL    HW122425   5.238   4.450   4.413 -0.6432  0.9083  0.7358
 7205SOL    HW222426   5.110   4.465   4.334 -0.2316  0.5407 -0.0088
 7206SOL     OW22427   3.963   2.604   1.664 -0.1354 -0.4276  0.9167
 7206SOL    HW122428   4.017   2.645   1.731  0.0631 -0.6361  0.8841
 7206SOL    HW222429   4.017   2.604   1.585 -0.3737 -0.1683  0.7499
 7207SOL     OW22430   1.937   2.277   5.906  0.2367  0.2051  0.3372
 7207SOL    HW122431   2.026   2.243   5.898  0.4163  0.8409 -0.5305
 7207SOL    HW222432   1.924   2.290   6.000  1.1441  0.3083  0.4532
 7208SOL     OW22433   6.762   5.716   3.381 -0.2261 -0.6035  0.1155
 7208SOL    HW122434   6.748   5.673   3.465  1.5511  1.1502  1.4142
 7208SOL    HW222435   6.685   5.771   3.368 -0.5736 -0.9937  0.5163
 7209SOL     OW22436   0.456   4.812   3.536  0.4409  0.4951  0.3819
 7209SOL    HW122437   0.436   4.904   3.553 -0.2359  0.2462  0.9673
 7209SOL    HW222438   0.375   4.775   3.503  1.0711  0.3985 -1.1290
 7210SOL     OW22439   3.653   2.671   3.939  0.1961  0.1674  0.3954
 7210SOL    HW122440   3.621   2.581   3.949 -0.9841  0.4333 -0.6400
 7210SOL    HW222441   3.728   2.663   3.880 -0.7107 -0.0387 -0.7805
 7211SOL     OW22442   0.702   0.933   2.336  0.4162  0.1759  0.8388
 7211SOL    HW122443   0.634   0.897   2.394  0.5989  0.0478  0.9738
 7211SOL    HW222444   0.718   0.864   2.272 -0.1445  0.5064  0.3256
 7212SOL     OW22445   5.301   4.924   4.088 -0.1836  0.2625  0.1402
 7212SOL    HW122446   5.333   4.871   4.015  0.1827 -0.6153  0.9197
 7212SOL    HW222447   5.227   4.973   4.052  0.7402  0.7640 -1.1428
 7213SOL     OW22448   1.182   4.664   6.019 -0.2922  0.3486 -0.0277
 7213SOL    HW122449   1.106   4.694   6.069  0.0890  0.2470  0.6312
 7213SOL    HW222450   1.155   4.670   5.927 -0.6854  1.4352  0.1417
 7214SOL     OW22451   7.002   7.748   1.916  0.2457  0.0954  0.2704
 7214SOL    HW122452   6.975   7.694   1.842  1.9407 -1.2784  0.5835
 7214SOL    HW222453   7.055   7.817   1.878  0.6692 -0.2945  0.1529
 7215SOL     OW22454   0.762   2.489   5.199 -0.4803 -0.2549  0.2627
 7215SOL    HW122455   0.677   2.532   5.214 -0.0884  1.2637 -1.5038
 7215SOL    HW222456   0.797   2.474   5.287 -1.2675  1.8650  1.0165
 7216SOL     OW22457   4.669   2.494   4.086  0.2777 -0.5852 -0.2047
 7216SOL    HW122458   4.676   2.561   4.019  0.4425  0.5351  0.8858
 7216SOL    HW222459   4.576   2.472   4.090  0.2350 -0.4716 -0.6126
 7217SOL     OW22460   6.622   2.004   1.085 -0.5420  0.5401  0.1347
 7217SOL    HW122461   6.614   1.910   1.101 -3.6197  0.6658 -0.1253
 7217SOL    HW222462   6.636   2.043   1.172 -0.2197 -0.0582  0.3538
 7218SOL     OW22463   2.229   6.645   1.191  0.2850  0.3778  0.2099
 7218SOL    HW122464   2.224   6.726   1.140 -1.1848  0.1762  0.0046
 7218SOL    HW222465   2.151   6.596   1.167  0.5997 -0.6255  1.1535
 7219SOL     OW22466   5.586   2.914   1.895  0.0628 -0.5512  0.3331
 7219SOL    HW122467   5.615   2.823   1.887  0.4970 -0.3715 -0.2115
 7219SOL    HW222468   5.554   2.921   1.985  0.8667 -1.0126  0.6686
 7220SOL     OW22469   6.442   7.549   2.846 -0.4464  0.4666  0.3514
 7220SOL    HW122470   6.392   7.611   2.794  0.8868 -0.2111 -1.9198
 7220SOL    HW222471   6.417   7.566   2.937 -2.7682  1.8474 -0.4805
 7221SOL     OW22472   5.524   3.561   1.134 -0.9378 -0.1951  0.0544
 7221SOL    HW122473   5.518   3.505   1.056  1.7882 -0.3746 -0.1146
 7221SOL    HW222474   5.497   3.647   1.103 -1.2988 -0.5688 -0.7140
 7222SOL     OW22475   5.792   2.076   3.621  0.1081 -0.1060  0.1378
 7222SOL    HW122476   5.724   2.122   3.572 -0.7821 -2.2975 -0.8246
 7222SOL    HW222477   5.874   2.098   3.575 -0.5721 -1.2277 -1.7432
 7223SOL     OW22478   7.839   4.764   1.373  0.2595  0.3705 -0.2227
 7223SOL    HW122479   7.795   4.847   1.389 -1.7901 -0.6458 -0.2030
 7223SOL    HW222480   7.891   4.749   1.452  0.5237  1.5351 -0.1596
 7224SOL     OW22481   0.937   1.674   0.497  0.4295 -0.0909 -0.3783
 7224SOL    HW122482   0.884   1.645   0.572  0.5930 -1.7101 -0.8586
 7224SOL    HW222483   0.992   1.744   0.532 -2.7356  2.4663 -0.0975
 7225SOL     OW22484   7.919   2.681   0.473 -0.7167 -0.2268 -0.0803
 7225SOL    HW122485   7.864   2.743   0.424  0.1718 -0.5273 -1.5197
 7225SOL    HW222486   8.002   2.682   0.426  0.3939 -0.0939  1.8086
 7226SOL     OW22487   4.790   3.977   6.147  0.2420 -0.3896 -0.7240
 7226SOL    HW122488   4.696   3.994   6.144  0.2597 -0.3604 -1.1259
 7226SOL    HW222489   4.797   3.882   6.138  0.2113 -0.4913  0.1969
 7227SOL     OW22490   1.813   7.528   4.919  0.3692  0.0500 -0.6362
 7227SOL    HW122491   1.883   7.481   4.965 -0.8585 -1.0935  0.1402
 7227SOL    HW222492   1.839   7.524   4.827  1.3928 -0.2417 -0.3518
 7228SOL     OW22493   7.817   5.259   4.021  0.1855  0.2218 -0.3875
 7228SOL    HW122494   7.790   5.192   4.084 -0.1111  0.7395  0.0492
 7228SOL    HW222495   7.841   5.210   3.942 -0.4157 -0.3729 -0.2131
 7229SOL     OW22496   6.125   4.828   3.293  0.3568 -0.0107  0.2776
 7229SOL    HW122497   6.175   4.835   3.212  1.5406 -0.6159  0.9246
 7229SOL    HW222498   6.043   4.874   3.275  0.0419 -1.2168 -1.6640
 7230SOL     OW22499   7.108   2.660   3.632  0.1394 -0.2286  0.2015
 7230SOL    HW122500   7.182   2.649   3.691 -0.0088 -0.8335  0.2883
 7230SOL    HW222501   7.043   2.597   3.664 -0.5317  0.5082  0.3179
 7231SOL     OW22502   4.906   6.058   4.865 -0.1878  0.3651 -0.1567
 7231SOL    HW122503   4.820   6.039   4.902 -0.3934  2.8881  0.8854
 7231SOL    HW222504   4.959   6.085   4.941  1.0226  0.4324 -0.9959
 7232SOL     OW22505   4.585   4.883   2.998 -0.1053 -0.0048  0.2468
 7232SOL    HW122506   4.633   4.952   3.043 -0.0179 -0.8070  1.4318
 7232SOL    HW222507   4.648   4.811   2.990 -0.5772 -0.4213  0.2122
 7233SOL     OW22508   2.860   7.908   5.117  0.5264  0.0701  0.2698
 7233SOL    HW122509   2.872   7.839   5.052 -0.2403 -0.9329  1.1568
 7233SOL    HW222510   2.948   7.939   5.135  0.7565  0.3541 -1.2131
 7234SOL     OW22511   3.278   5.380   4.654 -0.1559  0.0862  0.4439
 7234SOL    HW122512   3.272   5.456   4.596 -1.4985 -0.4430 -0.1499
 7234SOL    HW222513   3.275   5.305   4.596 -1.1134 -0.4455  1.1543
 7235SOL     OW22514   4.782   3.682   7.636 -0.2568  0.1560  0.2782
 7235SOL    HW122515   4.853   3.703   7.697  1.2337  3.6755 -2.2752
 7235SOL    HW222516   4.822   3.691   7.549 -3.2848 -0.0143 -1.2799
 7236SOL     OW22517   4.655   2.939   2.673 -0.0978 -0.2788 -0.1931
 7236SOL    HW122518   4.644   2.909   2.583 -0.2505  0.5060 -0.4465
 7236SOL    HW222519   4.651   3.035   2.666  0.8130 -0.1792  0.5187
 7237SOL     OW22520   4.484   4.002   7.676 -0.4985  0.1260  0.0983
 7237SOL    HW122521   4.392   3.985   7.699  0.1419 -1.5599  1.7062
 7237SOL    HW222522   4.483   4.013   7.581 -2.4683  0.9917  0.1791
 7238SOL     OW22523   7.923   7.146   3.745 -0.3859  0.1845  0.0151
 7238SOL    HW122524   7.929   7.220   3.684 -0.8126 -0.0242 -0.2859
 7238SOL    HW222525   7.866   7.176   3.815 -1.2681 -0.1392 -0.5401
 7239SOL     OW22526   4.456   7.835   1.406 -0.4280 -0.4323 -0.0018
 7239SOL    HW122527   4.445   7.759   1.349 -1.5950 -0.9048  0.8271
 7239SOL    HW222528   4.500   7.900   1.351 -1.7605 -0.7774 -1.5384
 7240SOL     OW22529   3.133   7.613   6.584  0.4452  0.0564  0.2905
 7240SOL    HW122530   3.174   7.665   6.514  0.6407 -0.8106 -0.2553
 7240SOL    HW222531   3.182   7.635   6.663 -0.1866  1.5410  0.2975
 7241SOL     OW22532   3.665   4.756   4.541  0.0015  0.5568 -0.1276
 7241SOL    HW122533   3.739   4.805   4.576 -0.0116 -0.5784  1.5910
 7241SOL    HW222534   3.589   4.790   4.587 -0.0813 -0.6336  0.6439
 7242SOL     OW22535   2.520   5.099   3.421 -0.0684  0.5668  0.5063
 7242SOL    HW122536   2.567   5.182   3.417 -0.8379  1.0069  0.1786
 7242SOL    HW222537   2.588   5.033   3.428  0.6411  1.1250 -0.6942
 7243SOL     OW22538   1.049   7.563   1.516  0.0683 -0.5577 -0.4460
 7243SOL    HW122539   1.051   7.648   1.561 -2.1295 -0.8450  0.3112
 7243SOL    HW222540   1.138   7.529   1.524  0.5225  0.8431  0.8810
 7244SOL     OW22541   6.632   2.978   2.967  0.1308 -0.3328  0.0831
 7244SOL    HW122542   6.574   3.045   2.931 -1.1556 -0.8025  1.1641
 7244SOL    HW222543   6.701   3.026   3.012 -0.3870  0.2721  0.2403
 7245SOL     OW22544   1.753   1.006   4.346  0.4067  0.0581 -0.4223
 7245SOL    HW122545   1.724   1.075   4.405 -0.6375 -1.5569  1.0384
 7245SOL    HW222546   1.672   0.974   4.305  0.3420 -2.5189  1.4760
 7246SOL     OW22547   7.746   3.391   4.215 -0.1901  0.0925  0.3439
 7246SOL    HW122548   7.690   3.448   4.267 -1.1166 -0.8746  0.4523
 7246SOL    HW222549   7.832   3.396   4.256  0.1927  2.6005 -0.5796
 7247SOL     OW22550   4.229   6.279   7.215  0.0361 -0.4161 -0.0342
 7247SOL    HW122551   4.258   6.369   7.203  0.4306 -0.7636 -1.9733
 7247SOL    HW222552   4.309   6.227   7.212 -0.3508 -0.9859 -0.8965
 7248SOL     OW22553   6.376   2.373   6.962 -0.4913  0.4342 -0.1996
 7248SOL    HW122554   6.418   2.358   7.047  0.4211 -1.0992 -0.8806
 7248SOL    HW222555   6.409   2.458   6.934 -0.9636  1.0556  1.0661
 7249SOL     OW22556   0.748   5.230   2.486  0.3646 -0.3495  0.2168
 7249SOL    HW122557   0.685   5.274   2.429  0.9192  2.2520  1.4751
 7249SOL    HW222558   0.694   5.191   2.555  0.0234  1.1461  0.8296
 7250SOL     OW22559   6.889   7.385   1.584 -0.6281 -0.4259 -0.0150
 7250SOL    HW122560   6.877   7.385   1.489  0.4784 -0.6775 -0.1723
 7250SOL    HW222561   6.860   7.298   1.612  1.8415 -1.5325 -0.5602
 7251SOL     OW22562   3.217   3.960   6.191 -0.0619 -0.5110  0.4457
 7251SOL    HW122563   3.231   3.913   6.109 -1.1555 -0.4098  0.1867
 7251SOL    HW222564   3.257   3.905   6.258 -0.7897 -1.5118  0.0669
 7252SOL     OW22565   3.173   0.269   3.924 -0.1068  0.8369 -0.0859
 7252SOL    HW122566   3.150   0.358   3.896  0.3238  2.0542  2.9867
 7252SOL    HW222567   3.098   0.241   3.976 -0.6218 -1.0520 -1.7263
 7253SOL     OW22568   6.744   1.613   2.004  0.1405  0.5549  0.2132
 7253SOL    HW122569   6.703   1.596   1.919  0.6544  0.4384 -0.0078
 7253SOL    HW222570   6.670   1.632   2.062 -0.4943 -2.4848  0.5330
 7254SOL     OW22571   1.804   7.050   0.295  0.4524  0.3332 -0.0047
 7254SOL    HW122572   1.762   6.973   0.256 -0.3721  1.0621 -0.5955
 7254SOL    HW222573   1.843   7.018   0.376 -1.4507 -0.3278  0.6846
 7255SOL     OW22574   4.250   1.790   3.126  0.3720 -0.0184 -0.1473
 7255SOL    HW122575   4.259   1.794   3.221  1.3737  2.3187 -0.2645
 7255SOL    HW222576   4.183   1.724   3.111 -1.4430  1.1077  2.3131
 7256SOL     OW22577   6.245   7.627   3.900 -0.1726  0.0457 -0.3077
 7256SOL    HW122578   6.190   7.641   3.978  1.7935  1.9654  0.8560
 7256SOL    HW222579   6.307   7.560   3.927 -0.4598 -0.4163 -0.7896
 7257SOL     OW22580   7.920   3.552   2.308  0.4441  0.7935 -0.0867
 7257SOL    HW122581   7.867   3.497   2.250  0.2036  0.8131  0.1137
 7257SOL    HW222582   7.856   3.601   2.360  0.6388  0.0423  0.8981
 7258SOL     OW22583   3.596   3.909   1.134 -0.0071 -0.4824 -0.3107
 7258SOL    HW122584   3.526   3.931   1.073 -1.4038 -0.3573  1.2749
 7258SOL    HW222585   3.561   3.837   1.186  1.0511 -0.4107  0.5359
 7259SOL     OW22586   4.342   0.399   7.291  0.7634 -0.4123 -0.1674
 7259SOL    HW122587   4.341   0.305   7.279 -2.0280 -0.5190  0.2552
 7259SOL    HW222588   4.252   0.422   7.314  1.0409  2.5195 -1.4910
 7260SOL     OW22589   3.702   6.566   7.681 -0.0988  0.4873  0.0600
 7260SOL    HW122590   3.740   6.597   7.598  0.7693 -2.1525 -0.6182
 7260SOL    HW222591   3.608   6.567   7.665 -0.1163  2.3458 -0.0187
 7261SOL     OW22592   0.474   6.855   3.959 -0.2312 -0.3202 -0.4650
 7261SOL    HW122593   0.489   6.761   3.973 -1.9328 -0.3419  1.6860
 7261SOL    HW222594   0.501   6.896   4.041 -0.0049  1.0378 -1.1884
 7262SOL     OW22595   7.134   1.370   2.356  0.5608 -0.0736  0.1927
 7262SOL    HW122596   7.096   1.340   2.439 -1.3336 -1.3085 -1.0316
 7262SOL    HW222597   7.122   1.465   2.357 -1.8496 -0.3028  0.2792
 7263SOL     OW22598   3.237   7.264   1.917 -0.0407 -0.0156 -0.1419
 7263SOL    HW122599   3.290   7.331   1.959 -0.2897 -0.4236  0.8565
 7263SOL    HW222600   3.184   7.227   1.988 -2.0820  0.7638 -1.1914
 7264SOL     OW22601   5.608   6.704   0.518 -0.0268 -0.4177  0.1022
 7264SOL    HW122602   5.569   6.697   0.431  1.1539 -0.2410 -0.4624
 7264SOL    HW222603   5.668   6.630   0.523  2.3443  1.3382 -0.5508
 7265SOL     OW22604   5.186   1.739   5.976  0.2665 -0.0766  0.5373
 7265SOL    HW122605   5.093   1.725   5.991 -0.2967  1.3976 -1.2493
 7265SOL    HW222606   5.207   1.680   5.903  1.1004 -1.4118  1.8016
 7266SOL     OW22607   0.453   6.563   5.675 -0.2964  0.1088  0.1554
 7266SOL    HW122608   0.459   6.653   5.645  0.2314  0.1456  0.3414
 7266SOL    HW222609   0.533   6.551   5.728  0.0151 -0.6857 -0.4756
 7267SOL     OW22610   6.329   5.218   6.850 -0.2287  0.1461 -0.0901
 7267SOL    HW122611   6.278   5.296   6.831 -0.1177  0.2536  0.0517
 7267SOL    HW222612   6.304   5.156   6.782 -2.0431 -0.5098  1.1112
 7268SOL     OW22613   0.918   4.570   1.289  0.6288  0.2517  0.1652
 7268SOL    HW122614   0.864   4.557   1.367  1.9693 -0.3342  1.0196
 7268SOL    HW222615   0.913   4.487   1.242  1.4259 -0.0897  0.6675
 7269SOL     OW22616   3.225   6.358   6.060  0.7485 -0.0683  0.3410
 7269SOL    HW122617   3.216   6.412   6.139  0.3138  1.4140 -0.6791
 7269SOL    HW222618   3.137   6.330   6.039  0.4768  1.5212 -0.8988
 7270SOL     OW22619   6.841   5.035   2.361 -0.0568  0.4025  0.1496
 7270SOL    HW122620   6.879   5.084   2.434 -0.5107  1.2892 -0.1953
 7270SOL    HW222621   6.890   5.065   2.284 -0.0819  0.0341 -0.0094
 7271SOL     OW22622   3.722   4.994   2.603 -0.2515  0.0541  0.2040
 7271SOL    HW122623   3.741   4.901   2.595 -0.7686 -0.0919  0.6286
 7271SOL    HW222624   3.703   5.007   2.696  1.3062  0.8724  0.4483
 7272SOL     OW22625   0.194   0.034   3.410 -0.4049 -0.8749  0.6092
 7272SOL    HW122626   0.112   0.046   3.362 -0.1471  0.3163  0.4317
 7272SOL    HW222627   0.170  -0.019   3.486 -1.1917 -1.1663  0.1650
 7273SOL     OW22628   7.685   4.469   2.298  0.2311  0.1744 -0.2666
 7273SOL    HW122629   7.607   4.497   2.249  0.7679  0.4815 -0.9677
 7273SOL    HW222630   7.752   4.459   2.231  1.2653  1.5451  0.5175
 7274SOL     OW22631   6.247   2.315   3.275  0.1992 -0.4480 -0.5026
 7274SOL    HW122632   6.174   2.327   3.214 -0.3377  0.9189  0.3696
 7274SOL    HW222633   6.324   2.342   3.225 -0.5201  3.3196  0.1170
 7275SOL     OW22634   4.787   6.724   4.861  0.0462  0.0924 -0.5548
 7275SOL    HW122635   4.733   6.706   4.784 -1.9886  1.4155  0.4774
 7275SOL    HW222636   4.733   6.697   4.935  1.1001  0.8034  0.5041
 7276SOL     OW22637   6.276   3.728   7.816 -0.0220 -0.1264  0.7368
 7276SOL    HW122638   6.188   3.747   7.849 -0.3172  0.1972 -0.1804
 7276SOL    HW222639   6.260   3.687   7.730  0.7325  1.9509 -0.4580
 7277SOL     OW22640   4.670   6.245   5.753  0.0838  0.1745  0.0152
 7277SOL    HW122641   4.629   6.258   5.838  0.3326  0.2744  0.1197
 7277SOL    HW222642   4.638   6.160   5.723  1.0261 -0.4741  0.7917
 7278SOL     OW22643   0.577   2.924   5.530 -0.0196  0.1912 -0.1778
 7278SOL    HW122644   0.653   2.881   5.492 -0.5857  0.1803 -1.3425
 7278SOL    HW222645   0.562   2.878   5.612  0.1620 -0.9995 -0.7810
 7279SOL     OW22646   5.323   5.551   6.315 -0.3125 -0.0573  0.0621
 7279SOL    HW122647   5.393   5.537   6.379 -0.6464 -0.7936  0.2748
 7279SOL    HW222648   5.358   5.513   6.234 -0.6697 -0.8957  0.2978
 7280SOL     OW22649   7.324   7.391   0.789  0.2534  0.1583 -1.0213
 7280SOL    HW122650   7.292   7.421   0.875 -1.9888  1.2306 -2.1451
 7280SOL    HW222651   7.379   7.462   0.758  2.8087 -1.0800  0.2859
 7281SOL     OW22652   3.403   3.664   4.932 -0.3364 -0.3774  0.5509
 7281SOL    HW122653   3.403   3.757   4.912 -1.0225 -0.2709  1.0117
 7281SOL    HW222654   3.324   3.630   4.889 -1.0886 -0.3949  1.8738
 7282SOL     OW22655   3.015   4.410   1.565 -0.1211  0.2895 -0.0336
 7282SOL    HW122656   2.986   4.329   1.606  1.9016  0.3831  1.7491
 7282SOL    HW222657   2.976   4.480   1.617 -1.0566  0.4982 -0.9699
 7283SOL     OW22658   5.387   3.737   2.308  0.8895 -0.2714 -0.0169
 7283SOL    HW122659   5.376   3.731   2.213 -0.8607 -2.4716  0.2457
 7283SOL    HW222660   5.470   3.693   2.325  1.3573  0.3903 -0.5187
 7284SOL     OW22661   1.089   4.872   6.815 -0.4904 -0.1554 -0.2439
 7284SOL    HW122662   1.062   4.914   6.897 -2.8342 -0.4071 -0.7998
 7284SOL    HW222663   1.090   4.779   6.835  0.6928 -0.1220 -0.0732
 7285SOL     OW22664   6.794   0.143   1.646  0.2376  0.3932 -0.4791
 7285SOL    HW122665   6.865   0.153   1.710 -1.1168 -2.2046  1.6113
 7285SOL    HW222666   6.835   0.100   1.571  0.7203 -2.4707  1.2941
 7286SOL     OW22667   3.764   3.916   6.826  0.1615 -0.1318 -0.3627
 7286SOL    HW122668   3.808   3.831   6.818  0.9535  0.2735 -0.5026
 7286SOL    HW222669   3.834   3.976   6.853 -0.6240  0.2651  0.8330
 7287SOL     OW22670   6.227   3.612   7.129  0.6306  0.0544  0.0549
 7287SOL    HW122671   6.220   3.682   7.064  0.4723 -0.0056  0.0074
 7287SOL    HW222672   6.307   3.633   7.179  1.0819 -0.2227 -0.5355
 7288SOL     OW22673   4.890   5.510   3.340  0.2473  0.5292 -0.3217
 7288SOL    HW122674   4.894   5.548   3.428  0.3314 -0.8380  0.2964
 7288SOL    HW222675   4.802   5.532   3.309 -0.1622  0.1431  0.5358
 7289SOL     OW22676   5.596   1.036   5.165  0.0935  0.5187 -0.3175
 7289SOL    HW122677   5.687   1.049   5.138  0.4343  0.6885  0.8552
 7289SOL    HW222678   5.563   0.969   5.106  0.9515  0.5222 -0.8172
 7290SOL     OW22679   5.147   4.796   3.320 -0.5319 -0.3551  0.8211
 7290SOL    HW122680   5.204   4.779   3.244  2.1515  2.2395  2.0541
 7290SOL    HW222681   5.147   4.713   3.368 -1.6053 -1.7998 -1.4954
 7291SOL     OW22682   6.581   5.071   5.817 -0.0565  0.3303 -0.3773
 7291SOL    HW122683   6.551   5.019   5.892 -1.0487 -0.8560 -1.5337
 7291SOL    HW222684   6.621   5.008   5.757 -0.9523  0.9131 -1.6616
 7292SOL     OW22685   2.308   7.900   5.034 -0.2741 -0.0054 -0.2080
 7292SOL    HW122686   2.389   7.878   5.080 -1.0923 -4.7478 -0.5688
 7292SOL    HW222687   2.337   7.927   4.947  0.9833 -1.7411 -0.3786
 7293SOL     OW22688   5.823   0.033   4.090 -0.4251 -0.2749  0.9792
 7293SOL    HW122689   5.811   0.097   4.021  0.2403  0.0116  1.1298
 7293SOL    HW222690   5.748  -0.027   4.080 -1.2133  0.6810  1.0248
 7294SOL     OW22691   6.986   4.990   6.742  0.1893 -0.7002  0.8366
 7294SOL    HW122692   7.043   4.916   6.724 -1.0799 -1.4720 -0.2114
 7294SOL    HW222693   7.025   5.064   6.695  0.2402 -1.2643 -0.0324
 7295SOL     OW22694   0.342   3.886   6.143 -0.8914 -0.0358  0.4468
 7295SOL    HW122695   0.413   3.824   6.122 -1.1200 -0.1486 -0.0159
 7295SOL    HW222696   0.380   3.944   6.208 -0.3657 -0.0937  0.2029
 7296SOL     OW22697   1.920   0.683   3.961 -0.0326  0.0024  0.2075
 7296SOL    HW122698   2.014   0.670   3.972 -0.1736  0.5273  2.5999
 7296SOL    HW222699   1.880   0.616   4.017 -1.0191  0.8046  0.5017
 7297SOL     OW22700   0.947   7.113   0.233  0.2664 -0.1725  0.1810
 7297SOL    HW122701   0.879   7.177   0.213 -0.5916 -0.8777  0.7706
 7297SOL    HW222702   0.908   7.029   0.209  1.9226 -0.3914 -2.0119
 7298SOL     OW22703   1.742   4.202   6.559 -0.6213 -0.2063 -0.1542
 7298SOL    HW122704   1.652   4.193   6.526 -0.9422 -1.4061  0.9417
 7298SOL    HW222705   1.737   4.169   6.649  0.9867 -0.6014 -0.1888
 7299SOL     OW22706   7.033   1.598   7.748  0.2948  0.2843 -0.1836
 7299SOL    HW122707   7.024   1.542   7.671  0.4914 -0.4216  0.2971
 7299SOL    HW222708   6.960   1.572   7.805  0.8066 -0.0082  0.3554
 7300SOL     OW22709   0.635   0.231   0.694 -0.1110 -0.2626  0.2196
 7300SOL    HW122710   0.550   0.192   0.712 -0.9198  1.2978 -0.0616
 7300SOL    HW222711   0.616   0.322   0.672  1.5023 -0.1983 -1.1512
 7301SOL     OW22712   2.958   5.947   7.716  0.0347 -0.7346  0.4975
 7301SOL    HW122713   2.995   6.034   7.704 -0.0938 -0.6347  0.7895
 7301SOL    HW222714   2.998   5.916   7.798  1.0857 -1.4904 -0.2843
 7302SOL     OW22715   3.145   3.822   5.470  0.3134 -0.4623  0.2308
 7302SOL    HW122716   3.139   3.882   5.545  0.9398  2.1684 -1.6805
 7302SOL    HW222717   3.224   3.848   5.424 -0.5494 -1.3275 -1.8829
 7303SOL     OW22718   1.310   4.684   6.262 -0.4249 -0.5498 -0.0300
 7303SOL    HW122719   1.315   4.663   6.169 -1.3039  0.1597 -0.2510
 7303SOL    HW222720   1.218   4.670   6.286 -0.5834  0.8886  0.3151
 7304SOL     OW22721   3.282   4.944   6.049  0.0912  0.1963  0.0681
 7304SOL    HW122722   3.242   4.863   6.018  0.2664  0.2966 -0.4193
 7304SOL    HW222723   3.370   4.918   6.078  0.4376  0.3526 -0.8343
 7305SOL     OW22724   2.022   3.745   2.114  0.2252  0.0301  0.0239
 7305SOL    HW122725   2.036   3.654   2.141  0.0567  0.2510  0.8893
 7305SOL    HW222726   2.102   3.790   2.140  0.4271  0.0815 -0.6651
 7306SOL     OW22727   4.852   7.289   6.204  0.0681 -0.1650 -0.2824
 7306SOL    HW122728   4.942   7.304   6.232  0.3044 -1.2718 -0.3770
 7306SOL    HW222729   4.804   7.272   6.286 -0.2334  1.1548 -0.1590
 7307SOL     OW22730   7.582   7.844   3.500 -0.2814 -0.2653  0.0245
 7307SOL    HW122731   7.558   7.767   3.448 -0.9930  1.6463 -2.7114
 7307SOL    HW222732   7.500   7.875   3.537 -0.0770 -0.5256  0.7059
 7308SOL     OW22733   0.552   0.759   0.408  0.0248 -0.5430 -0.2870
 7308SOL    HW122734   0.489   0.696   0.445 -0.9081  0.9154  0.6919
 7308SOL    HW222735   0.552   0.832   0.469  0.3001  0.8931 -1.9246
 7309SOL     OW22736   4.226   3.782   4.954 -0.1953  0.6793 -0.1994
 7309SOL    HW122737   4.162   3.723   4.913 -0.2888  1.6273 -1.4962
 7309SOL    HW222738   4.310   3.738   4.944 -0.4403  0.1243  0.1352
 7310SOL     OW22739   4.767   5.450   5.829  0.1643 -1.1437 -0.0903
 7310SOL    HW122740   4.680   5.485   5.847  0.8316  0.2740  0.4459
 7310SOL    HW222741   4.801   5.424   5.915  1.2424  0.6551  0.0666
 7311SOL     OW22742   0.884   0.911   2.534 -0.1416  0.1102  0.1311
 7311SOL    HW122743   0.844   0.943   2.454 -0.6632 -1.2595 -0.1651
 7311SOL    HW222744   0.978   0.923   2.520 -0.2776  0.7613 -0.2794
 7312SOL     OW22745   4.643   6.200   0.427  0.2273 -0.3322  0.0703
 7312SOL    HW122746   4.584   6.126   0.415  1.5466 -1.4762  0.4663
 7312SOL    HW222747   4.728   6.161   0.446  1.4664  1.2199 -1.8394
 7313SOL     OW22748   0.258   5.442   6.610 -0.1023 -0.0759 -0.3037
 7313SOL    HW122749   0.348   5.448   6.642 -0.5218  0.4106  0.8527
 7313SOL    HW222750   0.206   5.421   6.687 -0.7309 -2.9829 -1.3811
 7314SOL     OW22751   5.826   3.287   1.040 -0.2982 -0.2291  0.3453
 7314SOL    HW122752   5.762   3.357   1.030 -0.7841 -0.8433 -1.1756
 7314SOL    HW222753   5.853   3.292   1.131 -1.7417  0.7195  0.7577
 7315SOL     OW22754   2.006   6.878   3.137 -0.0150  0.3451 -0.3884
 7315SOL    HW122755   2.028   6.938   3.209 -1.5888  0.3849  0.0796
 7315SOL    HW222756   2.081   6.818   3.133  0.5098  0.8908  0.6742
 7316SOL     OW22757   1.883   5.482   5.804 -0.4544  0.4032  0.3342
 7316SOL    HW122758   1.868   5.469   5.898  2.0417 -0.9044  0.6017
 7316SOL    HW222759   1.855   5.573   5.789 -2.9781 -0.0186  1.8190
 7317SOL     OW22760   0.251   1.703   1.470 -0.3875 -0.3006 -0.0295
 7317SOL    HW122761   0.175   1.743   1.513 -1.1253  0.1278 -1.6494
 7317SOL    HW222762   0.254   1.744   1.384  0.4886 -1.7680 -0.7394
 7318SOL     OW22763   3.350   4.760   3.722  0.2373  0.1035 -0.3925
 7318SOL    HW122764   3.400   4.681   3.744  0.0672 -0.2255 -1.1559
 7318SOL    HW222765   3.309   4.740   3.638  0.4885  1.1471 -0.7822
 7319SOL     OW22766   0.189   6.413   2.536  0.0558 -0.2537 -0.2531
 7319SOL    HW122767   0.184   6.401   2.631 -1.5514  1.8742 -0.0040
 7319SOL    HW222768   0.226   6.500   2.524  0.3565 -0.5392 -1.6022
 7320SOL     OW22769   4.332   5.375   1.541 -0.2770  1.4687 -0.4320
 7320SOL    HW122770   4.425   5.383   1.563  0.0445 -0.1300 -1.0438
 7320SOL    HW222771   4.299   5.465   1.542  0.9360  1.9433  1.2114
 7321SOL     OW22772   6.576   2.681   0.095  0.0529 -0.5482  0.7681
 7321SOL    HW122773   6.596   2.775   0.094  0.1355 -0.5567  1.3162
 7321SOL    HW222774   6.557   2.660   0.003 -0.8420  0.1825  0.7762
 7322SOL     OW22775   7.313   3.858   7.644  0.2654  0.3678 -0.1113
 7322SOL    HW122776   7.377   3.924   7.616 -0.1392  2.3417  3.1962
 7322SOL    HW222777   7.366   3.789   7.683  0.5295  0.4011 -0.4079
 7323SOL     OW22778   4.500   1.571   5.241  0.1625 -0.5834  0.1996
 7323SOL    HW122779   4.518   1.662   5.216  0.9625 -0.4798  1.0929
 7323SOL    HW222780   4.587   1.531   5.249 -0.0644 -0.7819  2.1169
 7324SOL     OW22781   7.693   1.152   4.567 -0.1714 -0.8609 -0.2731
 7324SOL    HW122782   7.685   1.155   4.663  1.8314 -2.6153  0.0030
 7324SOL    HW222783   7.688   1.059   4.545 -1.1305 -0.4526 -1.9702
 7325SOL     OW22784   3.683   3.625   1.046 -0.1791  0.4452 -0.5128
 7325SOL    HW122785   3.609   3.607   1.104 -1.4199  2.0333 -1.5133
 7325SOL    HW222786   3.714   3.712   1.072  1.4225 -0.2235 -0.0612
 7326SOL     OW22787   4.940   1.284   1.596  0.1080 -0.1139  0.4492
 7326SOL    HW122788   4.896   1.338   1.660  2.0851  1.5231  0.5248
 7326SOL    HW222789   4.936   1.195   1.632 -0.5335  0.4541  1.8312
 7327SOL     OW22790   0.164   6.527   5.826  0.1683 -0.6628  0.1274
 7327SOL    HW122791   0.229   6.595   5.838 -1.1722  0.3819  1.9819
 7327SOL    HW222792   0.153   6.521   5.731  1.9990  0.0155 -0.1678
 7328SOL     OW22793   0.406   3.088   4.305 -0.2844  0.2618 -0.0628
 7328SOL    HW122794   0.351   3.023   4.348 -1.2811  1.7178  0.9451
 7328SOL    HW222795   0.395   3.167   4.357  0.2438  1.4834 -1.7232
 7329SOL     OW22796   1.088   5.933   6.112 -0.3783 -0.2093  0.8289
 7329SOL    HW122797   0.999   5.917   6.144 -0.0646  0.4282  2.0588
 7329SOL    HW222798   1.109   6.020   6.143  0.4371 -0.0842 -0.0416
 7330SOL     OW22799   6.659   6.905   3.862  0.3296 -0.1696  0.9113
 7330SOL    HW122800   6.734   6.938   3.812 -0.9388 -0.3637 -1.2090
 7330SOL    HW222801   6.690   6.821   3.898  0.7621 -0.8945 -1.0203
 7331SOL     OW22802   2.918   7.846   1.991  0.3421 -0.0817  0.0786
 7331SOL    HW122803   2.851   7.914   1.975 -0.2701 -0.5912  0.4434
 7331SOL    HW222804   3.000   7.895   1.997 -0.1370  0.6680  0.6753
 7332SOL     OW22805   7.126   6.722   3.631 -0.1954  0.8727  0.2045
 7332SOL    HW122806   7.092   6.789   3.572 -1.1926  2.7852  2.7956
 7332SOL    HW222807   7.202   6.763   3.673 -0.5434  0.2359  1.4988
 7333SOL     OW22808   7.533   7.312   4.271  0.5186 -0.1515  0.0066
 7333SOL    HW122809   7.531   7.255   4.194 -0.1023 -2.5651  1.6652
 7333SOL    HW222810   7.440   7.329   4.290  0.6976  1.3344 -0.3647
 7334SOL     OW22811   5.348   3.603   4.284 -0.0176 -0.1358 -0.0979
 7334SOL    HW122812   5.252   3.605   4.282 -0.0706  1.5491  1.6557
 7334SOL    HW222813   5.375   3.679   4.232  0.2956  0.4280  0.8643
 7335SOL     OW22814   0.415   2.736   3.658 -0.4017 -0.0944  0.8135
 7335SOL    HW122815   0.497   2.733   3.609  0.6799 -0.1576  2.5256
 7335SOL    HW222816   0.403   2.828   3.681 -0.9424 -0.0518  0.3873
 7336SOL     OW22817   3.608   3.761   7.210 -0.0242 -0.7444  0.1610
 7336SOL    HW122818   3.616   3.786   7.302  1.4177 -0.9544  0.1121
 7336SOL    HW222819   3.621   3.843   7.162 -2.2401 -0.3379  0.1294
 7337SOL     OW22820   6.026   5.197   3.030 -0.3463 -0.3989  0.1599
 7337SOL    HW122821   5.978   5.238   2.958 -2.3790  1.0151  2.1734
 7337SOL    HW222822   6.051   5.111   2.996  0.6300  0.9217 -2.8922
 7338SOL     OW22823   1.684   2.117   3.401 -0.1335 -0.4510  0.6538
 7338SOL    HW122824   1.774   2.139   3.428  0.2636 -0.7700 -0.3647
 7338SOL    HW222825   1.632   2.192   3.431  0.6623  0.2991  0.2312
 7339SOL     OW22826   6.761   6.954   5.070 -0.4754  0.2320  0.3922
 7339SOL    HW122827   6.674   6.977   5.038  0.2053 -0.3529 -2.0673
 7339SOL    HW222828   6.818   7.025   5.041  0.1772 -0.3198  0.2893
 7340SOL     OW22829   6.722   2.070   5.150 -0.0008  0.0232 -0.5693
 7340SOL    HW122830   6.734   2.094   5.242  3.0213 -1.6674 -0.3948
 7340SOL    HW222831   6.757   2.144   5.100  1.3223 -0.3514 -0.2352
 7341SOL     OW22832   6.751   1.158   3.580  0.2480 -0.2653 -0.2459
 7341SOL    HW122833   6.761   1.062   3.577  4.3980 -0.0649  0.3964
 7341SOL    HW222834   6.748   1.184   3.489 -1.0591 -0.9921 -0.4294
 7342SOL     OW22835   3.218   4.131   2.252 -0.3265 -0.0572  0.4380
 7342SOL    HW122836   3.185   4.120   2.163 -1.6887 -0.5745  0.9897
 7342SOL    HW222837   3.250   4.044   2.277 -0.4937 -0.0530  0.6693
 7343SOL     OW22838   3.374   1.246   6.447 -0.3149 -0.2859 -0.0495
 7343SOL    HW122839   3.430   1.173   6.423 -0.8553 -0.6866 -0.1171
 7343SOL    HW222840   3.325   1.267   6.368 -0.0676  0.2437 -0.0695
 7344SOL     OW22841   0.929   1.437   3.826 -0.1055 -0.0863  0.0982
 7344SOL    HW122842   0.992   1.381   3.783  0.7910  0.5639  0.5397
 7344SOL    HW222843   0.959   1.442   3.917 -0.3728  0.7950  0.1537
 7345SOL     OW22844   1.491   6.527   5.363  0.1384 -0.0616  0.1856
 7345SOL    HW122845   1.428   6.543   5.434 -2.3576  0.8259 -2.0792
 7345SOL    HW222846   1.549   6.603   5.366 -0.4618  0.3909  0.7616
 7346SOL     OW22847   3.116   1.278   0.048 -0.5099  0.2405  0.6724
 7346SOL    HW122848   3.053   1.349   0.056 -0.9334  0.0885 -0.9655
 7346SOL    HW222849   3.163   1.296  -0.034  2.1655  0.7753  2.2189
 7347SOL     OW22850   4.807   4.792   3.393  0.0360 -0.4176  0.0012
 7347SOL    HW122851   4.750   4.849   3.446 -1.0611 -1.5273  0.0805
 7347SOL    HW222852   4.855   4.740   3.458  2.2963  1.4829 -0.0150
 7348SOL     OW22853   2.267   5.917   3.424  0.5516 -0.2341 -0.2545
 7348SOL    HW122854   2.354   5.878   3.417  1.5383  1.6565  0.8235
 7348SOL    HW222855   2.214   5.870   3.359  1.8807 -2.6420  0.3164
 7349SOL     OW22856   7.567   6.394   3.374 -0.1438  0.4611  0.0700
 7349SOL    HW122857   7.545   6.475   3.328  1.6898  0.8639 -0.1741
 7349SOL    HW222858   7.493   6.336   3.356 -0.6956  1.5044 -1.1932
 7350SOL     OW22859   5.971   6.510   1.646  0.2709  0.0001 -0.0920
 7350SOL    HW122860   5.937   6.457   1.574 -0.7401  1.1657 -0.5035
 7350SOL    HW222861   5.898   6.515   1.708  1.0642 -0.8262  0.9500
 7351SOL     OW22862   2.169   2.817   0.374  0.5635  0.0206 -0.5225
 7351SOL    HW122863   2.236   2.798   0.309 -0.5744 -0.3279 -1.6250
 7351SOL    HW222864   2.139   2.906   0.353 -0.9889 -0.7103 -1.5915
 7352SOL     OW22865   5.924   2.671   7.159 -0.0292 -0.2015 -0.4119
 7352SOL    HW122866   5.857   2.607   7.183 -0.8028  0.9030  0.5264
 7352SOL    HW222867   5.888   2.717   7.083 -0.2119  0.1746 -0.1052
 7353SOL     OW22868   7.415   0.459   0.924 -0.2504  0.4096  0.3519
 7353SOL    HW122869   7.371   0.517   0.862 -0.3810  0.6494  0.6673
 7353SOL    HW222870   7.345   0.406   0.962 -0.1282  0.0290  0.0488
 7354SOL     OW22871   2.246   4.857   0.212 -0.2772 -0.1180 -0.1522
 7354SOL    HW122872   2.325   4.812   0.183 -0.9437 -0.4899 -1.4817
 7354SOL    HW222873   2.190   4.787   0.246 -1.7949 -0.6029 -3.2992
 7355SOL     OW22874   3.630   5.608   1.432 -0.5315  0.1333 -0.3216
 7355SOL    HW122875   3.701   5.543   1.429 -1.7296 -1.2082 -0.7930
 7355SOL    HW222876   3.619   5.627   1.525  0.5291  0.4883 -0.2484
 7356SOL     OW22877   5.437   2.993   5.328  0.5100 -0.4997  0.1958
 7356SOL    HW122878   5.380   3.025   5.259  0.9583  0.3360  0.2014
 7356SOL    HW222879   5.380   2.941   5.384 -0.2504  0.3058  0.1898
 7357SOL     OW22880   1.189   7.225   4.462 -0.3977  0.1400 -0.3149
 7357SOL    HW122881   1.111   7.220   4.407 -1.4286 -2.3142  1.1761
 7357SOL    HW222882   1.158   7.264   4.544  0.2822  0.5245 -0.2369
 7358SOL     OW22883   0.061   4.051   3.903  0.0909  0.5023 -0.0446
 7358SOL    HW122884   0.050   4.143   3.877 -1.9516  0.1645 -0.6000
 7358SOL    HW222885  -0.000   4.039   3.975  0.3868 -0.4004  0.0715
 7359SOL     OW22886   4.678   7.358   6.727 -0.1551  0.6852 -0.1673
 7359SOL    HW122887   4.589   7.324   6.729 -0.0114  0.2825 -0.5548
 7359SOL    HW222888   4.715   7.333   6.812 -1.6314  4.2371  1.7418
 7360SOL     OW22889   0.178   6.292   5.083  0.4930  0.1368  0.0047
 7360SOL    HW122890   0.102   6.331   5.125  0.1610 -0.0135 -0.4519
 7360SOL    HW222891   0.231   6.367   5.055  0.4886  0.2410  0.2714
 7361SOL     OW22892   0.940   6.338   6.067  0.1849  0.0723  0.2753
 7361SOL    HW122893   0.971   6.404   6.005  0.1306 -0.6382 -0.5215
 7361SOL    HW222894   1.010   6.334   6.133  1.0703 -0.3698 -0.6493
 7362SOL     OW22895   3.232   3.519   1.320 -0.0440  0.4422 -0.0037
 7362SOL    HW122896   3.162   3.513   1.384 -0.5682 -0.5045 -0.6375
 7362SOL    HW222897   3.188   3.545   1.239  0.4793  0.7737 -0.1892
 7363SOL     OW22898   7.516   5.792   4.155 -0.2022  0.0088 -0.4079
 7363SOL    HW122899   7.532   5.727   4.224  0.7891  0.0058 -0.6324
 7363SOL    HW222900   7.598   5.798   4.107  0.6246  3.2326  1.1189
 7364SOL     OW22901   6.660   0.531   2.992 -0.3106  0.3411  0.1290
 7364SOL    HW122902   6.606   0.515   3.070 -0.4571  1.6791  0.3339
 7364SOL    HW222903   6.749   0.541   3.026  0.2482 -2.4534 -0.2686
 7365SOL     OW22904   1.892   2.269   1.093  0.1193  0.0417  0.2031
 7365SOL    HW122905   1.930   2.353   1.118 -1.3816  1.7879 -2.8650
 7365SOL    HW222906   1.801   2.275   1.121  0.3685 -1.3135  1.4339
 7366SOL     OW22907   1.904   3.566   5.156  0.0045 -0.2624 -0.2399
 7366SOL    HW122908   1.951   3.570   5.240  0.1130 -1.9043 -0.2004
 7366SOL    HW222909   1.952   3.627   5.100 -0.3383  1.2185  0.9836
 7367SOL     OW22910   5.001   2.748   0.539 -0.6658  0.2037  0.3301
 7367SOL    HW122911   5.017   2.825   0.594 -2.6408 -0.5638  2.1124
 7367SOL    HW222912   4.914   2.763   0.502 -0.2568 -0.3041 -0.8959
 7368SOL     OW22913   1.180   3.596   6.498  0.4743 -0.0297  0.5560
 7368SOL    HW122914   1.202   3.672   6.443 -1.3612 -0.6139 -1.1127
 7368SOL    HW222915   1.116   3.630   6.561 -2.9730 -0.6857 -2.2906
 7369SOL     OW22916   1.595   1.928   2.080  0.2491  0.7271  0.8547
 7369SOL    HW122917   1.678   1.950   2.038  0.3922 -0.5349  0.4219
 7369SOL    HW222918   1.572   1.843   2.043 -0.7183  0.5867  1.7358
 7370SOL     OW22919   1.677   4.419   4.816  0.0904 -0.5020  0.1326
 7370SOL    HW122920   1.620   4.446   4.743 -0.1182 -0.3035  0.3630
 7370SOL    HW222921   1.760   4.463   4.799 -0.4544  0.8776  0.8617
 7371SOL     OW22922   2.216   2.245   1.808 -0.0471  0.1965 -0.6908
 7371SOL    HW122923   2.239   2.273   1.720 -0.6268  0.1684 -0.8543
 7371SOL    HW222924   2.254   2.157   1.817 -0.1125  0.1424 -0.9607
 7372SOL     OW22925   2.251   4.035   5.571 -0.3631 -0.4534  0.1748
 7372SOL    HW122926   2.249   4.130   5.563 -0.6838 -0.5401 -0.8364
 7372SOL    HW222927   2.266   4.019   5.665  0.7349  0.5937  0.1993
 7373SOL     OW22928   2.794   7.176   1.284  0.3399  0.0503  0.1468
 7373SOL    HW122929   2.756   7.139   1.364  0.2709 -0.3684 -0.0802
 7373SOL    HW222930   2.764   7.119   1.214  0.3211  0.4735 -0.1955
 7374SOL     OW22931   2.493   3.328   2.739  0.0355  0.0463 -0.3653
 7374SOL    HW122932   2.399   3.326   2.755  0.0655 -0.0196 -0.1952
 7374SOL    HW222933   2.507   3.260   2.672  0.1999 -1.2273  0.9120
 7375SOL     OW22934   6.986   7.036   7.290  0.0944  0.1215  0.3034
 7375SOL    HW122935   6.892   7.022   7.286 -0.5262  3.4375  0.1395
 7375SOL    HW222936   7.020   6.995   7.211 -0.9957 -1.9833  0.8490
 7376SOL     OW22937   4.642   0.709   6.609 -0.2915 -0.0493 -0.1135
 7376SOL    HW122938   4.562   0.703   6.661 -0.7960 -0.1614 -0.8787
 7376SOL    HW222939   4.673   0.619   6.603 -0.8318 -0.1953 -0.8977
 7377SOL     OW22940   4.448   0.549   2.083 -0.1235  0.4081  0.0961
 7377SOL    HW122941   4.496   0.632   2.083 -0.5823  0.6771  0.4814
 7377SOL    HW222942   4.416   0.540   2.173 -0.7042  0.1770 -0.1297
 7378SOL     OW22943   4.385   0.262   7.956  0.7038 -0.2268 -0.0589
 7378SOL    HW122944   4.433   0.291   7.879  1.5800  0.5936  0.7589
 7378SOL    HW222945   4.327   0.335   7.978  0.8635 -0.2284  0.3837
 7379SOL     OW22946   4.558   0.976   2.059 -0.3071  0.0487 -0.1118
 7379SOL    HW122947   4.609   0.896   2.043 -2.3499 -2.2008  3.2299
 7379SOL    HW222948   4.483   0.969   2.002 -0.2995 -0.2554 -0.0869
 7380SOL     OW22949   6.614   1.845   1.673  0.3992 -0.0056 -0.9348
 7380SOL    HW122950   6.673   1.781   1.636  1.2369  0.2841 -0.1449
 7380SOL    HW222951   6.671   1.908   1.717 -0.5138 -0.2281  0.6515
 7381SOL     OW22952   7.444   5.453   6.841 -0.6391 -0.2015  0.3061
 7381SOL    HW122953   7.491   5.466   6.923 -1.2186 -0.1292  0.6339
 7381SOL    HW222954   7.365   5.405   6.866 -0.0638 -1.5918 -0.4259
 7382SOL     OW22955   3.347   0.594   4.622 -0.3588 -0.4101 -0.1602
 7382SOL    HW122956   3.361   0.684   4.652 -2.4889 -0.0045 -0.2008
 7382SOL    HW222957   3.256   0.575   4.645 -0.0511 -2.4657 -0.4244
 7383SOL     OW22958   4.284   2.990   0.587  0.2322  0.2267  0.0910
 7383SOL    HW122959   4.220   3.010   0.518 -0.5622 -0.0639  0.7201
 7383SOL    HW222960   4.369   3.009   0.548 -0.2438  0.6515 -0.7607
 7384SOL     OW22961   6.220   6.284   6.490 -0.1695  0.8882 -0.0745
 7384SOL    HW122962   6.267   6.323   6.416  0.4351 -1.3665 -0.9906
 7384SOL    HW222963   6.147   6.237   6.450 -1.8458  2.3469  1.1261
 7385SOL     OW22964   6.951   2.351   5.397  0.1215  0.0902  0.0363
 7385SOL    HW122965   6.884   2.417   5.377  0.1826  0.9251  2.2394
 7385SOL    HW222966   6.903   2.268   5.395 -0.5609  0.4797 -0.2591
 7386SOL     OW22967   7.402   0.750   7.605  0.4217  0.3216  0.1481
 7386SOL    HW122968   7.460   0.807   7.656  1.6314  0.9066 -1.7738
 7386SOL    HW222969   7.396   0.793   7.519 -0.8886 -1.0298 -0.4694
 7387SOL     OW22970   4.618   4.295   4.732 -0.5570  0.8914 -0.9258
 7387SOL    HW122971   4.536   4.257   4.699  1.1076 -1.2471 -2.8654
 7387SOL    HW222972   4.670   4.311   4.654  2.1942 -0.9869  0.3899
 7388SOL     OW22973   0.811   2.095   0.524  0.0045 -0.3485  0.1932
 7388SOL    HW122974   0.742   2.031   0.540 -1.1798  1.0596  0.9786
 7388SOL    HW222975   0.778   2.148   0.451 -0.6895  1.5269  1.7872
 7389SOL     OW22976   3.537   6.561   2.062 -0.0133  0.1595  0.2540
 7389SOL    HW122977   3.510   6.612   2.139 -2.2375 -1.3728  0.5631
 7389SOL    HW222978   3.587   6.487   2.098  2.2668  1.4126 -0.1225
 7390SOL     OW22979   7.449   7.431   4.603 -0.2754  0.1368 -0.3458
 7390SOL    HW122980   7.463   7.510   4.552  0.9560  0.6651  0.7485
 7390SOL    HW222981   7.529   7.420   4.654 -0.0316 -2.3165 -1.1024
 7391SOL     OW22982   5.801   1.297   1.364 -0.7529  0.1552 -0.0066
 7391SOL    HW122983   5.754   1.380   1.351 -0.4114  0.5747  1.2447
 7391SOL    HW222984   5.891   1.316   1.334 -0.6076  0.3280  0.5294
 7392SOL     OW22985   2.672   6.395   7.735 -0.8522  0.0837  0.0441
 7392SOL    HW122986   2.684   6.345   7.654 -0.2522 -0.7524  0.6279
 7392SOL    HW222987   2.751   6.448   7.743 -1.4625  1.1128 -0.5430
 7393SOL     OW22988   2.276   3.342   7.627 -0.4362 -0.1989  0.2825
 7393SOL    HW122989   2.209   3.344   7.696 -0.3548 -0.4125  0.3685
 7393SOL    HW222990   2.346   3.398   7.661 -0.6562  0.1843  0.1041
 7394SOL     OW22991   7.279   6.239   6.679  0.4602 -0.5025  0.0939
 7394SOL    HW122992   7.208   6.295   6.649  1.5588  0.5717 -0.5839
 7394SOL    HW222993   7.302   6.187   6.601  1.1165 -0.0717 -0.0100
 7395SOL     OW22994   1.402   6.868   5.393  0.1419  0.2286  0.6859
 7395SOL    HW122995   1.488   6.856   5.352  0.6129  2.3513  0.9507
 7395SOL    HW222996   1.408   6.822   5.476  1.0527  0.4223  0.7347
 7396SOL     OW22997   1.197   0.028   2.178 -0.1776  0.1556 -0.0881
 7396SOL    HW122998   1.234  -0.027   2.108  1.1399  0.0972  0.6250
 7396SOL    HW222999   1.157   0.102   2.131 -1.3677 -1.0211 -1.0197
 7397SOL     OW23000   4.487   2.173   0.119 -0.0601  0.3497 -0.2512
 7397SOL    HW123001   4.470   2.266   0.136 -0.6136  0.2727 -0.3587
 7397SOL    HW223002   4.491   2.134   0.206  1.6653  0.7108 -0.1324
 7398SOL     OW23003   3.271   7.318   7.953 -0.1500 -0.2335  0.4561
 7398SOL    HW123004   3.280   7.413   7.960 -0.5192 -0.1560 -0.1092
 7398SOL    HW223005   3.361   7.284   7.961  0.1582  0.2529 -0.8049
 7399SOL     OW23006   5.883   2.786   0.822  0.5730  0.4175 -0.1030
 7399SOL    HW123007   5.874   2.869   0.776  0.4876  0.1168 -0.6367
 7399SOL    HW223008   5.972   2.757   0.803  0.5886  0.3650  0.0450
 7400SOL     OW23009   0.093   6.046   1.383 -0.4267  0.1357 -0.2354
 7400SOL    HW123010   0.144   5.987   1.439 -0.2171 -0.5751 -1.1430
 7400SOL    HW223011   0.026   5.989   1.344 -1.2140  0.8330  0.0779
 7401SOL     OW23012   0.823   3.833   3.264 -0.2911  0.3990 -0.0235
 7401SOL    HW123013   0.798   3.818   3.355 -2.0621  1.2248 -0.3417
 7401SOL    HW223014   0.844   3.927   3.260  0.5490  0.2069 -0.3092
 7402SOL     OW23015   1.969   4.324   3.065 -0.0202 -0.1401  0.0733
 7402SOL    HW123016   1.968   4.252   3.001  0.1573  0.8315 -1.0615
 7402SOL    HW223017   2.047   4.375   3.043  0.3283 -0.0669  1.4176
 7403SOL     OW23018   1.160   5.866   0.442 -0.3827  0.1522  0.0517
 7403SOL    HW123019   1.073   5.903   0.427 -0.3021 -0.0003 -0.8431
 7403SOL    HW223020   1.219   5.922   0.391 -0.0136 -0.0252  0.2782
 7404SOL     OW23021   7.126   1.785   7.983  0.0152 -0.0170  0.4520
 7404SOL    HW123022   7.081   1.825   7.909  0.9889 -1.1833 -0.8130
 7404SOL    HW223023   7.208   1.751   7.947 -0.1118 -1.8727  1.7369
 7405SOL     OW23024   0.773   3.382   0.147 -0.0929  0.0280 -0.5047
 7405SOL    HW123025   0.865   3.371   0.170 -0.4129 -0.9419  0.4144
 7405SOL    HW223026   0.766   3.347   0.058  0.6039  1.0688 -0.9888
 7406SOL     OW23027   2.699   0.130   5.950 -0.0962 -0.8395  0.7081
 7406SOL    HW123028   2.661   0.078   5.879  1.6342 -0.8883 -0.2335
 7406SOL    HW223029   2.713   0.068   6.021 -1.0100 -0.9713  0.7887
 7407SOL     OW23030   4.572   1.102   6.255  0.2170 -0.2756 -0.6795
 7407SOL    HW123031   4.532   1.036   6.312  1.6077 -0.8193 -0.2957
 7407SOL    HW223032   4.648   1.058   6.217  0.8275  0.9191 -0.8804
 7408SOL     OW23033   7.957   7.986   3.281  0.2676 -0.4757 -0.2993
 7408SOL    HW123034   7.976   8.025   3.196 -1.1731 -0.3830 -0.5960
 7408SOL    HW223035   7.974   7.893   3.269 -1.4401 -0.7039 -1.1762
 7409SOL     OW23036   4.971   5.196   1.936  0.3709 -0.3005 -0.2754
 7409SOL    HW123037   4.962   5.281   1.895  0.9843 -0.4068 -0.6386
 7409SOL    HW223038   5.064   5.190   1.959  0.4837 -1.1548 -0.8931
 7410SOL     OW23039   7.512   7.762   1.331 -0.2761 -0.3774 -0.3056
 7410SOL    HW123040   7.574   7.695   1.301  1.1625  0.7240  0.1550
 7410SOL    HW223041   7.547   7.792   1.414 -1.8652 -0.2597  0.3537
 7411SOL     OW23042   0.246   1.406   4.704  0.4063  0.6585  0.8037
 7411SOL    HW123043   0.179   1.423   4.638  0.0235  0.2741  1.0903
 7411SOL    HW223044   0.317   1.364   4.655 -1.0156 -2.3281  1.0503
 7412SOL     OW23045   7.713   2.699   5.604 -0.5123 -0.5404  0.2383
 7412SOL    HW123046   7.731   2.744   5.686 -0.3231 -0.3824  0.1133
 7412SOL    HW223047   7.646   2.635   5.625 -0.8298 -0.1549  0.4096
 7413SOL     OW23048   4.062   7.288   1.396 -0.5879  0.6173  0.1327
 7413SOL    HW123049   4.097   7.282   1.485 -0.8941  0.6148  0.2524
 7413SOL    HW223050   4.064   7.198   1.364 -1.7738  0.4045  0.6323
 7414SOL     OW23051   5.689   4.721   4.392  0.0388  0.0240 -0.2923
 7414SOL    HW123052   5.625   4.657   4.425  2.1055 -2.0513 -0.0642
 7414SOL    HW223053   5.679   4.797   4.449 -0.3154 -1.3308  1.5324
 7415SOL     OW23054   4.389   0.548   5.377  0.2373 -0.3257 -0.5758
 7415SOL    HW123055   4.317   0.557   5.440  0.2126 -1.4443 -0.4230
 7415SOL    HW223056   4.350   0.573   5.294 -0.1604 -0.2993 -0.3870
 7416SOL     OW23057   0.744   6.317   6.285  0.1318 -0.8324 -0.1369
 7416SOL    HW123058   0.777   6.330   6.196 -0.4632 -3.2741 -0.8164
 7416SOL    HW223059   0.678   6.248   6.275  1.5816 -2.7694  2.4787
 7417SOL     OW23060   2.165   0.681   2.539  0.1454 -0.1794  0.0141
 7417SOL    HW123061   2.247   0.644   2.508  0.6920  0.3648  0.7873
 7417SOL    HW223062   2.156   0.650   2.629 -0.8012 -0.7202 -0.2454
 7418SOL     OW23063   6.637   5.129   2.033 -0.1097 -0.0760  0.3022
 7418SOL    HW123064   6.708   5.080   1.991  0.7966 -1.4986  3.1713
 7418SOL    HW223065   6.618   5.078   2.113 -0.6539  3.0976  2.3679
 7419SOL     OW23066   4.951   5.265   4.007 -0.0801 -0.2996  0.2507
 7419SOL    HW123067   4.890   5.332   3.978  1.1148  0.5499 -0.3754
 7419SOL    HW223068   4.908   5.224   4.082 -1.3344  0.3802 -0.0802
 7420SOL     OW23069   5.671   4.467   2.201 -0.3836  0.4739 -0.2218
 7420SOL    HW123070   5.616   4.436   2.273 -0.4323  0.7015 -0.1579
 7420SOL    HW223071   5.624   4.544   2.167 -0.8125 -0.1488 -1.0733
 7421SOL     OW23072   4.722   7.440   1.296 -0.9067  0.7970 -0.1061
 7421SOL    HW123073   4.739   7.474   1.208 -2.1064  2.9657  0.4281
 7421SOL    HW223074   4.627   7.430   1.300 -1.1703  3.1493  1.6779
 7422SOL     OW23075   0.016   6.763   5.223  0.2015 -0.0508 -0.1086
 7422SOL    HW123076   0.110   6.761   5.239  0.8177  0.3913 -3.1580
 7422SOL    HW223077  -0.013   6.847   5.260  0.8758 -0.3859  1.2430
 7423SOL     OW23078   2.154   1.942   6.944  0.3526  0.0574  0.3619
 7423SOL    HW123079   2.192   1.869   6.992  0.4717 -0.1846 -0.0943
 7423SOL    HW223080   2.076   1.966   6.994 -0.7450 -1.6103 -0.4611
 7424SOL     OW23081   0.894   1.067   6.279  0.7808  0.0201  0.0624
 7424SOL    HW123082   0.897   1.140   6.217 -1.1203  0.6880  0.6716
 7424SOL    HW223083   0.986   1.047   6.298  1.6523 -1.6524 -4.5174
 7425SOL     OW23084   5.630   3.633   2.402 -0.7783 -0.3730  0.2079
 7425SOL    HW123085   5.704   3.651   2.345 -0.6359 -0.3082  0.4126
 7425SOL    HW223086   5.668   3.624   2.490 -0.7014 -2.5352  0.0182
 7426SOL     OW23087   1.266   2.791   3.160 -0.1143 -0.0248  0.3526
 7426SOL    HW123088   1.189   2.830   3.117  0.1671  0.8916  0.6495
 7426SOL    HW223089   1.283   2.849   3.235  0.6238 -0.4515  0.5234
 7427SOL     OW23090   5.533   0.842   4.599 -0.5457  0.2462  0.0524
 7427SOL    HW123091   5.527   0.938   4.605  0.0498  0.2296  1.1660
 7427SOL    HW223092   5.444   0.814   4.578 -0.8692  1.0007  0.3621
 7428SOL     OW23093   1.566   7.678   7.384  0.3856  0.6349  0.4169
 7428SOL    HW123094   1.645   7.624   7.379  0.3790  0.5811  0.8614
 7428SOL    HW223095   1.568   7.730   7.304  0.8326  0.5811  0.3891
 7429SOL     OW23096   1.661   4.889   6.097 -0.0305 -0.0406  0.1993
 7429SOL    HW123097   1.593   4.848   6.044  0.4014 -1.1631  0.4819
 7429SOL    HW223098   1.623   4.972   6.125 -1.1998 -0.5368  0.1507
 7430SOL     OW23099   6.511   4.845   1.013 -0.1595  0.7864 -0.0157
 7430SOL    HW123100   6.498   4.762   1.058 -3.4388  0.9444 -0.4406
 7430SOL    HW223101   6.589   4.883   1.055 -0.6448 -0.9041  2.6324
 7431SOL     OW23102   1.059   6.544   1.013 -0.0808 -0.2981 -0.2239
 7431SOL    HW123103   1.137   6.576   1.059  1.0369 -0.8114 -1.6888
 7431SOL    HW223104   1.025   6.474   1.068  0.1394  0.3196  0.7233
 7432SOL     OW23105   2.006   7.717   4.785 -0.8687 -0.8759 -0.2701
 7432SOL    HW123106   1.912   7.729   4.770 -0.8974 -0.4185  0.2617
 7432SOL    HW223107   2.048   7.781   4.728 -0.9105 -0.5400  0.0705
 7433SOL     OW23108   0.616   4.918   5.973 -0.1556 -0.3169  0.3196
 7433SOL    HW123109   0.701   4.960   5.961  0.1634 -0.7785  0.9000
 7433SOL    HW223110   0.569   4.976   6.032 -0.5109  0.2885 -0.5360
 7434SOL     OW23111   3.904   1.074   2.266  0.2282 -0.1644 -0.0258
 7434SOL    HW123112   3.898   1.123   2.347  0.7074 -1.6259  0.9230
 7434SOL    HW223113   3.813   1.059   2.240  0.0764  0.9042 -0.1677
 7435SOL     OW23114   3.583   0.596   3.504 -0.0578 -0.5470  0.3876
 7435SOL    HW123115   3.661   0.647   3.524 -0.0330 -0.1295 -0.6689
 7435SOL    HW223116   3.518   0.662   3.478  0.0136 -1.0334 -1.1222
 7436SOL     OW23117   1.896   4.230   6.870  0.2492  0.0172 -0.5106
 7436SOL    HW123118   1.939   4.260   6.951 -0.7925 -1.5860  0.6891
 7436SOL    HW223119   1.805   4.257   6.880  0.4644  1.4870 -2.0627
 7437SOL     OW23120   7.867   0.243   1.484  0.3989 -0.1499  0.4454
 7437SOL    HW123121   7.949   0.289   1.465 -0.6582  1.2460 -0.9797
 7437SOL    HW223122   7.844   0.200   1.402 -1.3060  1.1895  0.1550
 7438SOL     OW23123   3.017   0.687   7.087  0.1355  0.2870 -0.3964
 7438SOL    HW123124   2.978   0.690   7.174 -0.2011  1.7101 -0.5675
 7438SOL    HW223125   3.060   0.602   7.083 -0.1787  0.0327  1.0079
 7439SOL     OW23126   3.598   6.366   0.877  0.9582 -0.1061 -0.3491
 7439SOL    HW123127   3.546   6.400   0.804  2.6434  2.1706 -0.5894
 7439SOL    HW223128   3.554   6.397   0.955 -1.5002 -3.4809 -0.1608
 7440SOL     OW23129   0.850   5.947   2.227  0.2766  0.3378 -0.1679
 7440SOL    HW123130   0.801   5.867   2.245 -2.7988  2.1826  0.4292
 7440SOL    HW223131   0.905   5.960   2.304 -1.2347  0.1596  0.9816
 7441SOL     OW23132   5.751   6.479   7.424  0.5024 -0.4152  0.1225
 7441SOL    HW123133   5.840   6.514   7.421  0.3806  0.0781  1.4612
 7441SOL    HW223134   5.752   6.418   7.497 -0.9121  1.6675  2.0189
 7442SOL     OW23135   0.876   2.055   4.859  0.0301  0.6872  0.5586
 7442SOL    HW123136   0.869   2.118   4.930  1.8569  1.3306  0.2252
 7442SOL    HW223137   0.795   2.066   4.809 -0.7638  1.0297  1.8704
 7443SOL     OW23138   5.688   7.116   2.874  0.0039 -0.2541 -0.0957
 7443SOL    HW123139   5.740   7.064   2.813 -0.9011 -0.3506 -0.7962
 7443SOL    HW223140   5.735   7.200   2.879 -0.6632  0.3077 -2.0917
 7444SOL     OW23141   7.070   2.968   7.770 -0.1788  0.0277 -0.2432
 7444SOL    HW123142   7.012   2.996   7.700 -0.4131 -0.1298 -0.1146
 7444SOL    HW223143   7.129   2.905   7.729  1.2655  1.6853 -0.8760
 7445SOL     OW23144   0.452   1.238   2.015  0.2409 -0.6593 -0.8586
 7445SOL    HW123145   0.501   1.242   1.933  1.8073  0.2743  0.0845
 7445SOL    HW223146   0.427   1.329   2.033 -2.3562 -1.1457 -1.5577
 7446SOL     OW23147   7.018   0.697   0.272 -0.1552 -0.0338 -0.0764
 7446SOL    HW123148   6.984   0.759   0.208  2.0695 -0.1001 -1.4318
 7446SOL    HW223149   6.957   0.623   0.268 -0.9573  0.6497 -0.9105
 7447SOL     OW23150   6.773   0.764   7.826  0.0451 -0.1990 -0.3317
 7447SOL    HW123151   6.704   0.822   7.794  0.5007 -0.4957 -1.9383
 7447SOL    HW223152   6.851   0.790   7.776  1.0845  0.0332  1.3430
 7448SOL     OW23153   6.028   5.134   6.022  0.3282 -0.1107  0.0336
 7448SOL    HW123154   6.017   5.221   5.984 -0.2227 -0.6289 -1.0435
 7448SOL    HW223155   5.940   5.107   6.045  0.4751 -0.4519  0.1951
 7449SOL     OW23156   6.281   5.054   0.663  0.7900 -0.1243  0.0552
 7449SOL    HW123157   6.336   4.975   0.662  1.0138 -0.0293  1.7836
 7449SOL    HW223158   6.304   5.100   0.582  0.4190 -1.9650 -1.1439
 7450SOL     OW23159   2.841   4.329   3.897  0.4960 -0.7279 -0.0396
 7450SOL    HW123160   2.830   4.423   3.889  0.4293 -0.7263  0.0792
 7450SOL    HW223161   2.900   4.317   3.971  0.1287 -0.7973  0.2501
 7451SOL     OW23162   0.600   3.501   1.635  0.0177 -0.1318  0.2662
 7451SOL    HW123163   0.685   3.474   1.602 -0.2769  1.0833 -1.6689
 7451SOL    HW223164   0.546   3.422   1.632  0.1143 -0.1618 -1.9828
 7452SOL     OW23165   7.861   0.445   2.650 -0.5928 -0.1419  0.7132
 7452SOL    HW123166   7.797   0.513   2.675 -1.5587 -0.2144 -1.3434
 7452SOL    HW223167   7.817   0.396   2.581  1.9280  0.2526 -1.3315
 7453SOL     OW23168   4.631   5.629   5.108 -0.0436 -0.1613  0.0604
 7453SOL    HW123169   4.571   5.660   5.176 -1.0149 -1.7247 -0.0148
 7453SOL    HW223170   4.714   5.616   5.153 -0.8872 -1.9706  1.2037
 7454SOL     OW23171   4.915   2.492   3.737  0.1407 -0.5120 -0.2246
 7454SOL    HW123172   4.914   2.480   3.642 -0.4979 -2.0743 -0.0449
 7454SOL    HW223173   5.001   2.461   3.765  1.4776  2.5427 -0.5278
 7455SOL     OW23174   3.739   7.339   1.937  0.1986 -0.2430 -0.1627
 7455SOL    HW123175   3.728   7.402   2.008  1.1169  0.3433 -0.5109
 7455SOL    HW223176   3.724   7.390   1.858  0.0138 -0.6909 -0.4165
 7456SOL     OW23177   2.909   3.432   6.225 -0.3727  0.0951 -0.1044
 7456SOL    HW123178   2.842   3.366   6.213  0.8174 -1.4177  1.0910
 7456SOL    HW223179   2.871   3.495   6.286 -0.6867 -0.8281  0.6788
 7457SOL     OW23180   1.832   5.307   4.403 -0.1713  0.0207  0.1683
 7457SOL    HW123181   1.862   5.299   4.312  0.3130  1.1446  0.2074
 7457SOL    HW223182   1.793   5.222   4.423  1.4563 -0.9340 -0.4626
 7458SOL     OW23183   2.917   1.651   4.286 -0.0319 -0.0852  0.0575
 7458SOL    HW123184   2.865   1.729   4.270 -1.7006 -1.1141  0.2939
 7458SOL    HW223185   2.855   1.586   4.318  0.9891 -2.0337 -1.6737
 7459SOL     OW23186   6.177   1.449   7.150  0.9123 -0.2722  0.0766
 7459SOL    HW123187   6.170   1.418   7.240  0.8222  0.4671  0.3350
 7459SOL    HW223188   6.096   1.421   7.109 -0.2176  1.5574  0.9319
 7460SOL     OW23189   6.782   7.846   0.903  0.6065 -0.7132 -0.1475
 7460SOL    HW123190   6.689   7.825   0.912  1.1615 -2.4452  3.3915
 7460SOL    HW223191   6.790   7.935   0.937 -0.0096  0.6164 -3.1547
 7461SOL     OW23192   5.245   6.682   0.735 -0.0376 -0.0021  0.1378
 7461SOL    HW123193   5.256   6.623   0.809  0.1976  0.1874  0.2573
 7461SOL    HW223194   5.168   6.735   0.757 -0.4131 -0.4466 -0.0957
 7462SOL     OW23195   4.009   2.270   7.502  0.0596  0.2144  0.1615
 7462SOL    HW123196   3.951   2.314   7.440  1.3557  1.7989  0.0238
 7462SOL    HW223197   3.949   2.221   7.559 -1.5166  2.2721  0.4256
 7463SOL     OW23198   5.617   0.508   3.096  0.2298 -0.2597 -0.0395
 7463SOL    HW123199   5.549   0.514   3.163 -1.0993  0.7881 -1.4075
 7463SOL    HW223200   5.696   0.484   3.144 -1.1330 -1.8572  1.5739
 7464SOL     OW23201   3.689   1.181   1.709 -0.0437  0.4933 -0.4062
 7464SOL    HW123202   3.764   1.141   1.753  2.6205  0.5636 -4.3706
 7464SOL    HW223203   3.664   1.118   1.641 -2.5476  1.2481 -0.3076
 7465SOL     OW23204   2.070   5.081   2.862  0.1391  1.3569  0.1298
 7465SOL    HW123205   2.137   5.131   2.817  2.9533 -0.2724  2.1197
 7465SOL    HW223206   2.030   5.027   2.794  1.3427  1.8993 -1.0512
 7466SOL     OW23207   0.526   4.609   1.727  0.3783 -0.1218  0.4284
 7466SOL    HW123208   0.615   4.584   1.752  0.2613  0.0984  1.1049
 7466SOL    HW223209   0.521   4.592   1.633  1.5654  1.1392  0.1052
 7467SOL     OW23210   4.825   0.867   3.297  0.1254 -0.3937 -0.3770
 7467SOL    HW123211   4.907   0.860   3.249  0.0249 -0.1289 -0.5920
 7467SOL    HW223212   4.825   0.792   3.356 -0.2802 -1.4256 -1.6338
 7468SOL     OW23213   7.255   3.143   3.645  0.3840 -0.3416  0.5957
 7468SOL    HW123214   7.215   3.112   3.726 -1.9799  0.0419 -0.3434
 7468SOL    HW223215   7.215   3.090   3.576  1.2399  0.3166 -0.4478
 7469SOL     OW23216   2.352   6.077   3.107 -0.0913 -0.4564  0.3938
 7469SOL    HW123217   2.362   5.982   3.120  0.1323 -0.5230 -0.2273
 7469SOL    HW223218   2.438   6.106   3.076 -0.4395 -0.2203 -0.3683
 7470SOL     OW23219   5.878   3.932   1.674 -0.6239 -0.4425  0.6554
 7470SOL    HW123220   5.973   3.921   1.676 -0.5129  0.5046  1.5097
 7470SOL    HW223221   5.852   3.899   1.588  0.6102  0.2341 -0.0110
 7471SOL     OW23222   3.556   4.491   1.677 -0.1308 -0.8534  0.1726
 7471SOL    HW123223   3.646   4.472   1.704 -0.0840  0.8361  1.3299
 7471SOL    HW223224   3.532   4.571   1.724 -1.6965 -0.3625 -1.3127
 7472SOL     OW23225   4.397   5.971   4.160 -0.0514 -0.5249  0.2285
 7472SOL    HW123226   4.405   5.903   4.094 -0.0695 -0.6260  0.3307
 7472SOL    HW223227   4.437   5.934   4.239 -0.6631 -0.6713  0.4711
 7473SOL     OW23228   6.558   3.000   0.313 -0.4370  0.1853 -0.0013
 7473SOL    HW123229   6.504   2.925   0.337  1.7334 -1.2976  0.6069
 7473SOL    HW223230   6.501   3.076   0.323 -2.2066 -1.2145  1.0869
 7474SOL     OW23231   0.595   4.286   3.556  0.4161 -0.0567  0.5153
 7474SOL    HW123232   0.668   4.336   3.594  1.1483  0.7149 -1.7474
 7474SOL    HW223233   0.637   4.225   3.495 -0.8007  0.1642 -0.5818
 7475SOL     OW23234   3.977   0.157   1.250 -0.0505 -0.1220  0.0714
 7475SOL    HW123235   3.948   0.215   1.180  0.8110 -1.0514 -1.1129
 7475SOL    HW223236   3.946   0.070   1.223  0.8656 -0.5896  0.4902
 7476SOL     OW23237   5.032   4.487   0.200  0.4948 -0.2759 -0.2678
 7476SOL    HW123238   5.040   4.474   0.106 -1.9626 -0.1947 -0.5461
 7476SOL    HW223239   5.082   4.567   0.218  0.3973  0.1017 -1.6059
 7477SOL     OW23240   0.042   3.931   3.049  0.2542 -0.4067  0.4391
 7477SOL    HW123241   0.126   3.943   3.094  0.2541 -1.4801  0.7537
 7477SOL    HW223242   0.053   3.976   2.965  1.0667 -0.3624  0.5600
 7478SOL     OW23243   6.101   3.150   0.091 -0.4713 -0.1739 -0.3696
 7478SOL    HW123244   6.105   3.205   0.013 -2.1812 -0.8802 -1.0097
 7478SOL    HW223245   6.114   3.210   0.164 -0.1393  0.7127 -1.1399
 7479SOL     OW23246   4.853   7.705   5.377  0.7500 -0.4916 -0.0195
 7479SOL    HW123247   4.787   7.700   5.446  0.1442 -1.3205 -0.6417
 7479SOL    HW223248   4.803   7.714   5.296  1.4568  0.8260 -0.3491
 7480SOL     OW23249   1.505   0.135   1.037 -0.5513  0.4320 -0.1423
 7480SOL    HW123250   1.510   0.184   1.119 -0.3569 -0.6675  0.5227
 7480SOL    HW223251   1.565   0.061   1.049  1.1919  1.4167 -2.1115
 7481SOL     OW23252   4.379   0.802   3.837  0.5460  0.3394  0.4309
 7481SOL    HW123253   4.413   0.713   3.833  0.0922  0.2041 -0.5706
 7481SOL    HW223254   4.449   0.856   3.802  0.1491  0.1776 -0.6287
 7482SOL     OW23255   3.008   0.130   7.254 -0.2944  0.3523  0.1171
 7482SOL    HW123256   2.928   0.125   7.306  0.3960  0.1453  1.1704
 7482SOL    HW223257   3.018   0.043   7.216 -0.5027  0.3447  0.0789
 7483SOL     OW23258   7.239   6.449   6.389 -0.3305 -0.4194 -0.0791
 7483SOL    HW123259   7.281   6.532   6.413 -2.0630  0.5765 -0.2697
 7483SOL    HW223260   7.159   6.447   6.441 -0.4256 -1.8836 -0.2426
 7484SOL     OW23261   3.715   4.376   5.420 -0.2862 -0.5540  0.1897
 7484SOL    HW123262   3.635   4.428   5.409 -0.2756 -0.7380 -0.9308
 7484SOL    HW223263   3.731   4.339   5.333  0.9788 -0.5759  0.4132
 7485SOL     OW23264   0.779   0.409   1.791  0.0935  0.5217 -0.1110
 7485SOL    HW123265   0.843   0.442   1.728  0.6334 -0.2657  0.0128
 7485SOL    HW223266   0.699   0.397   1.741  0.2591  0.7612 -0.4391
 7486SOL     OW23267   7.740   1.322   6.452  0.6986 -0.0598  0.2876
 7486SOL    HW123268   7.826   1.356   6.429  0.5049 -0.0407 -0.4177
 7486SOL    HW223269   7.736   1.236   6.410  1.5378 -1.4268  2.7903
 7487SOL     OW23270   7.272   2.945   1.512  0.9062 -0.4806  0.6171
 7487SOL    HW123271   7.367   2.932   1.513  0.8737 -0.7348  0.5163
 7487SOL    HW223272   7.248   2.938   1.419  0.8740  0.2415  0.5637
 7488SOL     OW23273   7.198   2.862   4.324 -0.0094 -0.8666 -0.7220
 7488SOL    HW123274   7.104   2.879   4.324 -0.4331 -2.8316  0.5594
 7488SOL    HW223275   7.214   2.816   4.241 -0.0555 -0.0557 -1.1897
 7489SOL     OW23276   2.066   1.487   3.343 -0.1804 -0.1456 -0.4881
 7489SOL    HW123277   1.991   1.543   3.363  0.2875  0.0789  0.7206
 7489SOL    HW223278   2.043   1.402   3.379  0.1990 -0.0307  0.0513
 7490SOL     OW23279   4.898   5.908   6.955  0.5637 -0.6047  0.0262
 7490SOL    HW123280   4.833   5.840   6.970 -1.4207  1.6562  2.8997
 7490SOL    HW223281   4.856   5.967   6.891  1.6113 -1.1926 -1.2557
 7491SOL     OW23282   5.670   1.358   4.611 -0.2290  1.1859 -0.0825
 7491SOL    HW123283   5.620   1.279   4.630  0.6210  0.7449  0.3653
 7491SOL    HW223284   5.743   1.356   4.672  0.4749  1.6984 -0.8852
 7492SOL     OW23285   2.940   7.278   2.691 -0.2163 -0.4169  0.0887
 7492SOL    HW123286   2.932   7.192   2.651  0.1609  0.3071 -1.6194
 7492SOL    HW223287   2.905   7.339   2.626  2.4957  1.0390 -0.1608
 7493SOL     OW23288   6.966   5.538   6.167  0.0770 -0.6961  0.3470
 7493SOL    HW123289   6.892   5.480   6.187  0.3030 -0.6290  1.4082
 7493SOL    HW223290   7.027   5.483   6.119 -0.7531 -0.6906 -0.7710
 7494SOL     OW23291   0.569   0.698   6.686  0.4238  0.0206 -0.2410
 7494SOL    HW123292   0.578   0.605   6.704 -0.2582 -0.1815 -0.8940
 7494SOL    HW223293   0.617   0.712   6.605  0.5969  0.2521 -0.0985
 7495SOL     OW23294   3.082   6.649   7.379 -0.2984  0.0472  0.5935
 7495SOL    HW123295   3.034   6.642   7.462  2.0143 -1.0424  1.9546
 7495SOL    HW223296   3.096   6.558   7.352  0.1592  0.3705 -0.2769
 7496SOL     OW23297   7.299   1.640   0.428 -0.3768 -0.0900  0.3724
 7496SOL    HW123298   7.205   1.643   0.413 -0.7257  0.1880  2.2914
 7496SOL    HW223299   7.335   1.598   0.350 -2.0560 -0.0029 -0.4906
 7497SOL     OW23300   6.712   3.030   4.979 -0.2724 -0.2845 -0.2075
 7497SOL    HW123301   6.616   3.029   4.985 -0.4543  0.9325 -2.0555
 7497SOL    HW223302   6.732   2.975   4.903  0.2517  1.6603 -1.5538
 7498SOL     OW23303   7.142   3.456   4.520  0.6585  0.0045 -0.2136
 7498SOL    HW123304   7.211   3.520   4.536 -0.4367  1.2097 -0.0800
 7498SOL    HW223305   7.183   3.389   4.465  2.1273  0.2651  0.5093
 7499SOL     OW23306   0.848   1.226   0.635  0.1069  0.0309  0.4148
 7499SOL    HW123307   0.880   1.136   0.629  0.7837  0.3701 -2.6244
 7499SOL    HW223308   0.868   1.252   0.724  1.2285 -2.3532  0.9511
 7500SOL     OW23309   5.339   5.814   2.474  0.2056 -0.0106  0.2149
 7500SOL    HW123310   5.373   5.764   2.399 -0.3841 -0.5659  0.3078
 7500SOL    HW223311   5.415   5.860   2.508  0.8158 -1.0185  0.2577
 7501SOL     OW23312   4.846   0.745   5.609  0.0754 -0.0506 -0.8338
 7501SOL    HW123313   4.851   0.650   5.597  0.4391 -0.5622  2.3824
 7501SOL    HW223314   4.763   0.770   5.568 -0.0515 -1.7614 -1.7073
 7502SOL     OW23315   5.095   0.542   2.755 -0.3378  0.3070 -0.1278
 7502SOL    HW123316   5.102   0.637   2.764  1.8025  0.2838 -0.9454
 7502SOL    HW223317   5.014   0.528   2.705 -1.0615  1.6249  0.6191
 7503SOL     OW23318   1.340   4.082   5.230  0.5733 -0.3747  0.1520
 7503SOL    HW123319   1.307   3.992   5.225  1.5571 -0.7820  0.6100
 7503SOL    HW223320   1.294   4.129   5.161  0.2129 -1.2907 -0.2468
 7504SOL     OW23321   6.908   5.096   1.921  0.1557  0.2698 -0.6158
 7504SOL    HW123322   6.962   5.166   1.885 -0.6939  0.6363 -1.2122
 7504SOL    HW223323   6.942   5.083   2.010  2.3353 -0.6972 -1.5269
 7505SOL     OW23324   0.149   0.462   0.694  0.2372  0.1558 -0.6496
 7505SOL    HW123325   0.132   0.553   0.715 -1.0125 -0.4204  1.0536
 7505SOL    HW223326   0.219   0.465   0.628  1.8330  2.2668  1.0141
 7506SOL     OW23327   4.410   1.613   7.246 -0.8986  0.0367  0.1681
 7506SOL    HW123328   4.498   1.600   7.282 -0.4715  2.5370  0.1695
 7506SOL    HW223329   4.352   1.576   7.312  0.0872 -0.3619  0.8444
 7507SOL     OW23330   3.663   3.993   7.981 -0.4825 -0.3719  0.2048
 7507SOL    HW123331   3.624   4.038   7.906 -1.8854 -3.6362 -1.2232
 7507SOL    HW223332   3.591   3.982   8.043 -0.5752 -1.7788 -0.1058
 7508SOL     OW23333   2.761   6.242   1.218 -0.1513  0.2364  0.5188
 7508SOL    HW123334   2.804   6.168   1.174 -1.1944  0.1819 -0.4667
 7508SOL    HW223335   2.671   6.213   1.231 -0.9845  1.8183 -1.1916
 7509SOL     OW23336   5.579   3.837   1.275  0.0583 -0.2185 -0.1745
 7509SOL    HW123337   5.603   3.908   1.215  2.0573 -0.6030  0.0796
 7509SOL    HW223338   5.508   3.791   1.230 -1.7411  2.2253 -0.0719
 7510SOL     OW23339   3.700   7.076   1.953  0.2122  0.0184 -0.5118
 7510SOL    HW123340   3.616   7.081   1.999 -0.1009 -0.4311 -1.0210
 7510SOL    HW223341   3.722   7.167   1.934 -0.1955  0.1394 -0.4275
 7511SOL     OW23342   7.948   7.318   3.526  0.2585 -0.0706  0.4464
 7511SOL    HW123343   7.894   7.360   3.459 -1.3860 -1.2812  0.9558
 7511SOL    HW223344   8.025   7.288   3.479  1.2318  2.8775 -0.0616
 7512SOL     OW23345   4.939   3.072   4.071 -0.4940 -0.0055 -0.4563
 7512SOL    HW123346   4.911   3.139   4.009  1.2335 -0.0943 -1.3851
 7512SOL    HW223347   4.866   3.011   4.075 -2.0380  1.7749  0.2796
 7513SOL     OW23348   4.853   0.301   3.644  0.3505 -0.2705 -0.3153
 7513SOL    HW123349   4.804   0.269   3.569  0.0671 -1.3791  0.3131
 7513SOL    HW223350   4.944   0.300   3.615  0.2435 -0.7060 -0.6521
 7514SOL     OW23351   6.185   0.754   5.485 -0.4563 -0.4718 -0.0832
 7514SOL    HW123352   6.268   0.727   5.445 -0.3579 -0.5022  0.1438
 7514SOL    HW223353   6.205   0.840   5.523 -1.2320  0.8514 -2.4166
 7515SOL     OW23354   5.450   6.377   1.944 -0.0576  0.0321  0.4838
 7515SOL    HW123355   5.365   6.420   1.948 -1.0218 -1.5674 -1.0837
 7515SOL    HW223356   5.435   6.291   1.983  1.1166  0.0666  1.0603
 7516SOL     OW23357   0.173   6.998   1.954 -0.6144 -0.4342  0.4295
 7516SOL    HW123358   0.093   7.035   1.989 -0.9108  1.3304 -1.8725
 7516SOL    HW223359   0.147   6.912   1.920 -1.2672 -0.3232  0.6402
 7517SOL     OW23360   5.345   4.671   5.042  0.2992  0.1021 -0.2275
 7517SOL    HW123361   5.293   4.750   5.054  0.0735 -0.1361  0.3593
 7517SOL    HW223362   5.323   4.642   4.954 -0.5826 -0.0132  0.0208
 7518SOL     OW23363   3.407   0.371   6.998 -0.4947  0.2454  0.1464
 7518SOL    HW123364   3.404   0.460   7.032 -2.1735 -0.0889  0.9545
 7518SOL    HW223365   3.463   0.324   7.059  0.1702  0.6703 -0.1274
 7519SOL     OW23366   6.208   4.691   7.283 -0.0293  0.5202  0.3279
 7519SOL    HW123367   6.179   4.738   7.204 -0.7057 -0.3668  0.0315
 7519SOL    HW223368   6.297   4.722   7.298 -0.2263  1.4001 -0.2414
 7520SOL     OW23369   7.971   3.985   2.756  0.2132  0.0480  0.4034
 7520SOL    HW123370   8.014   3.907   2.722  1.1002  0.2443  1.0581
 7520SOL    HW223371   7.945   4.034   2.678 -1.3531 -1.4125 -0.0424
 7521SOL     OW23372   3.886   1.932   7.311 -0.3636 -0.0473 -0.0398
 7521SOL    HW123373   3.793   1.947   7.296 -0.6697 -1.1443  0.6508
 7521SOL    HW223374   3.902   1.845   7.275  0.5650  0.4109 -0.7836
 7522SOL     OW23375   1.284   2.330   5.419 -0.0303  0.2720 -0.4442
 7522SOL    HW123376   1.258   2.341   5.510 -0.2516 -0.0151 -0.4677
 7522SOL    HW223377   1.312   2.416   5.390 -2.0635  0.8945 -0.7551
 7523SOL     OW23378   0.266   4.593   0.802  0.0557  0.0252 -0.3864
 7523SOL    HW123379   0.187   4.632   0.840  0.5121  1.5110 -0.8964
 7523SOL    HW223380   0.236   4.554   0.719 -0.0996  0.8546 -0.7283
 7524SOL     OW23381   5.369   7.959   0.547  0.8526 -0.1169  0.8582
 7524SOL    HW123382   5.361   7.865   0.527  0.7685  0.2961 -1.2639
 7524SOL    HW223383   5.338   7.967   0.637  0.1169 -2.0092  0.8198
 7525SOL     OW23384   7.524   3.156   2.094  0.2207  0.7699 -0.1868
 7525SOL    HW123385   7.523   3.200   2.009 -0.7825  2.2026  0.5326
 7525SOL    HW223386   7.616   3.154   2.119  0.5616  0.0974 -1.3960
 7526SOL     OW23387   7.133   1.896   3.630  0.2888 -0.0950 -0.3347
 7526SOL    HW123388   7.096   1.947   3.558 -1.2267  0.4948  0.8169
 7526SOL    HW223389   7.058   1.848   3.666  1.1228 -0.7991  0.5148
 7527SOL     OW23390   6.227   1.858   5.777 -0.1607  0.3940  0.2628
 7527SOL    HW123391   6.240   1.951   5.761 -0.5666  0.3914 -0.1007
 7527SOL    HW223392   6.309   1.817   5.748  0.3524  0.7189  1.2355
 7528SOL     OW23393   7.726   6.701   5.721 -0.5475 -0.0978  0.2836
 7528SOL    HW123394   7.756   6.651   5.645  1.0874 -1.1996  1.5682
 7528SOL    HW223395   7.672   6.770   5.685  2.2975  1.0695 -2.1428
 7529SOL     OW23396   6.209   2.182   0.128  0.2346  0.1217 -0.0703
 7529SOL    HW123397   6.146   2.178   0.056 -1.0079  0.2480  0.9691
 7529SOL    HW223398   6.265   2.106   0.115 -0.9548 -0.7426 -0.3114
 7530SOL     OW23399   1.177   7.700   5.977 -0.2854  0.1762 -0.0926
 7530SOL    HW123400   1.246   7.766   5.971 -1.7352  1.6141 -2.8322
 7530SOL    HW223401   1.204   7.630   5.917  0.1510 -0.6775  1.0681
 7531SOL     OW23402   7.933   0.277   4.077  0.0476  0.0884  0.0134
 7531SOL    HW123403   7.958   0.297   4.167  0.7680 -0.5789 -0.0326
 7531SOL    HW223404   8.014   0.250   4.034 -0.1518  1.0735 -1.0399
 7532SOL     OW23405   1.866   0.895   1.492  0.5234 -0.3952 -0.0258
 7532SOL    HW123406   1.829   0.969   1.443 -0.4786  0.2701  1.6704
 7532SOL    HW223407   1.885   0.829   1.425  0.1830  0.8769 -1.4233
 7533SOL     OW23408   1.168   7.807   6.500 -0.4789  0.1753  0.1316
 7533SOL    HW123409   1.142   7.866   6.570 -1.4493 -0.8780  0.6968
 7533SOL    HW223410   1.216   7.737   6.544 -1.9416 -1.0145 -0.0726
 7534SOL     OW23411   5.727   6.293   2.646 -0.2288 -0.1971 -0.3582
 7534SOL    HW123412   5.790   6.364   2.657  2.0919 -2.3814  1.7050
 7534SOL    HW223413   5.693   6.304   2.557 -0.4206  3.7278  0.0682
 7535SOL     OW23414   1.952   5.990   6.612 -0.0627  0.1471 -0.3413
 7535SOL    HW123415   1.991   5.912   6.573  0.0717 -0.1493  0.3644
 7535SOL    HW223416   1.888   6.020   6.547 -0.2452 -0.6555 -0.5516
 7536SOL     OW23417   6.945   0.771   4.861 -0.3248  0.4665  0.0233
 7536SOL    HW123418   7.003   0.846   4.849 -1.0811  1.2548  1.0711
 7536SOL    HW223419   6.906   0.757   4.775 -0.7272  1.7667 -0.0348
 7537SOL     OW23420   4.867   3.724   3.038  0.0719 -0.2595 -0.0844
 7537SOL    HW123421   4.825   3.671   2.971 -1.9783 -0.2563  1.0911
 7537SOL    HW223422   4.960   3.723   3.016 -0.4135 -1.0586 -2.3181
 7538SOL     OW23423   6.243   6.576   3.102 -0.3397 -0.2007  0.2591
 7538SOL    HW123424   6.212   6.656   3.145 -0.4854 -0.1215  0.0120
 7538SOL    HW223425   6.240   6.509   3.170 -1.3361 -0.2657  0.1685
 7539SOL     OW23426   4.578   5.791   1.012  0.5302 -0.3691  0.0797
 7539SOL    HW123427   4.565   5.720   0.949 -1.3769 -0.3703  0.4247
 7539SOL    HW223428   4.573   5.871   0.960 -2.9712 -0.2611  0.3502
 7540SOL     OW23429   3.112   0.612   2.388  0.2025 -0.0856 -0.3838
 7540SOL    HW123430   3.180   0.612   2.320 -0.1565  3.5575 -0.9693
 7540SOL    HW223431   3.151   0.564   2.461  2.2912 -0.4841 -1.6741
 7541SOL     OW23432   1.140   0.015   3.432  0.8302  0.1537  0.8646
 7541SOL    HW123433   1.056  -0.023   3.405 -0.1146  1.5013  1.7160
 7541SOL    HW223434   1.194   0.013   3.353  0.1592 -1.1680  0.4163
 7542SOL     OW23435   0.589   7.045   2.391 -0.1574 -0.3792  0.3554
 7542SOL    HW123436   0.578   7.007   2.479  0.1260  0.8700  0.9628
 7542SOL    HW223437   0.682   7.068   2.387 -0.5697  1.4272  0.5353
 7543SOL     OW23438   7.629   7.431   3.023  0.1526  0.0575 -0.3221
 7543SOL    HW123439   7.604   7.511   2.977 -2.1226 -0.4445 -0.0971
 7543SOL    HW223440   7.683   7.461   3.097  0.1953  1.2625 -0.8236
 7544SOL     OW23441   5.620   7.924   3.911 -0.2649  0.1826 -0.2479
 7544SOL    HW123442   5.536   7.887   3.885  0.4989 -0.0262 -2.7579
 7544SOL    HW223443   5.607   8.019   3.902 -1.0354  0.3633  2.2315
 7545SOL     OW23444   3.254   5.675   2.929  0.1288  0.3240  0.0682
 7545SOL    HW123445   3.292   5.713   3.008  0.3937  0.6816 -0.2305
 7545SOL    HW223446   3.200   5.602   2.961  0.4416  0.3030  0.5564
 7546SOL     OW23447   2.898   2.028   3.978 -0.4445  0.5610  0.2913
 7546SOL    HW123448   2.980   1.987   4.004 -0.0492 -0.1171 -1.8110
 7546SOL    HW223449   2.917   2.122   3.975  0.3660  0.3870 -0.4334
 7547SOL     OW23450   2.226   2.996   2.407  0.4970 -0.2997 -0.0866
 7547SOL    HW123451   2.150   3.014   2.352  1.9514  0.1569 -2.0837
 7547SOL    HW223452   2.261   2.913   2.374  1.2735 -0.1345  0.2882
 7548SOL     OW23453   7.645   7.910   5.157  1.0236  0.0878 -0.5105
 7548SOL    HW123454   7.704   7.843   5.190  1.2945 -0.0666 -1.2923
 7548SOL    HW223455   7.627   7.884   5.067  0.2151  0.4409 -0.4617
 7549SOL     OW23456   0.363   5.047   4.314 -0.3621  0.5543 -0.1569
 7549SOL    HW123457   0.357   4.963   4.359  1.8697 -0.7353 -2.0132
 7549SOL    HW223458   0.426   5.097   4.366  0.6290 -0.1410 -0.6469
 7550SOL     OW23459   3.599   5.219   7.644  0.4385  0.3714  0.1956
 7550SOL    HW123460   3.580   5.288   7.707  1.3935 -0.2375  1.1906
 7550SOL    HW223461   3.677   5.251   7.598 -1.2777  1.6662 -2.0454
 7551SOL     OW23462   6.275   2.685   5.896  0.8483 -0.9482  0.5041
 7551SOL    HW123463   6.229   2.637   5.827 -1.6456 -0.2791  1.5874
 7551SOL    HW223464   6.364   2.696   5.862 -0.1820 -0.9041 -2.4585
 7552SOL     OW23465   2.352   6.093   5.612 -0.0070  0.0810 -0.1326
 7552SOL    HW123466   2.329   6.165   5.554  1.4331  0.3551 -0.4154
 7552SOL    HW223467   2.351   6.132   5.700 -1.9436 -0.2738  0.0502
 7553SOL     OW23468   2.059   4.641   2.658  0.7865  0.4138 -0.3923
 7553SOL    HW123469   1.988   4.701   2.683 -0.5205 -1.4997  0.7696
 7553SOL    HW223470   2.026   4.598   2.578  1.2487  0.4839 -0.6209
 7554SOL     OW23471   6.266   5.781   2.057 -0.4469 -0.2571 -0.4677
 7554SOL    HW123472   6.190   5.798   2.001 -0.6305 -2.0738 -0.8475
 7554SOL    HW223473   6.336   5.834   2.020 -0.8437 -0.6274 -1.8074
 7555SOL     OW23474   5.051   1.968   5.982 -0.3175 -0.7005 -0.0795
 7555SOL    HW123475   5.113   1.896   5.977 -0.4643 -0.7468 -1.5480
 7555SOL    HW223476   4.990   1.942   6.051  2.0538  0.0146  2.4807
 7556SOL     OW23477   3.926   4.911   5.033  0.2694 -0.4970  0.2867
 7556SOL    HW123478   3.963   4.909   4.945  0.4228 -0.0293  0.3415
 7556SOL    HW223479   4.003   4.916   5.091  0.1093  1.8276  0.3617
 7557SOL     OW23480   5.826   3.928   1.402  0.1891  0.0711 -0.2255
 7557SOL    HW123481   5.847   4.021   1.407 -0.6972  0.2402  0.6919
 7557SOL    HW223482   5.752   3.923   1.342 -0.5613  0.1197  0.6741
 7558SOL     OW23483   1.631   4.770   0.899 -0.3641  0.6332  0.3430
 7558SOL    HW123484   1.670   4.764   0.812 -0.2055 -1.9372  0.5205
 7558SOL    HW223485   1.623   4.864   0.916  5.2004  1.4697  0.0834
 7559SOL     OW23486   1.471   0.943   4.306 -0.2272  0.0932  0.1890
 7559SOL    HW123487   1.443   0.873   4.365  2.2857 -1.3096 -0.1298
 7559SOL    HW223488   1.415   1.017   4.328 -2.5935 -1.7893  0.9750
 7560SOL     OW23489   6.947   5.335   0.732  0.4341 -0.0665 -0.3675
 7560SOL    HW123490   6.853   5.341   0.744  0.5302  0.1639  0.3245
 7560SOL    HW223491   6.976   5.426   0.724  0.5397 -0.1597 -1.0555
 7561SOL     OW23492   4.693   1.280   6.869  0.3687 -0.4269 -0.5396
 7561SOL    HW123493   4.658   1.207   6.818  0.7751 -1.7120  0.9455
 7561SOL    HW223494   4.742   1.332   6.806  1.0805 -2.0925 -1.4259
 7562SOL     OW23495   5.893   0.982   0.166 -0.2052 -0.6119  0.0952
 7562SOL    HW123496   5.986   0.989   0.145 -0.2994 -0.1239 -0.1616
 7562SOL    HW223497   5.890   0.984   0.261  0.1449 -1.8801  0.1571
 7563SOL     OW23498   3.048   6.180   1.809 -0.3243 -0.2160 -0.1657
 7563SOL    HW123499   3.090   6.167   1.894 -0.5559  1.9845  0.3539
 7563SOL    HW223500   3.119   6.171   1.746 -0.0503 -1.3632  0.2844
 7564SOL     OW23501   2.320   1.848   7.852  0.3302 -0.6769 -0.2106
 7564SOL    HW123502   2.276   1.786   7.910  3.1097 -0.3682  2.4753
 7564SOL    HW223503   2.275   1.932   7.868  0.4826 -0.7846  0.8588
 7565SOL     OW23504   7.105   5.087   3.482  0.2112 -0.4256  0.1913
 7565SOL    HW123505   7.170   5.018   3.475 -0.2982 -1.0780  1.5473
 7565SOL    HW223506   7.146   5.154   3.537 -0.0262 -0.5452  0.5147
 7566SOL     OW23507   2.793   3.966   3.783  0.7527  0.1477  0.4123
 7566SOL    HW123508   2.781   4.046   3.732 -3.0268 -0.6767 -0.3497
 7566SOL    HW223509   2.860   3.988   3.847 -0.1510  3.9620  0.3121
 7567SOL     OW23510   2.804   5.665   1.453 -0.0177  0.4363 -0.4274
 7567SOL    HW123511   2.756   5.583   1.439  0.7137  0.2641 -2.3205
 7567SOL    HW223512   2.856   5.649   1.531 -0.4787 -0.6261 -0.3163
 7568SOL     OW23513   2.235   1.736   5.840  0.4167  0.7805  0.2204
 7568SOL    HW123514   2.227   1.756   5.746  2.0100  1.3948  0.1844
 7568SOL    HW223515   2.291   1.659   5.844  0.1226  0.5836  0.6714
 7569SOL     OW23516   6.980   7.707   5.191 -0.1119  0.3478  0.2522
 7569SOL    HW123517   6.953   7.794   5.160 -0.1670  0.4564  0.5998
 7569SOL    HW223518   7.076   7.710   5.189 -0.1079  0.6255  0.8350
 7570SOL     OW23519   6.866   5.806   5.128 -0.0904  0.1275 -0.1394
 7570SOL    HW123520   6.915   5.856   5.193 -1.2128  1.3999 -0.2140
 7570SOL    HW223521   6.775   5.831   5.143 -0.8353 -2.6220  0.4046
 7571SOL     OW23522   2.721   7.189   6.586  0.4039  0.6477  0.0370
 7571SOL    HW123523   2.806   7.144   6.585  1.0934  1.8030  1.7620
 7571SOL    HW223524   2.670   7.143   6.653  0.2210  0.8809  0.0597
 7572SOL     OW23525   2.274   6.310   0.547  0.6511  0.6229  0.6010
 7572SOL    HW123526   2.202   6.253   0.519  2.3139  0.3375 -3.7097
 7572SOL    HW223527   2.286   6.289   0.640 -3.3605 -0.8186  0.9917
 7573SOL     OW23528   2.942   6.596   3.431  0.0637  0.0517 -0.2877
 7573SOL    HW123529   2.936   6.601   3.526  0.5967 -0.1478 -0.2420
 7573SOL    HW223530   2.871   6.653   3.400 -0.1302  0.0971  0.2238
 7574SOL     OW23531   1.517   1.249   6.791  0.2903 -0.0143 -0.2398
 7574SOL    HW123532   1.575   1.180   6.822 -0.3620  0.2053  1.5605
 7574SOL    HW223533   1.575   1.311   6.747  1.1915 -0.5494  0.1757
 7575SOL     OW23534   3.482   4.505   5.309  0.3747  0.7543 -0.0771
 7575SOL    HW123535   3.517   4.532   5.224  1.5654  0.4717  0.3028
 7575SOL    HW223536   3.441   4.584   5.345  3.1900  1.9784  0.7176
 7576SOL     OW23537   7.743   7.010   3.484 -0.2460 -0.2506 -0.6305
 7576SOL    HW123538   7.778   7.037   3.399  0.9210  0.6237  0.0951
 7576SOL    HW223539   7.814   6.961   3.525  0.4284  2.0037  1.0873
 7577SOL     OW23540   6.934   7.107   4.858 -0.3841 -0.1008  0.3769
 7577SOL    HW123541   6.877   7.176   4.892  0.8111  1.3279 -0.3972
 7577SOL    HW223542   7.013   7.113   4.911 -0.7140 -1.7126  1.0948
 7578SOL     OW23543   1.991   5.672   6.912 -0.4324  0.2389 -0.2590
 7578SOL    HW123544   1.929   5.742   6.893 -0.4656  0.3236  0.1450
 7578SOL    HW223545   1.938   5.606   6.957 -0.2023  0.3751  0.2188
 7579SOL     OW23546   2.598   1.578   7.652  0.1835  0.1735  0.2154
 7579SOL    HW123547   2.531   1.584   7.584  1.1851  0.4072 -0.7831
 7579SOL    HW223548   2.644   1.496   7.634  1.4840  1.0057 -0.4026
 7580SOL     OW23549   7.905   5.242   7.355  0.4540 -0.5421 -0.4096
 7580SOL    HW123550   7.836   5.299   7.319 -0.8691 -1.9500 -0.2394
 7580SOL    HW223551   7.932   5.285   7.436  0.7931  0.7487 -1.1707
 7581SOL     OW23552   2.969   2.250   3.237  0.1139  0.6907 -0.0032
 7581SOL    HW123553   2.923   2.252   3.320 -2.5870 -3.1191 -1.1173
 7581SOL    HW223554   3.060   2.229   3.260 -0.6329 -0.5823  2.0129
 7582SOL     OW23555   5.908   0.369   5.324 -0.0251 -0.9040 -0.5196
 7582SOL    HW123556   5.928   0.283   5.360  1.8720 -1.1138 -1.9222
 7582SOL    HW223557   5.978   0.386   5.262 -1.3365  0.8902 -1.6100
 7583SOL     OW23558   3.690   1.366   4.144  0.8633  0.2841  0.1131
 7583SOL    HW123559   3.719   1.433   4.082  2.3912  0.0131  0.4967
 7583SOL    HW223560   3.640   1.304   4.091  1.7485  0.3075 -0.7892
 7584SOL     OW23561   0.209   2.587   1.332  0.1888 -0.0831  0.1494
 7584SOL    HW123562   0.122   2.622   1.351 -0.0031  0.5167 -1.5985
 7584SOL    HW223563   0.267   2.629   1.396 -0.1989  2.7416 -1.2069
 7585SOL     OW23564   0.188   1.156   3.411  0.0747  0.4718 -0.5124
 7585SOL    HW123565   0.271   1.120   3.380 -0.5986 -1.1971 -0.4534
 7585SOL    HW223566   0.214   1.218   3.479  1.3326  1.0832 -1.5063
 7586SOL     OW23567   6.431   7.975   0.689 -0.7485 -0.7612  0.0844
 7586SOL    HW123568   6.468   7.916   0.624  1.5278  0.6280  0.0525
 7586SOL    HW223569   6.396   8.048   0.639 -2.0275 -1.2297  0.2457
 7587SOL     OW23570   2.669   5.286   4.834  0.3916 -0.5893  0.1851
 7587SOL    HW123571   2.664   5.337   4.754 -1.3227 -2.2423 -0.8397
 7587SOL    HW223572   2.656   5.350   4.904 -0.4758  0.5638 -0.9814
 7588SOL     OW23573   5.904   4.959   5.382 -0.7283 -0.4735 -0.4556
 7588SOL    HW123574   5.978   4.900   5.370 -1.0304 -0.7824 -0.7857
 7588SOL    HW223575   5.857   4.958   5.299 -1.0140 -0.1524 -0.3033
 7589SOL     OW23576   6.671   4.967   4.546 -0.2117 -0.2636  0.6456
 7589SOL    HW123577   6.621   4.921   4.613  1.5855 -0.3146  2.0275
 7589SOL    HW223578   6.709   5.043   4.591  1.7059 -0.7401 -0.0605
 7590SOL     OW23579   6.183   4.131   1.342 -0.2516 -0.0108  0.0647
 7590SOL    HW123580   6.230   4.091   1.415 -0.0420 -1.1293 -0.6454
 7590SOL    HW223581   6.245   4.126   1.269 -0.8773  0.0101 -0.4784
 7591SOL     OW23582   0.117   6.625   4.485 -0.2685 -0.1407 -0.3704
 7591SOL    HW123583   0.175   6.551   4.469 -1.6633 -1.1571 -0.9617
 7591SOL    HW223584   0.047   6.615   4.419  0.1686  2.4397 -1.3283
 7592SOL     OW23585   3.159   4.794   3.931  0.1878  0.6416  0.1290
 7592SOL    HW123586   3.128   4.726   3.990 -0.1560 -0.4218 -1.2161
 7592SOL    HW223587   3.230   4.753   3.881  0.9412  1.7225  0.2580
 7593SOL     OW23588   7.388   4.201   4.857 -0.1192 -0.0002 -0.0970
 7593SOL    HW123589   7.351   4.140   4.793 -0.3453  1.4578 -1.4073
 7593SOL    HW223590   7.334   4.190   4.934 -1.6238  0.1836 -1.0935
 7594SOL     OW23591   2.744   6.949   6.994  0.8507 -0.2354  0.0667
 7594SOL    HW123592   2.717   6.910   7.077 -1.4837  0.4971 -0.2949
 7594SOL    HW223593   2.734   7.044   7.007  0.4013 -0.1101 -1.0662
 7595SOL     OW23594   5.107   7.441   1.684  0.4194 -0.3100 -0.7000
 7595SOL    HW123595   5.070   7.353   1.675  1.2854 -0.9414  1.4827
 7595SOL    HW223596   5.044   7.497   1.638 -1.1087 -1.8360 -0.5952
 7596SOL     OW23597   1.814   0.938   5.296 -0.2304 -0.6422  0.6996
 7596SOL    HW123598   1.730   0.980   5.277  0.4769  1.0559  1.1393
 7596SOL    HW223599   1.855   0.994   5.362  1.0477 -1.7059  0.8602
 7597SOL     OW23600   5.680   3.755   2.045  0.7456 -0.4947 -0.4147
 7597SOL    HW123601   5.657   3.825   1.983 -0.6935 -0.7822 -0.2385
 7597SOL    HW223602   5.717   3.801   2.120 -2.7455  0.4719  0.9441
 7598SOL     OW23603   0.784   4.270   2.248 -0.2451 -0.1278 -0.3048
 7598SOL    HW123604   0.823   4.209   2.185 -1.9514 -0.0161 -1.5299
 7598SOL    HW223605   0.697   4.234   2.266 -1.2869  1.8841 -1.0305
 7599SOL     OW23606   6.604   0.322   7.821 -0.1351 -0.2983  0.2534
 7599SOL    HW123607   6.554   0.393   7.780 -0.4739 -0.0770  1.0281
 7599SOL    HW223608   6.694   0.355   7.824 -0.3194  0.1755  0.7618
 7600SOL     OW23609   3.630   3.387   0.925  0.0866  0.6176 -0.0805
 7600SOL    HW123610   3.535   3.379   0.914  0.1719  2.1918 -3.1812
 7600SOL    HW223611   3.643   3.475   0.962  0.3430  0.7209 -0.4063
 7601SOL     OW23612   0.297   7.849   2.992  0.6854 -0.2511 -0.1253
 7601SOL    HW123613   0.203   7.834   2.985  0.6028 -1.2929  2.3306
 7601SOL    HW223614   0.305   7.924   3.052  1.3658 -2.0517  2.2116
 7602SOL     OW23615   1.110   2.940   1.311 -0.2186  0.2284  0.4905
 7602SOL    HW123616   1.200   2.910   1.300  0.2316  1.1199  1.5322
 7602SOL    HW223617   1.057   2.861   1.306  0.7049 -0.4102  0.6716
 7603SOL     OW23618   2.710   6.134   6.433  0.3232 -0.3959 -0.3015
 7603SOL    HW123619   2.798   6.171   6.441 -0.6400  2.2075 -0.6213
 7603SOL    HW223620   2.661   6.175   6.504 -0.6706 -1.7031 -0.2155
 7604SOL     OW23621   5.863   3.267   4.934 -0.2516  0.3780 -0.1041
 7604SOL    HW123622   5.909   3.183   4.932  0.2248  0.6445 -2.0312
 7604SOL    HW223623   5.930   3.330   4.959 -0.6394  0.2254  1.4799
 7605SOL     OW23624   3.294   2.023   3.153 -0.6754 -0.3526  0.5170
 7605SOL    HW123625   3.306   2.083   3.227 -1.7861 -1.0484  1.3051
 7605SOL    HW223626   3.338   2.066   3.080 -1.1962  1.2943  1.1156
 7606SOL     OW23627   6.977   7.246   1.985  0.7147 -0.5772  0.0449
 7606SOL    HW123628   7.001   7.303   2.058  0.9073  1.1225 -1.2913
 7606SOL    HW223629   6.884   7.261   1.971  0.9985  0.2843 -1.0195
 7607SOL     OW23630   2.634   0.477   1.713  0.2002 -0.4137 -0.2168
 7607SOL    HW123631   2.614   0.448   1.624  1.3498 -0.7364 -0.3853
 7607SOL    HW223632   2.724   0.449   1.728 -0.0223 -0.4929  1.1119
 7608SOL     OW23633   7.452   2.078   2.308 -0.1940  0.4607  0.1285
 7608SOL    HW123634   7.434   1.998   2.357 -0.1748  1.8710  2.6025
 7608SOL    HW223635   7.519   2.123   2.359  1.3347  1.1712 -2.2791
 7609SOL     OW23636   2.898   4.264   2.172 -0.1972 -0.7844  0.0146
 7609SOL    HW123637   2.910   4.328   2.102 -1.5602 -1.5272 -0.9422
 7609SOL    HW223638   2.944   4.301   2.247 -0.8874  1.2774 -0.5349
 7610SOL     OW23639   4.867   1.192   4.394  0.2105 -0.6634  0.0255
 7610SOL    HW123640   4.902   1.174   4.307 -1.2824  0.8028 -0.9363
 7610SOL    HW223641   4.812   1.116   4.413  0.2903 -0.8411 -0.4427
 7611SOL     OW23642   6.738   2.212   4.616  0.6782  0.6005 -0.5430
 7611SOL    HW123643   6.660   2.251   4.657  0.5768  0.8971 -1.0085
 7611SOL    HW223644   6.721   2.219   4.522 -0.3113 -2.5340 -0.6955
 7612SOL     OW23645   1.297   5.049   6.747 -0.2410  0.6069 -0.8673
 7612SOL    HW123646   1.263   5.125   6.794  0.9358 -0.2374  1.4977
 7612SOL    HW223647   1.227   4.983   6.754 -0.4344  0.7852 -1.1112
 7613SOL     OW23648   0.239   7.812   4.520 -0.1802  0.4762 -0.3672
 7613SOL    HW123649   0.161   7.758   4.506 -1.4461  1.9127  0.7732
 7613SOL    HW223650   0.304   7.750   4.553 -0.1721 -1.1019 -3.0986
 7614SOL     OW23651   4.177   0.463   4.958  0.2384 -0.2570 -0.5420
 7614SOL    HW123652   4.244   0.491   4.895  0.2070 -0.7557 -0.8074
 7614SOL    HW223653   4.199   0.509   5.039  2.2605 -2.0463  0.0416
 7615SOL     OW23654   0.162   1.756   6.865  0.1205  0.6146 -0.1624
 7615SOL    HW123655   0.137   1.847   6.875  0.4801  0.6287  0.6842
 7615SOL    HW223656   0.256   1.754   6.887 -0.4015 -0.3318  2.3693
 7616SOL     OW23657   0.596   1.088   0.873  0.3509  0.0592 -0.5689
 7616SOL    HW123658   0.536   1.117   0.805  1.4627  0.5884 -1.3492
 7616SOL    HW223659   0.647   1.166   0.895 -1.5751  0.6238  2.6691
 7617SOL     OW23660   7.864   5.175   5.607 -0.5313  0.0028 -0.1658
 7617SOL    HW123661   7.862   5.162   5.512  0.4604 -0.0121 -0.1921
 7617SOL    HW223662   7.865   5.270   5.618 -0.4285  0.0031 -0.1773
 7618SOL     OW23663   0.360   5.085   2.429  0.2492  0.8000 -0.0240
 7618SOL    HW123664   0.404   5.102   2.346 -0.3236  0.5716 -0.3801
 7618SOL    HW223665   0.345   5.172   2.467  0.9374  0.8808  0.0691
 7619SOL     OW23666   0.279   7.318   7.254  0.1036  0.1595 -0.4918
 7619SOL    HW123667   0.343   7.315   7.182 -2.0111  0.8245 -2.5036
 7619SOL    HW223668   0.240   7.231   7.254  0.9671 -0.2549  0.7604
 7620SOL     OW23669   4.809   2.258   4.632 -0.1025  0.6432  0.2744
 7620SOL    HW123670   4.832   2.238   4.541 -1.6333  0.6491 -0.1351
 7620SOL    HW223671   4.833   2.350   4.643  0.4632  0.5334  0.0080
 7621SOL     OW23672   4.909   3.333   6.394  0.0435  0.7788 -0.4274
 7621SOL    HW123673   4.975   3.331   6.324 -1.4424  1.0561 -1.8922
 7621SOL    HW223674   4.951   3.383   6.464  2.5577 -1.6591 -0.0326
 7622SOL     OW23675   1.719   0.607   4.600 -0.0130  0.5287  0.4869
 7622SOL    HW123676   1.726   0.657   4.681 -1.1446  0.7507  0.4585
 7622SOL    HW223677   1.626   0.604   4.581  0.0372 -1.3913  0.3578
 7623SOL     OW23678   1.292   5.019   7.211 -0.4365  0.2192  0.6199
 7623SOL    HW123679   1.314   4.963   7.137 -0.8258 -0.1476  0.7754
 7623SOL    HW223680   1.310   5.108   7.181  0.6599 -0.0149  0.5311
 7624SOL     OW23681   5.105   0.531   4.052 -0.1578 -0.5960  0.3260
 7624SOL    HW123682   5.161   0.606   4.073 -0.2347 -0.5165  0.2483
 7624SOL    HW223683   5.155   0.481   3.987 -0.9669  0.4812 -1.2008
 7625SOL     OW23684   7.793   2.173   5.883 -0.0448  0.0210 -0.3166
 7625SOL    HW123685   7.739   2.098   5.908  0.2895  0.0357  0.4913
 7625SOL    HW223686   7.801   2.224   5.964  0.2497  0.5984 -0.7053
 7626SOL     OW23687   6.792   7.485   3.527 -0.4215 -0.7037  0.1820
 7626SOL    HW123688   6.811   7.561   3.581  3.1793 -1.4405  0.1601
 7626SOL    HW223689   6.708   7.506   3.485 -0.0144  2.8268  0.8227
 7627SOL     OW23690   1.887   6.889   3.490 -0.2855  0.3325 -0.1700
 7627SOL    HW123691   1.815   6.891   3.427 -2.1383 -0.8811  1.7757
 7627SOL    HW223692   1.906   6.796   3.502  1.8393  0.6329 -0.8109
 7628SOL     OW23693   3.950   1.865   2.877 -0.3305 -0.6152  0.0588
 7628SOL    HW123694   4.013   1.937   2.882  0.0341 -0.9212 -0.0867
 7628SOL    HW223695   3.916   1.857   2.966  0.1448 -0.7222  0.2316
 7629SOL     OW23696   3.049   4.102   5.849 -0.1236  0.5121 -0.8087
 7629SOL    HW123697   2.976   4.159   5.825  1.4245  3.0244  0.0643
 7629SOL    HW223698   3.125   4.160   5.852  1.4685 -1.5023  0.7333
 7630SOL     OW23699   7.922   4.806   2.280  0.7184 -0.5364  0.4583
 7630SOL    HW123700   7.943   4.744   2.350 -0.2536 -0.6393  0.6728
 7630SOL    HW223701   7.876   4.877   2.324 -2.0326 -1.6902 -0.3311
 7631SOL     OW23702   4.927   6.956   1.324 -0.2447 -0.6156 -0.7164
 7631SOL    HW123703   4.882   6.885   1.370 -0.5597 -0.4816 -0.8192
 7631SOL    HW223704   4.867   7.030   1.329  0.2815 -0.2118 -0.1943
 7632SOL     OW23705   0.212   1.585   2.425 -0.1019  0.5796 -0.3057
 7632SOL    HW123706   0.283   1.523   2.443 -0.6980  0.5265  2.2294
 7632SOL    HW223707   0.226   1.612   2.335  1.9066 -1.0157 -0.5381
 7633SOL     OW23708   6.658   3.937   4.322 -0.0163  0.1004 -0.0415
 7633SOL    HW123709   6.598   3.983   4.381 -0.2476 -0.3094  0.0425
 7633SOL    HW223710   6.618   3.948   4.235  0.2248  0.5395 -0.1008
 7634SOL     OW23711   7.159   4.481   5.752 -0.2508  0.4007  0.1007
 7634SOL    HW123712   7.095   4.472   5.682 -1.9716  2.0248  1.3771
 7634SOL    HW223713   7.243   4.489   5.706 -1.3754  2.0261 -1.8208
 7635SOL     OW23714   4.525   2.345   1.948  0.1969 -0.0873  0.2488
 7635SOL    HW123715   4.536   2.256   1.982  1.5369 -0.2890 -0.6332
 7635SOL    HW223716   4.518   2.334   1.853 -0.3831  0.7020  0.1863
 7636SOL     OW23717   3.836   5.898   7.632  0.3492 -0.2516  0.3147
 7636SOL    HW123718   3.749   5.935   7.648 -0.3405 -1.2968 -0.8699
 7636SOL    HW223719   3.877   5.958   7.570  0.0060 -0.4165 -0.0686
 7637SOL     OW23720   5.833   1.956   2.734  0.0955 -0.0409 -0.4340
 7637SOL    HW123721   5.810   1.867   2.706 -1.2034  0.3250 -0.5965
 7637SOL    HW223722   5.809   1.959   2.827 -1.0956  0.5094 -0.7365
 7638SOL     OW23723   4.408   6.312   1.908 -0.5554 -0.2020 -0.1320
 7638SOL    HW123724   4.396   6.281   1.997 -0.3190 -1.5463 -0.5424
 7638SOL    HW223725   4.319   6.327   1.876 -0.7810 -1.9526 -0.4046
 7639SOL     OW23726   5.856   6.397   3.235 -0.1612  0.0973  0.1849
 7639SOL    HW123727   5.949   6.385   3.215 -0.2680 -1.0889  0.2963
 7639SOL    HW223728   5.851   6.484   3.274  0.8571  0.2932 -0.0741
 7640SOL     OW23729   5.190   4.557   6.808  0.6508  0.4276 -0.4848
 7640SOL    HW123730   5.219   4.627   6.750 -2.4907  0.2472 -2.4995
 7640SOL    HW223731   5.097   4.547   6.789  0.3154 -2.2710  1.9143
 7641SOL     OW23732   2.046   3.300   1.928 -0.1982 -0.6725  0.7268
 7641SOL    HW123733   1.970   3.320   1.873  0.1031 -0.1568  0.4937
 7641SOL    HW223734   2.109   3.260   1.867 -0.2176 -0.9582  0.8901
 7642SOL     OW23735   3.241   2.246   3.317 -0.1839  0.0430 -0.7662
 7642SOL    HW123736   3.308   2.313   3.304  1.7944 -1.5430  0.5333
 7642SOL    HW223737   3.238   2.233   3.412 -0.7646 -1.4284 -0.9564
 7643SOL     OW23738   1.452   5.940   0.809  0.1165 -0.3803 -0.3705
 7643SOL    HW123739   1.414   5.939   0.896 -0.4241  0.5971 -0.5747
 7643SOL    HW223740   1.528   5.998   0.817  1.1513 -1.7292 -0.1394
 7644SOL     OW23741   5.276   7.682   0.511  0.3127 -0.2692 -0.1170
 7644SOL    HW123742   5.269   7.718   0.423 -1.8632 -0.1894  0.0473
 7644SOL    HW223743   5.265   7.588   0.500 -1.3387 -0.1309  0.1775
 7645SOL     OW23744   7.300   2.657   3.224 -0.3296 -0.3955  0.5067
 7645SOL    HW123745   7.289   2.595   3.297 -1.9163 -2.4603 -1.3367
 7645SOL    HW223746   7.220   2.709   3.225  0.5880  1.0719  1.4673
 7646SOL     OW23747   0.162   3.760   5.172  0.1643 -0.1633  0.6728
 7646SOL    HW123748   0.099   3.810   5.224  1.0814 -0.2795  1.9590
 7646SOL    HW223749   0.184   3.685   5.228  0.7667 -0.6009 -0.1341
 7647SOL     OW23750   3.601   3.984   2.866 -0.2025  0.0692 -0.3890
 7647SOL    HW123751   3.649   4.011   2.944  0.0693 -2.2969  0.3503
 7647SOL    HW223752   3.646   4.026   2.793  0.0013  1.7227  0.6484
 7648SOL     OW23753   6.289   6.136   6.873  0.1620 -0.3651  0.2076
 7648SOL    HW123754   6.281   6.205   6.938 -1.2727 -1.9144  1.7764
 7648SOL    HW223755   6.226   6.161   6.804  0.6647  0.5654  0.0694
 7649SOL     OW23756   6.217   6.725   5.300  0.3076  0.3488 -0.3146
 7649SOL    HW123757   6.198   6.637   5.268  0.9209 -0.1147  0.5441
 7649SOL    HW223758   6.307   6.721   5.331  0.4893  1.4028 -0.6544
 7650SOL     OW23759   0.643   0.069   5.175 -0.3193  0.3192 -0.0163
 7650SOL    HW123760   0.586   0.093   5.101 -1.5751 -0.0381  0.8172
 7650SOL    HW223761   0.595   0.096   5.253  0.5288 -0.2438  0.7259
 7651SOL     OW23762   7.814   7.684   7.643 -0.1450 -0.9108  0.1136
 7651SOL    HW123763   7.732   7.728   7.663  0.0954 -0.5188  0.2390
 7651SOL    HW223764   7.879   7.754   7.640 -0.1248 -0.9655 -1.8046
 7652SOL     OW23765   1.663   5.986   4.901  0.3861 -0.1707  0.5805
 7652SOL    HW123766   1.716   6.032   4.966 -0.8348  2.3632 -0.0903
 7652SOL    HW223767   1.574   6.019   4.914 -0.0106  0.0232 -1.9643
 7653SOL     OW23768   4.845   7.459   4.815 -0.2178 -0.0173  0.0830
 7653SOL    HW123769   4.780   7.421   4.756  0.2724  0.4240 -0.7655
 7653SOL    HW223770   4.863   7.546   4.779  1.3285 -0.3726 -0.1088
 7654SOL     OW23771   0.453   2.054   7.935  0.5361 -0.1750  0.0258
 7654SOL    HW123772   0.486   1.964   7.939  2.4034  0.5092  2.3978
 7654SOL    HW223773   0.366   2.049   7.975  0.7219 -0.8993  0.3673
 7655SOL     OW23774   1.399   5.988   5.607  0.0448  0.0103  0.2360
 7655SOL    HW123775   1.410   5.978   5.702  0.4155  1.3074  0.3521
 7655SOL    HW223776   1.439   5.909   5.570 -1.5534 -1.2995  1.2032
 7656SOL     OW23777   7.771   0.892   2.447  0.0986  0.1186  0.1363
 7656SOL    HW123778   7.783   0.899   2.542  0.3398  1.9367  0.0070
 7656SOL    HW223779   7.686   0.932   2.431  0.1571  0.0130 -0.4446
 7657SOL     OW23780   1.315   2.261   0.805 -0.2906 -0.5281 -0.1591
 7657SOL    HW123781   1.251   2.295   0.867 -0.7025 -0.0314 -0.8335
 7657SOL    HW223782   1.312   2.322   0.731 -0.0619 -1.2767 -0.8086
 7658SOL     OW23783   4.918   0.861   0.135 -0.6020 -0.5178  0.1396
 7658SOL    HW123784   4.857   0.933   0.153  0.5164  0.6648 -0.6755
 7658SOL    HW223785   4.913   0.806   0.214 -0.6023  1.0866  1.3073
 7659SOL     OW23786   6.330   3.692   4.630  0.1097 -0.4128 -0.0362
 7659SOL    HW123787   6.338   3.777   4.586  0.3171 -0.5493 -0.2664
 7659SOL    HW223788   6.262   3.646   4.581  1.3368 -1.1328 -1.1726
 7660SOL     OW23789   6.638   5.569   1.421 -0.2759  0.1673  0.2426
 7660SOL    HW123790   6.647   5.519   1.501  1.1612 -0.0848 -0.0582
 7660SOL    HW223791   6.622   5.504   1.353  2.9531 -0.1080 -0.3774
 7661SOL     OW23792   5.851   5.464   3.545 -0.7845  0.1253  0.1424
 7661SOL    HW123793   5.801   5.518   3.606 -1.6802 -0.7335  0.2004
 7661SOL    HW223794   5.837   5.504   3.459 -4.6519 -2.0365 -0.4768
 7662SOL     OW23795   6.839   5.836   4.640 -0.0768  0.1197 -0.1424
 7662SOL    HW123796   6.906   5.784   4.684  2.4222  2.1296 -1.3680
 7662SOL    HW223797   6.775   5.856   4.709 -0.0541 -2.7057  0.8149
 7663SOL     OW23798   3.592   3.305   5.571 -0.1055  0.1947 -0.4407
 7663SOL    HW123799   3.619   3.219   5.539  0.5316 -0.6607  2.2014
 7663SOL    HW223800   3.498   3.296   5.588 -0.6462  0.9143 -2.6231
 7664SOL     OW23801   3.151   2.380   1.854  0.0536  0.5597  0.1254
 7664SOL    HW123802   3.185   2.447   1.912 -2.2159  3.3362 -1.4612
 7664SOL    HW223803   3.076   2.344   1.901 -0.8284  1.6883 -0.3630
 7665SOL     OW23804   4.203   6.229   7.950 -0.2618  0.0964  0.0855
 7665SOL    HW123805   4.227   6.263   7.864 -2.2326 -0.5292 -0.7650
 7665SOL    HW223806   4.285   6.231   8.000  0.7196  1.3931 -1.4703
 7666SOL     OW23807   5.050   0.704   5.892  0.1522 -0.0593  0.3750
 7666SOL    HW123808   5.046   0.796   5.868 -1.8721  0.5426  2.6885
 7666SOL    HW223809   4.982   0.662   5.838  0.6753 -0.0952 -0.2575
 7667SOL     OW23810   5.487   0.143   7.853 -0.2954 -0.2840  0.4802
 7667SOL    HW123811   5.509   0.233   7.829 -0.0212 -0.3274  0.5684
 7667SOL    HW223812   5.557   0.090   7.816  0.2281 -0.3371  1.5013
 7668SOL     OW23813   7.400   2.263   3.598 -0.0857 -0.0087  0.5235
 7668SOL    HW123814   7.355   2.222   3.672 -1.3622  0.2891 -0.0611
 7668SOL    HW223815   7.469   2.201   3.574 -1.6819 -1.6292 -0.0573
 7669SOL     OW23816   3.865   5.562   2.062 -0.0525  0.6917  0.0072
 7669SOL    HW123817   3.782   5.608   2.044 -1.3262 -0.3524  2.5779
 7669SOL    HW223818   3.893   5.528   1.978 -2.0834  1.3643 -1.0086
 7670SOL     OW23819   0.519   5.768   3.444  0.4020  0.4712  0.0063
 7670SOL    HW123820   0.555   5.790   3.530 -1.8124 -1.1761  1.4638
 7670SOL    HW223821   0.570   5.691   3.417 -0.3324 -0.3867  0.9515
 7671SOL     OW23822   1.789   4.811   3.181  0.0773 -0.4911  0.5346
 7671SOL    HW123823   1.815   4.903   3.189 -0.5093 -0.1208 -1.3969
 7671SOL    HW223824   1.731   4.796   3.256 -0.2599  0.8792  0.5713
 7672SOL     OW23825   6.428   3.872   5.281 -0.6412 -0.3841 -0.1457
 7672SOL    HW123826   6.346   3.839   5.244 -0.5829 -0.2912 -0.3581
 7672SOL    HW223827   6.472   3.794   5.315 -0.1988 -0.6287 -1.2309
 7673SOL     OW23828   1.219   1.175   5.214 -0.6938 -0.2483  0.0229
 7673SOL    HW123829   1.208   1.262   5.176  0.0648 -0.2858 -0.2887
 7673SOL    HW223830   1.197   1.187   5.307 -1.1207  0.1514 -0.1241
 7674SOL     OW23831   1.200   5.218   2.156 -0.0889  0.1095 -0.3557
 7674SOL    HW123832   1.153   5.270   2.221 -0.1374 -0.1762 -0.1624
 7674SOL    HW223833   1.241   5.283   2.099  0.6286  0.3787  0.4359
 7675SOL     OW23834   5.451   2.291   4.389 -0.5114 -0.2152  0.5981
 7675SOL    HW123835   5.529   2.313   4.440  0.1896  1.3093 -1.0229
 7675SOL    HW223836   5.467   2.203   4.356  0.3531 -0.0759  0.6304
 7676SOL     OW23837   5.565   4.055   5.677 -0.2289 -0.2357  0.4379
 7676SOL    HW123838   5.639   4.033   5.734  0.5111  1.7894  0.3720
 7676SOL    HW223839   5.488   4.040   5.731  0.3292 -0.8419  1.0798
 7677SOL     OW23840   7.126   0.267   4.090 -0.0536 -0.7438 -0.3314
 7677SOL    HW123841   7.163   0.338   4.142  0.2919 -0.0855 -1.4538
 7677SOL    HW223842   7.037   0.297   4.068 -0.7688 -1.6807  1.1160
 7678SOL     OW23843   7.247   2.263   2.338 -0.2918 -0.1193 -0.1311
 7678SOL    HW123844   7.311   2.194   2.327 -0.7528 -0.7217  0.7949
 7678SOL    HW223845   7.183   2.227   2.399 -0.7237  1.0034  0.1126
 7679SOL     OW23846   1.316   0.780   0.993  0.1805  0.3906  0.5789
 7679SOL    HW123847   1.392   0.809   1.043  0.1537 -0.2638  1.0091
 7679SOL    HW223848   1.305   0.688   1.017  0.0926  0.0902 -0.5298
 7680SOL     OW23849   3.770   6.196   0.525  0.0147 -0.1911  0.2831
 7680SOL    HW123850   3.679   6.217   0.506  0.1300 -0.7734 -1.0043
 7680SOL    HW223851   3.770   6.171   0.618 -1.3544 -1.2973  0.0235
 7681SOL     OW23852   6.836   0.089   6.286 -0.3690  0.6915  0.6193
 7681SOL    HW123853   6.862   0.172   6.247 -0.1711 -0.5181 -2.0613
 7681SOL    HW223854   6.916   0.036   6.285 -0.2016  0.7629  3.3591
 7682SOL     OW23855   2.178   0.640   3.970  0.3450 -0.1739  0.4974
 7682SOL    HW123856   2.188   0.735   3.977  0.1014 -0.0180 -0.9355
 7682SOL    HW223857   2.267   0.606   3.978  0.4762  0.1991  0.6589
 7683SOL     OW23858   2.631   3.976   7.326  0.3012  0.4819  0.6557
 7683SOL    HW123859   2.566   4.027   7.279  1.5826  0.0147 -1.8007
 7683SOL    HW223860   2.604   3.885   7.314  1.8802  0.1918 -1.3988
 7684SOL     OW23861   7.652   7.751   7.908  0.0624  0.0975 -0.0641
 7684SOL    HW123862   7.583   7.789   7.854  0.2147  0.5290  0.0428
 7684SOL    HW223863   7.716   7.821   7.918 -0.8217  0.6839  2.2273
 7685SOL     OW23864   7.347   6.988   1.991  0.1932 -0.2071 -0.2501
 7685SOL    HW123865   7.327   7.074   1.954 -0.9869  0.0795  0.9840
 7685SOL    HW223866   7.265   6.959   2.032  0.9685 -1.2709  0.6113
 7686SOL     OW23867   1.774   1.118   0.128 -0.0491 -0.5361 -0.0090
 7686SOL    HW123868   1.749   1.026   0.118  3.0301 -1.4753 -0.3039
 7686SOL    HW223869   1.814   1.122   0.215 -1.8559  1.0407  0.8052
 7687SOL     OW23870   5.094   4.617   4.647  0.2468  0.6678  0.3593
 7687SOL    HW123871   5.092   4.522   4.653  0.5659  0.6903  0.9379
 7687SOL    HW223872   5.063   4.647   4.733 -1.4622  1.1057 -0.3617
 7688SOL     OW23873   2.789   7.989   0.828  0.8513 -0.0320 -0.3746
 7688SOL    HW123874   2.813   7.900   0.803 -0.9449 -1.0700  1.3061
 7688SOL    HW223875   2.866   8.023   0.874  0.5718 -1.8409  1.5544
 7689SOL     OW23876   5.293   5.931   6.049 -0.1856  0.0277  0.0001
 7689SOL    HW123877   5.257   5.896   6.130 -0.3234 -1.5372 -0.6833
 7689SOL    HW223878   5.383   5.900   6.048 -0.6302 -1.3782 -1.1508
 7690SOL     OW23879   7.856   5.649   2.116  0.2423 -0.3547 -0.0683
 7690SOL    HW123880   7.897   5.736   2.112 -0.8308  0.1424 -0.7249
 7690SOL    HW223881   7.924   5.592   2.151  0.9796  0.7440  0.3406
 7691SOL     OW23882   0.058   5.815   1.565 -0.0566  0.3309  0.5235
 7691SOL    HW123883  -0.007   5.871   1.523 -0.4520 -1.3191 -1.1717
 7691SOL    HW223884   0.044   5.828   1.658 -1.8510  1.1035  0.1847
 7692SOL     OW23885   5.030   0.225   2.198  0.1085 -0.2343 -0.5441
 7692SOL    HW123886   5.047   0.268   2.282  0.1157 -0.1562 -0.5866
 7692SOL    HW223887   5.116   0.199   2.166  0.3158  1.5645 -1.5290
 7693SOL     OW23888   6.803   7.361   1.331  0.7433 -0.1384 -0.9253
 7693SOL    HW123889   6.749   7.440   1.329 -2.1978 -1.6723  3.0854
 7693SOL    HW223890   6.748   7.293   1.292  2.1816 -0.7432 -1.9844
 7694SOL     OW23891   6.929   6.638   3.939 -0.2683  0.2649 -0.5868
 7694SOL    HW123892   6.981   6.561   3.961 -0.7460 -0.2655 -1.2801
 7694SOL    HW223893   6.901   6.623   3.849 -2.1661  0.2128 -0.0433
 7695SOL     OW23894   4.620   1.888   0.977  0.1585 -0.3245  0.1771
 7695SOL    HW123895   4.651   1.812   1.026 -1.5419 -1.0746  0.1376
 7695SOL    HW223896   4.689   1.953   0.989  1.1874 -1.5163  1.0435
 7696SOL     OW23897   1.708   6.132   0.104 -0.3084  0.1011 -0.8812
 7696SOL    HW123898   1.775   6.065   0.118 -2.1256 -1.3368  1.8160
 7696SOL    HW223899   1.643   6.089   0.048 -0.1609  0.6439 -1.4815
 7697SOL     OW23900   2.548   2.089   3.070 -0.5568  0.2494  0.3295
 7697SOL    HW123901   2.546   2.006   3.022 -0.6327 -0.8066  2.0915
 7697SOL    HW223902   2.638   2.119   3.063 -0.1326 -0.8283  1.0551
 7698SOL     OW23903   6.127   0.075   2.467  0.4208 -0.1083 -0.1278
 7698SOL    HW123904   6.124   0.138   2.539 -1.3171 -0.1565 -0.1270
 7698SOL    HW223905   6.073   0.115   2.398 -1.5466 -2.0055  0.2346
 7699SOL     OW23906   0.450   1.594   4.059  0.2241 -0.3186 -0.2461
 7699SOL    HW123907   0.513   1.529   4.030 -1.6451 -2.5903  0.4484
 7699SOL    HW223908   0.430   1.570   4.150  0.5561  2.1720  0.5588
 7700SOL     OW23909   4.824   6.846   6.256  0.1892 -0.0341 -0.4250
 7700SOL    HW123910   4.890   6.894   6.206  0.4973  1.1986  1.0970
 7700SOL    HW223911   4.837   6.874   6.347 -1.6385 -0.6958  0.0863
 7701SOL     OW23912   7.313   7.465   6.027  0.5337 -0.2148  0.0228
 7701SOL    HW123913   7.304   7.397   5.960  2.4121 -0.5115  0.0301
 7701SOL    HW223914   7.307   7.418   6.110  0.0868 -0.1103  0.0528
 7702SOL     OW23915   0.228   7.338   2.527  0.3133 -0.2916 -0.5669
 7702SOL    HW123916   0.303   7.326   2.585 -1.1954  0.0764  1.6172
 7702SOL    HW223917   0.189   7.251   2.520  0.4148 -0.3094 -0.9445
 7703SOL     OW23918   3.378   0.002   4.630 -0.2766 -0.4719 -0.3820
 7703SOL    HW123919   3.348  -0.069   4.687  0.7598 -0.2282  0.5018
 7703SOL    HW223920   3.450   0.042   4.678  0.7291 -0.3433 -1.9403
 7704SOL     OW23921   0.098   2.316   1.576  0.2708  0.4312  0.5036
 7704SOL    HW123922   0.163   2.296   1.509  1.1775  1.8531  0.9062
 7704SOL    HW223923   0.117   2.254   1.647  0.2812 -0.0707  0.0718
 7705SOL     OW23924   2.720   6.479   4.454  0.3618 -0.3863  0.3223
 7705SOL    HW123925   2.724   6.449   4.363  2.5514  3.8876 -1.2339
 7705SOL    HW223926   2.633   6.519   4.462 -0.1153 -1.4006  0.4154
 7706SOL     OW23927   7.790   0.420   2.122 -0.1151 -0.0600  1.1474
 7706SOL    HW123928   7.817   0.336   2.159 -3.1719 -0.6276  2.4350
 7706SOL    HW223929   7.694   0.417   2.124 -0.4066  1.9835 -2.2417
 7707SOL     OW23930   4.057   2.951   5.644 -0.9049  0.2565 -0.0516
 7707SOL    HW123931   4.046   2.919   5.734  1.2994 -0.4946  0.0008
 7707SOL    HW223932   4.110   3.030   5.653  0.1619 -0.3569 -0.7243
 7708SOL     OW23933   2.130   7.701   3.797  0.7236 -0.7340  0.0266
 7708SOL    HW123934   2.050   7.648   3.806  0.9728 -1.3236 -0.9574
 7708SOL    HW223935   2.105   7.770   3.736  0.7566 -0.4787  0.3042
 7709SOL     OW23936   7.703   5.801   3.674 -0.1753  0.4397  0.1023
 7709SOL    HW123937   7.649   5.749   3.734 -1.1009 -0.6656 -1.6016
 7709SOL    HW223938   7.666   5.889   3.677 -3.2138 -0.6065 -2.1578
 7710SOL     OW23939   2.258   0.629   2.910  0.0639 -0.3444  0.4247
 7710SOL    HW123940   2.347   0.657   2.931 -0.2438  0.4301  0.7536
 7710SOL    HW223941   2.215   0.710   2.880 -0.0392 -1.0374 -1.4381
 7711SOL     OW23942   2.188   5.074   4.184 -0.4517  0.4780 -0.2567
 7711SOL    HW123943   2.131   5.092   4.259 -0.7500  1.1585 -0.6295
 7711SOL    HW223944   2.182   4.980   4.171  0.4829  0.1824  1.2586
 7712SOL     OW23945   6.012   1.903   0.817 -0.5107  0.5603  0.3093
 7712SOL    HW123946   5.927   1.912   0.860 -0.3949  0.8216  0.4841
 7712SOL    HW223947   6.068   1.861   0.882 -0.7686 -0.5331 -0.1482
 7713SOL     OW23948   3.857   4.700   2.875  0.1223 -0.8695  0.6629
 7713SOL    HW123949   3.790   4.700   2.943  0.0023  0.5664  0.5902
 7713SOL    HW223950   3.812   4.732   2.797  0.4345 -1.7948  0.0980
 7714SOL     OW23951   3.120   0.910   6.199  0.2642 -0.0317  0.1566
 7714SOL    HW123952   3.049   0.962   6.234  0.1591  0.1704 -0.3452
 7714SOL    HW223953   3.127   0.835   6.258  0.1859  0.3731  0.6772
 7715SOL     OW23954   0.632   1.656   2.863  0.2934  0.6769 -0.0744
 7715SOL    HW123955   0.653   1.729   2.805 -0.0935 -0.4521 -1.7010
 7715SOL    HW223956   0.704   1.654   2.926  0.4539  2.2641 -0.1578
 7716SOL     OW23957   3.437   6.921   7.699  0.1043  0.0768  0.0073
 7716SOL    HW123958   3.527   6.920   7.734  0.0038 -1.9886  0.2946
 7716SOL    HW223959   3.384   6.880   7.767 -0.3901 -2.3901 -1.7433
 7717SOL     OW23960   5.658   0.812   0.365 -0.0511  0.4014  0.4427
 7717SOL    HW123961   5.588   0.863   0.406  1.2952  0.8523  2.3169
 7717SOL    HW223962   5.619   0.726   0.348 -0.7389  0.2149  2.6612
 7718SOL     OW23963   4.656   5.062   2.760  0.3517 -0.2120 -0.2075
 7718SOL    HW123964   4.582   5.078   2.701  1.2739 -0.5382 -1.4959
 7718SOL    HW223965   4.622   4.999   2.824 -0.4735 -0.4125 -0.8212
 7719SOL     OW23966   7.205   0.311   2.329  0.0996 -0.0868  0.5571
 7719SOL    HW123967   7.141   0.351   2.388 -0.6109  1.2132 -1.0218
 7719SOL    HW223968   7.225   0.379   2.265  1.5744 -1.1331 -0.1529
 7720SOL     OW23969   0.724   1.494   4.187 -0.1995 -0.0188  0.1288
 7720SOL    HW123970   0.810   1.460   4.160  0.7525  2.0240  0.3862
 7720SOL    HW223971   0.672   1.494   4.106  0.6333  0.3875 -0.4203
 7721SOL     OW23972   5.905   5.347   1.234 -0.5025  0.2378 -0.4589
 7721SOL    HW123973   5.829   5.363   1.290  0.0663  1.0466  0.1078
 7721SOL    HW223974   5.980   5.355   1.293  0.1688  2.1142 -1.4800
 7722SOL     OW23975   3.664   4.723   3.334 -0.5111 -0.3128  0.3787
 7722SOL    HW123976   3.570   4.728   3.348 -0.4707 -0.1627  0.6050
 7722SOL    HW223977   3.697   4.678   3.412 -0.6163 -2.2081 -0.5944
 7723SOL     OW23978   2.749   4.911   3.516  0.3684 -0.0718  0.3772
 7723SOL    HW123979   2.839   4.941   3.530  0.0212  1.0918  0.2347
 7723SOL    HW223980   2.755   4.849   3.444  0.9862  0.3692  0.0422
 7724SOL     OW23981   1.492   3.679   4.617  0.2826 -0.0849  0.3634
 7724SOL    HW123982   1.509   3.590   4.586 -0.7841  0.5473 -2.2877
 7724SOL    HW223983   1.446   3.666   4.700 -1.2390 -2.0760 -0.6972
 7725SOL     OW23984   1.886   6.658   7.942 -0.4341  0.6098  0.0654
 7725SOL    HW123985   1.805   6.647   7.891 -0.1432 -2.6474  0.1193
 7725SOL    HW223986   1.875   6.599   8.017  2.4121 -0.8403 -0.5432
 7726SOL     OW23987   1.845   3.061   1.940  0.2836 -0.1792 -0.2086
 7726SOL    HW123988   1.828   3.151   1.966 -0.8210 -0.6268  0.7014
 7726SOL    HW223989   1.814   3.008   2.014 -0.4289 -1.3696 -1.3171
 7727SOL     OW23990   4.342   2.485   2.807 -0.4795  0.1027 -0.2606
 7727SOL    HW123991   4.347   2.389   2.809  0.3171  0.1489  0.1904
 7727SOL    HW223992   4.359   2.508   2.716  0.6150 -0.1225 -0.1172
 7728SOL     OW23993   7.478   3.182   2.417 -0.5482 -0.0784 -0.0726
 7728SOL    HW123994   7.448   3.219   2.500 -0.1993 -0.1696  0.0957
 7728SOL    HW223995   7.398   3.169   2.366 -0.6433  1.6987 -0.4621
 7729SOL     OW23996   0.992   2.983   6.401 -0.2038  0.6733 -0.2719
 7729SOL    HW123997   0.908   2.941   6.384  0.3312 -0.8418  0.6606
 7729SOL    HW223998   0.970   3.057   6.458 -0.9904  0.7492 -0.6651
 7730SOL     OW23999   0.378   1.049   5.681  0.0930  0.5009  0.0041
 7730SOL    HW124000   0.377   1.040   5.777 -1.1843  0.3775 -0.0033
 7730SOL    HW224001   0.292   1.085   5.659  0.9718  2.1016 -0.9789
 7731SOL     OW24002   5.076   5.583   6.171 -1.0141  0.0985 -0.2258
 7731SOL    HW124003   5.140   5.588   6.242 -0.8259  0.5492 -0.4242
 7731SOL    HW224004   5.071   5.490   6.150  0.5686  0.1863 -1.0973
 7732SOL     OW24005   6.873   3.154   1.562 -0.6615  0.1364 -0.4104
 7732SOL    HW124006   6.843   3.064   1.567  0.4042 -0.3465 -1.9527
 7732SOL    HW224007   6.956   3.154   1.610 -1.0778  0.4921  0.3092
 7733SOL     OW24008   5.124   5.252   7.859  0.5072  0.0819 -0.2382
 7733SOL    HW124009   5.138   5.345   7.841  0.6855  0.0549 -0.2407
 7733SOL    HW224010   5.204   5.209   7.827 -0.0031 -0.1916 -1.1522
 7734SOL     OW24011   4.180   6.572   3.000  0.4808  0.2337  0.1129
 7734SOL    HW124012   4.217   6.644   3.051  0.4544  1.2026 -1.1973
 7734SOL    HW224013   4.190   6.495   3.057  0.8523  1.1872  1.3822
 7735SOL     OW24014   1.877   4.973   4.320  0.1738  0.3848  0.2885
 7735SOL    HW124015   1.968   4.961   4.348  0.2225  0.2924  0.0872
 7735SOL    HW224016   1.829   4.985   4.402  0.3662  0.4283  0.3966
 7736SOL     OW24017   0.577   1.888   2.398  0.1811 -0.2099 -0.2070
 7736SOL    HW124018   0.559   1.879   2.491  0.0994 -1.8544 -0.3595
 7736SOL    HW224019   0.672   1.901   2.392 -0.0005  1.5961  0.1720
 7737SOL     OW24020   6.047   6.733   6.837 -0.1374 -0.3113 -0.1036
 7737SOL    HW124021   6.042   6.828   6.851  1.1454 -0.6577  4.0396
 7737SOL    HW224022   5.959   6.701   6.856 -0.4022 -0.0726 -0.8627
 7738SOL     OW24023   4.898   7.317   0.139 -0.4036  0.0040  0.2685
 7738SOL    HW124024   4.938   7.400   0.114 -1.3898  0.1916 -0.7756
 7738SOL    HW224025   4.938   7.296   0.223  0.7058  0.9547  0.0158
 7739SOL     OW24026   2.334   6.993   5.095 -0.3466  0.0585  0.5293
 7739SOL    HW124027   2.421   7.033   5.101  0.0981 -0.9919  1.5837
 7739SOL    HW224028   2.338   6.936   5.018 -0.9791  1.9530 -0.9686
 7740SOL     OW24029   2.799   5.003   6.563  0.1693  0.9507 -0.2651
 7740SOL    HW124030   2.785   5.060   6.487  0.4933  0.8310 -0.4196
 7740SOL    HW224031   2.786   4.915   6.529  1.3254  0.8245 -0.4390
 7741SOL     OW24032   3.326   0.147   4.375 -0.1956  0.1568 -0.0195
 7741SOL    HW124033   3.321   0.071   4.317 -1.3389 -0.4407  0.8257
 7741SOL    HW224034   3.419   0.154   4.397  0.1422 -0.0699 -1.2898
 7742SOL     OW24035   2.230   4.061   5.931  0.4510 -0.0436 -0.0195
 7742SOL    HW124036   2.274   3.976   5.932 -0.8765 -0.7586  0.9255
 7742SOL    HW224037   2.144   4.045   5.971  0.0283  1.6719 -0.1232
 7743SOL     OW24038   5.530   1.687   4.670 -0.1162  0.0823 -0.0572
 7743SOL    HW124039   5.447   1.689   4.717 -0.4476  0.0025 -0.6298
 7743SOL    HW224040   5.535   1.600   4.632  0.7401 -0.2869  0.8528
 7744SOL     OW24041   4.351   5.527   7.542 -0.4393  0.2698  0.6694
 7744SOL    HW124042   4.424   5.540   7.602 -0.7133 -0.6914  1.2288
 7744SOL    HW224043   4.293   5.602   7.558  0.7575  1.4698 -0.3384
 7745SOL     OW24044   2.938   4.300   1.896 -0.2963  0.3382 -0.1606
 7745SOL    HW124045   2.932   4.236   1.826 -0.8190 -0.5760  0.6861
 7745SOL    HW224046   2.931   4.385   1.853 -0.7662 -0.2109 -1.1882
 7746SOL     OW24047   6.872   7.429   1.022  0.0042  0.0434  0.2757
 7746SOL    HW124048   6.778   7.444   1.016  0.1590  0.4031 -1.9522
 7746SOL    HW224049   6.906   7.507   1.067 -0.7720 -0.2919  1.4855
 7747SOL     OW24050   7.354   0.998   7.133 -0.3463  0.0353  0.1360
 7747SOL    HW124051   7.415   1.071   7.144  0.9101 -1.0526  0.7001
 7747SOL    HW224052   7.302   1.022   7.056 -0.2104  1.6715  0.5200
 7748SOL     OW24053   6.875   1.023   6.130  0.0052  0.2794  0.0255
 7748SOL    HW124054   6.920   0.938   6.125  0.9365  0.7538  0.1535
 7748SOL    HW224055   6.912   1.074   6.058  0.5770  1.1002  0.8839
 7749SOL     OW24056   0.541   0.325   3.936  0.2664 -0.1727  0.6418
 7749SOL    HW124057   0.628   0.289   3.920  0.5280  0.4963  0.5473
 7749SOL    HW224058   0.545   0.414   3.901 -0.1319  0.2254  1.5691
 7750SOL     OW24059   6.989   1.110   0.799 -0.2785  0.2036  0.4730
 7750SOL    HW124060   7.067   1.108   0.744  0.8551  1.7210  1.9143
 7750SOL    HW224061   6.922   1.152   0.745  0.7147  1.3784  0.0992
 7751SOL     OW24062   3.265   5.045   5.619 -0.3229 -0.5108 -0.4015
 7751SOL    HW124063   3.338   5.078   5.566  1.7277 -0.5368  2.1942
 7751SOL    HW224064   3.227   5.123   5.659 -0.9414 -0.6086 -0.7919
 7752SOL     OW24065   5.773   5.494   5.661 -0.0392 -0.1377 -0.3199
 7752SOL    HW124066   5.721   5.553   5.606  1.8422  1.7305 -0.2399
 7752SOL    HW224067   5.839   5.551   5.701  0.7164 -2.0256  1.2640
 7753SOL     OW24068   4.519   6.776   4.090  0.6385  0.1789 -0.1131
 7753SOL    HW124069   4.613   6.760   4.093  0.8828  1.6100  1.4214
 7753SOL    HW224070   4.487   6.747   4.176  0.0089  1.3673  0.0795
 7754SOL     OW24071   6.656   0.558   5.179  0.6477 -0.0807 -0.4532
 7754SOL    HW124072   6.651   0.558   5.274 -0.1553  0.4944 -0.4745
 7754SOL    HW224073   6.733   0.611   5.158 -0.7167  2.1577 -0.1276
 7755SOL     OW24074   4.946   0.067   6.651  0.0536 -0.4383 -0.1095
 7755SOL    HW124075   4.912  -0.019   6.677  1.1098 -0.7267  0.3682
 7755SOL    HW224076   4.891   0.093   6.578  0.6025 -2.1661 -1.2018
 7756SOL     OW24077   3.548   5.681   4.887 -0.1453 -0.0005  0.4846
 7756SOL    HW124078   3.569   5.600   4.839  0.1176  0.7282 -0.6604
 7756SOL    HW224079   3.452   5.680   4.891 -0.3591  1.0114 -2.1152
 7757SOL     OW24080   5.391   3.512   3.456 -0.2142  0.3523 -0.4239
 7757SOL    HW124081   5.321   3.556   3.406 -0.6884  0.8549  0.6487
 7757SOL    HW224082   5.376   3.419   3.441 -0.5067  0.4878 -1.0053
 7758SOL     OW24083   6.711   4.230   4.083  0.0360  0.0740  0.6811
 7758SOL    HW124084   6.681   4.142   4.060 -0.6766  0.3314  0.5944
 7758SOL    HW224085   6.684   4.284   4.008  2.1879  0.0393 -0.1881
 7759SOL     OW24086   5.574   5.619   0.224 -0.4922 -0.3117  0.0287
 7759SOL    HW124087   5.649   5.669   0.256  0.4791 -1.6859 -0.0363
 7759SOL    HW224088   5.583   5.619   0.129 -0.9366  0.0400 -0.0197
 7760SOL     OW24089   7.237   7.664   7.312  0.6295  0.0129  0.0183
 7760SOL    HW124090   7.185   7.681   7.234  0.0696  0.3536  0.4545
 7760SOL    HW224091   7.242   7.749   7.356  1.5004 -0.0296  0.0216
 7761SOL     OW24092   6.372   5.123   5.322  0.2856  0.4613  0.7390
 7761SOL    HW124093   6.459   5.163   5.321  0.3949  0.2993 -1.4477
 7761SOL    HW224094   6.380   5.050   5.383  1.3164  1.2118  1.5283
 7762SOL     OW24095   2.711   5.069   1.776 -0.2391 -0.1597 -0.4439
 7762SOL    HW124096   2.766   4.999   1.813  1.5464  1.4368  0.0804
 7762SOL    HW224097   2.768   5.146   1.775 -2.3185  1.4608 -0.4459
 7763SOL     OW24098   3.398   7.457   2.020 -0.6310  0.1188  0.3709
 7763SOL    HW124099   3.359   7.529   1.971 -1.3680  0.5925  1.5980
 7763SOL    HW224100   3.484   7.488   2.046 -0.0866 -0.2732 -0.8894
 7764SOL     OW24101   0.510   2.552   6.022  0.4350  0.0969 -0.1240
 7764SOL    HW124102   0.476   2.496   5.953  0.7153 -0.6908  0.3636
 7764SOL    HW224103   0.452   2.629   6.022  0.4231  0.0952 -1.2007
 7765SOL     OW24104   2.484   7.525   0.980  0.4714 -0.4269  0.2198
 7765SOL    HW124105   2.510   7.530   1.072  1.4058  0.7839 -0.0767
 7765SOL    HW224106   2.475   7.617   0.953  0.1175 -0.7696 -0.8715
 7766SOL     OW24107   4.261   0.022   7.992  0.1501 -0.0862  0.2584
 7766SOL    HW124108   4.317  -0.039   7.945  0.6897 -0.3573  1.2262
 7766SOL    HW224109   4.311   0.104   7.995 -0.8450  0.6637 -1.6226
 7767SOL     OW24110   7.352   2.351   2.649 -0.2894  0.3282 -0.2308
 7767SOL    HW124111   7.390   2.434   2.618  3.2319 -1.4177 -1.1263
 7767SOL    HW224112   7.340   2.364   2.743 -1.3782  2.3488 -0.5990
 7768SOL     OW24113   0.222   5.129   6.101  0.2795 -0.7551  0.3419
 7768SOL    HW124114   0.243   5.110   6.010  1.8987 -0.5531  0.6365
 7768SOL    HW224115   0.251   5.220   6.114  0.2299 -0.8352  1.0892
 7769SOL     OW24116   4.557   3.855   5.089 -0.1240 -0.1830  0.8748
 7769SOL    HW124117   4.636   3.864   5.143 -0.2637  1.1933  0.8777
 7769SOL    HW224118   4.525   3.944   5.077 -0.9492 -0.5984 -0.2333
 7770SOL     OW24119   4.273   2.280   3.128  0.3115  0.5427 -0.7096
 7770SOL    HW124120   4.257   2.185   3.131  0.4663  0.5335 -0.1211
 7770SOL    HW224121   4.278   2.306   3.220 -0.6359  1.2835 -0.8591
 7771SOL     OW24122   0.464   4.439   5.932 -0.3020 -0.1600  0.3444
 7771SOL    HW124123   0.454   4.523   5.887  1.0495 -0.8448 -1.3562
 7771SOL    HW224124   0.428   4.454   6.019 -0.7679  1.9569 -0.1545
 7772SOL     OW24125   4.810   1.010   3.567  0.1316  0.7783 -0.3775
 7772SOL    HW124126   4.806   1.024   3.473  0.4520  0.3698 -0.4521
 7772SOL    HW224127   4.899   0.979   3.584 -0.2412 -0.1533 -0.0806
 7773SOL     OW24128   4.325   2.013   3.590  0.2402 -0.0288  0.2799
 7773SOL    HW124129   4.270   2.092   3.590 -0.7348 -0.6650 -1.0783
 7773SOL    HW224130   4.368   2.013   3.676 -0.6974  1.3109  0.7780
 7774SOL     OW24131   1.428   5.804   4.057  0.6186  0.1651  0.4298
 7774SOL    HW124132   1.441   5.719   4.098 -0.4110 -0.6295 -0.8040
 7774SOL    HW224133   1.468   5.795   3.970  1.4683  1.3208  0.6742
 7775SOL     OW24134   0.816   0.943   1.729 -0.5761 -0.1309  0.2353
 7775SOL    HW124135   0.733   0.897   1.716 -1.9381  2.0776  0.6726
 7775SOL    HW224136   0.882   0.882   1.696 -2.4019 -1.6942 -0.7357
 7776SOL     OW24137   0.312   4.819   7.416 -0.4187 -0.7295  0.2964
 7776SOL    HW124138   0.366   4.759   7.365  0.5544  0.8567 -0.6012
 7776SOL    HW224139   0.223   4.806   7.382  0.1751  0.1188 -1.6964
 7777SOL     OW24140   5.648   1.607   5.108  0.3046  0.1635 -0.5781
 7777SOL    HW124141   5.726   1.551   5.115  0.6566  0.7227  0.1206
 7777SOL    HW224142   5.604   1.576   5.029 -0.2016 -1.9716  0.4503
 7778SOL     OW24143   7.763   2.133   2.987 -0.0338 -0.4841  0.2245
 7778SOL    HW124144   7.744   2.147   3.080 -0.7193 -0.1517  0.0405
 7778SOL    HW224145   7.858   2.122   2.984 -0.0480 -0.9157  1.0148
 7779SOL     OW24146   1.616   4.886   0.264  0.3349  0.2609 -0.3634
 7779SOL    HW124147   1.539   4.933   0.295  0.3125  0.9806 -1.4859
 7779SOL    HW224148   1.618   4.900   0.170  0.5256 -1.7101 -0.7032
 7780SOL     OW24149   1.364   4.746   7.346  0.3989  0.0942  0.0974
 7780SOL    HW124150   1.333   4.835   7.330 -0.0545  0.1046  0.9793
 7780SOL    HW224151   1.367   4.738   7.442  1.7574 -0.3830  0.0407
 7781SOL     OW24152   5.960   7.157   2.105  0.1141 -0.1523  0.0035
 7781SOL    HW124153   5.947   7.204   2.023  0.6068  1.1882  0.6635
 7781SOL    HW224154   6.001   7.075   2.080 -0.8235 -0.2841 -1.1917
 7782SOL     OW24155   6.522   7.391   7.097 -0.0607 -0.2908  0.0996
 7782SOL    HW124156   6.529   7.317   7.157  0.8884 -1.1978 -1.0861
 7782SOL    HW224157   6.608   7.433   7.101 -0.9933  1.6796  1.8354
 7783SOL     OW24158   6.424   3.675   3.947  0.0484 -0.5315 -0.6330
 7783SOL    HW124159   6.447   3.663   4.039 -0.4560  0.8691 -0.3001
 7783SOL    HW224160   6.482   3.615   3.900  0.6459 -0.9236  0.5534
 7784SOL     OW24161   6.456   1.440   6.425 -0.4078  0.7960  0.0643
 7784SOL    HW124162   6.474   1.420   6.517  0.6672  1.3536 -0.0081
 7784SOL    HW224163   6.483   1.362   6.377 -2.6345 -0.2255  0.3274
 7785SOL     OW24164   2.982   0.095   6.572  0.7028  0.5077 -0.4229
 7785SOL    HW124165   2.973   0.155   6.497  1.0003  0.1206 -0.7736
 7785SOL    HW224166   3.060   0.044   6.552  1.5075  1.2483  0.7546
 7786SOL     OW24167   3.537   3.752   2.196 -0.8675  0.2763  0.0811
 7786SOL    HW124168   3.451   3.712   2.186 -0.2846 -0.6066 -1.8445
 7786SOL    HW224169   3.571   3.715   2.278 -0.7914 -2.4340 -1.0822
 7787SOL     OW24170   4.803   2.651   5.136  0.1117 -0.1912 -0.0437
 7787SOL    HW124171   4.741   2.601   5.082  1.2065 -2.6039  0.7818
 7787SOL    HW224172   4.772   2.636   5.226 -1.5833  3.6097  0.1896
 7788SOL     OW24173   6.856   0.379   6.268  0.0562  0.6109 -0.1012
 7788SOL    HW124174   6.775   0.426   6.286 -0.5600 -0.0110 -1.1413
 7788SOL    HW224175   6.891   0.420   6.189  0.1694  0.1613 -0.2903
 7789SOL     OW24176   1.856   0.645   6.534  0.1404  0.3323 -0.3712
 7789SOL    HW124177   1.902   0.689   6.605  0.7591 -0.6750 -0.1218
 7789SOL    HW224178   1.766   0.636   6.565  0.6996 -1.3352  0.9364
 7790SOL     OW24179   6.838   0.942   2.117  0.4029  0.0732 -0.1836
 7790SOL    HW124180   6.810   0.925   2.207 -0.9577  1.4250 -0.3208
 7790SOL    HW224181   6.905   1.011   2.126  0.6515 -0.1684 -0.1732
 7791SOL     OW24182   2.929   5.306   7.466 -0.0064  0.5244 -0.0489
 7791SOL    HW124183   2.966   5.303   7.554 -3.9702 -2.9834  1.8031
 7791SOL    HW224184   2.886   5.392   7.461 -0.9084  0.2491  2.0670
 7792SOL     OW24185   0.443   4.940   4.658  0.4920  0.3528 -0.2520
 7792SOL    HW124186   0.537   4.924   4.650  1.0248  2.8409  0.0131
 7792SOL    HW224187   0.432   4.972   4.748 -0.5032  0.6749 -0.4727
 7793SOL     OW24188   1.253   0.542   7.715 -0.0533  0.2775  1.2319
 7793SOL    HW124189   1.159   0.559   7.720 -0.2402 -0.6330  0.8660
 7793SOL    HW224190   1.261   0.447   7.715  0.7442  0.2949 -0.8873
 7794SOL     OW24191   7.389   3.638   8.003 -0.0884 -0.7010  0.4062
 7794SOL    HW124192   7.411   3.620   7.911 -0.6027  1.7822 -0.2825
 7794SOL    HW224193   7.473   3.634   8.049  0.4268 -0.4361 -0.4804
 7795SOL     OW24194   4.081   6.646   6.500  0.1429 -0.2040 -0.1347
 7795SOL    HW124195   4.042   6.563   6.527 -1.8840  0.1661 -1.6856
 7795SOL    HW224196   4.087   6.697   6.581  1.1422 -1.6873  0.7872
 7796SOL     OW24197   1.853   1.027   4.760  0.2572 -0.1051 -0.0410
 7796SOL    HW124198   1.863   0.944   4.806  3.6429 -0.3960 -1.0102
 7796SOL    HW224199   1.889   1.010   4.672 -0.7927  1.8911 -0.9281
 7797SOL     OW24200   0.033   4.574   3.356 -0.7651  0.6074 -0.3108
 7797SOL    HW124201   0.005   4.633   3.285 -1.4057  0.7184  0.0245
 7797SOL    HW224202   0.100   4.519   3.316 -1.5155  0.2931 -1.1672
 7798SOL     OW24203   0.533   6.142   6.201  0.0171  0.0927 -0.3811
 7798SOL    HW124204   0.468   6.189   6.255  0.9428 -0.4562  1.2748
 7798SOL    HW224205   0.576   6.083   6.262  1.1362 -0.5535 -1.7561
 7799SOL     OW24206   1.379   6.031   4.353 -0.1412  0.3776  0.1326
 7799SOL    HW124207   1.441   5.964   4.326  0.5559  0.2232  1.9689
 7799SOL    HW224208   1.327   5.990   4.422  0.1523  1.6248  1.1377
 7800SOL     OW24209   1.815   0.030   7.587 -0.3984 -0.3943 -0.1294
 7800SOL    HW124210   1.906   0.058   7.600 -0.5528 -0.4705  1.3042
 7800SOL    HW224211   1.779   0.024   7.676 -1.7271 -0.6356 -0.6605
 7801SOL     OW24212   5.215   0.015   0.798  0.7300 -0.8424  0.1768
 7801SOL    HW124213   5.262   0.025   0.881 -1.2148  0.3287  1.2178
 7801SOL    HW224214   5.168   0.097   0.787 -0.6801 -1.7659 -1.0413
 7802SOL     OW24215   3.828   3.201   4.698  0.1005  0.8056  0.9357
 7802SOL    HW124216   3.762   3.264   4.668  1.3473  2.3903  1.3853
 7802SOL    HW224217   3.823   3.205   4.794 -0.3577 -0.4109  0.9776
 7803SOL     OW24218   3.744   0.756   6.705  0.2055  0.2219 -0.2190
 7803SOL    HW124219   3.777   0.670   6.732 -0.7574  0.0514  0.4595
 7803SOL    HW224220   3.708   0.794   6.785  1.4044  1.6464 -0.3173
 7804SOL     OW24221   1.456   1.727   2.950  0.5330 -0.3947  0.3273
 7804SOL    HW124222   1.427   1.813   2.920  0.8407  0.2049  1.7013
 7804SOL    HW224223   1.540   1.714   2.905  0.5202  0.0555  0.1692
 7805SOL     OW24224   2.821   5.152   7.806  0.5060  0.0421  0.6026
 7805SOL    HW124225   2.894   5.193   7.758  1.6584 -0.8786  1.4964
 7805SOL    HW224226   2.755   5.135   7.739  0.1100  2.9641  0.1283
 7806SOL     OW24227   6.124   7.243   0.454  0.5122  0.3534  0.2698
 7806SOL    HW124228   6.032   7.264   0.443 -0.5958 -3.8288  0.1030
 7806SOL    HW224229   6.162   7.254   0.367  0.1738  1.8142  0.2787
 7807SOL     OW24230   1.673   0.531   5.397  0.1187  0.5348  0.0842
 7807SOL    HW124231   1.698   0.614   5.438  0.3607  1.6178 -2.0666
 7807SOL    HW224232   1.678   0.467   5.467 -0.7335  2.4393  1.9980
 7808SOL     OW24233   7.992   1.680   5.909  0.2143  0.1158 -0.0615
 7808SOL    HW124234   7.921   1.657   5.968  0.5823 -0.3504  0.1992
 7808SOL    HW224235   7.989   1.776   5.904  0.7995  0.2374  1.4848
 7809SOL     OW24236   4.554   4.676   2.153 -0.5456 -0.5144 -0.2062
 7809SOL    HW124237   4.634   4.638   2.191 -0.4882 -1.0043 -0.8054
 7809SOL    HW224238   4.498   4.693   2.229 -0.0857 -0.6660  0.1769
 7810SOL     OW24239   7.860   5.625   6.113  0.3859 -0.9167 -0.0118
 7810SOL    HW124240   7.773   5.623   6.074  0.3583  1.1143 -0.1857
 7810SOL    HW224241   7.912   5.565   6.059 -0.7716 -1.7961 -0.1882
 7811SOL     OW24242   2.424   3.543   0.891  0.1296 -0.3268 -0.4980
 7811SOL    HW124243   2.413   3.493   0.972  3.1052 -0.5409 -0.1102
 7811SOL    HW224244   2.433   3.634   0.921 -0.7152 -0.1282 -0.8077
 7812SOL     OW24245   3.413   1.806   0.236 -0.1478  0.2180 -0.6852
 7812SOL    HW124246   3.462   1.796   0.155 -1.4390  0.8109 -1.5592
 7812SOL    HW224247   3.331   1.758   0.222  0.3742 -1.2881  0.9768
 7813SOL     OW24248   1.682   5.537   3.661 -0.0854 -0.0055  0.3627
 7813SOL    HW124249   1.705   5.465   3.718 -0.3420 -2.2008 -2.1111
 7813SOL    HW224250   1.764   5.563   3.620 -0.1411  0.4930  0.5600
 7814SOL     OW24251   2.123   0.426   4.583  0.2198 -0.1380 -0.2619
 7814SOL    HW124252   2.137   0.518   4.561 -0.5360 -0.1252 -0.7154
 7814SOL    HW224253   2.036   0.406   4.549  0.8948 -1.3798 -1.3385
 7815SOL     OW24254   3.971   0.737   5.275  0.5395 -0.0784  0.1974
 7815SOL    HW124255   3.997   0.748   5.183  2.6911  0.9348  0.8679
 7815SOL    HW224256   3.879   0.765   5.278 -0.0920 -1.6313 -1.8892
 7816SOL     OW24257   4.901   0.604   1.041 -0.2296 -0.4825 -0.3927
 7816SOL    HW124258   4.831   0.656   1.001  0.5789 -0.2837 -1.5773
 7816SOL    HW224259   4.937   0.661   1.109 -1.1637 -0.5639  0.1935
 7817SOL     OW24260   5.665   5.631   4.720 -0.5339  0.3218 -0.2990
 7817SOL    HW124261   5.743   5.673   4.756 -0.4905  0.5285 -0.6285
 7817SOL    HW224262   5.694   5.542   4.699 -0.8745 -0.1873  1.2734
 7818SOL     OW24263   5.652   3.685   5.789 -0.5180 -0.3742  0.0349
 7818SOL    HW124264   5.661   3.702   5.883 -0.2949  1.0505 -0.2227
 7818SOL    HW224265   5.563   3.716   5.769 -0.9865 -1.7114 -0.0253
 7819SOL     OW24266   7.174   4.891   4.358  0.1916 -0.6285 -0.5590
 7819SOL    HW124267   7.222   4.842   4.290 -0.0222  0.5105 -1.5699
 7819SOL    HW224268   7.089   4.911   4.317  0.0704  0.1130  0.0351
 7820SOL     OW24269   7.505   0.418   3.722 -0.4044  0.5116  0.7216
 7820SOL    HW124270   7.528   0.363   3.797 -0.5096 -0.8838 -0.2292
 7820SOL    HW224271   7.573   0.399   3.657 -0.3269  1.6830  0.4440
 7821SOL     OW24272   1.282   2.346   5.724  0.1406  0.1609 -0.3371
 7821SOL    HW124273   1.355   2.401   5.752  0.6972 -0.3224 -0.8167
 7821SOL    HW224274   1.209   2.373   5.781  0.7478  0.4783  0.3112
 7822SOL     OW24275   0.707   0.304   4.183 -0.1395 -0.6806  0.2249
 7822SOL    HW124276   0.741   0.382   4.140 -1.4338 -0.2857 -0.1290
 7822SOL    HW224277   0.621   0.291   4.144 -0.5466 -1.4376  1.3265
 7823SOL     OW24278   7.093   2.374   0.891  0.0407  0.3212 -0.2001
 7823SOL    HW124279   7.159   2.348   0.955 -1.4241 -1.2156  0.7797
 7823SOL    HW224280   7.017   2.320   0.912 -1.0229  0.9011 -2.2637
 7824SOL     OW24281   3.202   7.175   2.408 -0.1289 -0.0770 -0.1507
 7824SOL    HW124282   3.178   7.109   2.473  2.0716 -0.0973  0.7247
 7824SOL    HW224283   3.241   7.246   2.459  1.0220  0.2059 -1.3700
 7825SOL     OW24284   5.333   5.015   1.069  0.3569 -1.0621  0.3319
 7825SOL    HW124285   5.276   5.092   1.061  1.5941 -0.3181 -3.3832
 7825SOL    HW224286   5.277   4.942   1.042  0.3384 -0.7450 -0.5384
 7826SOL     OW24287   0.180   6.347   3.056 -0.2109  0.1461 -0.5865
 7826SOL    HW124288   0.204   6.354   2.964  0.1381 -0.6980 -0.5689
 7826SOL    HW224289   0.090   6.378   3.060 -0.9972 -1.8284 -1.6034
 7827SOL     OW24290   6.563   1.436   4.805 -0.1637  0.0191  0.4088
 7827SOL    HW124291   6.473   1.451   4.777  0.6173  0.1988 -2.3238
 7827SOL    HW224292   6.593   1.361   4.753  1.4865  0.4198  0.7025
 7828SOL     OW24293   5.764   5.208   0.203  0.5381 -0.0811 -0.3154
 7828SOL    HW124294   5.735   5.189   0.113 -0.4727 -0.8585  0.1603
 7828SOL    HW224295   5.780   5.122   0.241 -5.0578 -0.3676  2.2167
 7829SOL     OW24296   7.629   0.380   6.225 -0.1404 -0.2930 -0.1160
 7829SOL    HW124297   7.597   0.310   6.168  0.8437  0.0706 -1.1742
 7829SOL    HW224298   7.695   0.338   6.280  0.1443 -0.2925 -0.4537
 7830SOL     OW24299   5.570   5.640   7.954  0.3494  0.7292 -0.1236
 7830SOL    HW124300   5.558   5.669   7.864 -0.4696 -0.5257 -0.4413
 7830SOL    HW224301   5.519   5.559   7.961 -0.8188  1.5498  1.8836
 7831SOL     OW24302   4.573   3.494   0.246 -0.6501 -0.7861  0.0364
 7831SOL    HW124303   4.531   3.457   0.324 -2.1128 -0.4172 -0.5395
 7831SOL    HW224304   4.508   3.484   0.177 -0.0118  0.3680 -0.7665
 7832SOL     OW24305   7.106   1.069   6.328 -0.3027 -0.1577  0.5388
 7832SOL    HW124306   7.102   1.042   6.419  0.3724  0.0052  0.6224
 7832SOL    HW224307   7.017   1.057   6.295 -1.1460  1.9659  1.8446
 7833SOL     OW24308   7.334   2.603   3.797 -0.7258  0.3008 -0.4595
 7833SOL    HW124309   7.286   2.543   3.854  0.4496  1.1596  1.5384
 7833SOL    HW224310   7.327   2.688   3.841  0.6894  0.8879 -1.3053
 7834SOL     OW24311   7.585   2.454   7.264  0.4715 -0.2310 -0.1630
 7834SOL    HW124312   7.501   2.437   7.220 -0.5315 -5.0399  2.9144
 7834SOL    HW224313   7.564   2.520   7.330  0.1769  1.3801 -1.7804
 7835SOL     OW24314   2.948   4.154   7.996  0.2264 -0.1050 -1.0833
 7835SOL    HW124315   2.901   4.234   7.970 -1.2333  0.4817  2.7990
 7835SOL    HW224316   2.905   4.084   7.947 -1.6329  0.9795 -1.0995
 7836SOL     OW24317   6.462   2.091   7.612  0.0788  0.5096 -0.1250
 7836SOL    HW124318   6.428   2.117   7.526 -1.3441 -0.2304  0.1855
 7836SOL    HW224319   6.444   1.997   7.617  2.2290  0.0713  0.0656
 7837SOL     OW24320   2.278   8.000   6.104  0.5135  0.1210 -0.2227
 7837SOL    HW124321   2.236   8.086   6.109 -0.3015 -0.2150 -1.0654
 7837SOL    HW224322   2.239   7.949   6.174  0.3074  0.1493 -0.3170
 7838SOL     OW24323   0.296   3.334   5.104 -0.0776  0.3440  0.4723
 7838SOL    HW124324   0.374   3.341   5.049 -0.6065 -0.8863 -0.4776
 7838SOL    HW224325   0.329   3.344   5.194  0.9419  1.3607  0.0151
 7839SOL     OW24326   1.348   5.523   5.256  0.0435  0.5403  0.0212
 7839SOL    HW124327   1.282   5.572   5.305  0.3386  0.0461  0.9365
 7839SOL    HW224328   1.311   5.435   5.248 -0.2505  0.7505 -1.1512
 7840SOL     OW24329   4.415   7.789   2.306 -0.6023 -0.2023 -0.0770
 7840SOL    HW124330   4.501   7.765   2.339 -0.7061 -0.9607 -0.3414
 7840SOL    HW224331   4.380   7.849   2.372  0.1646  0.1799 -0.0214
 7841SOL     OW24332   1.728   3.946   2.022 -0.3166 -0.2615 -0.1722
 7841SOL    HW124333   1.770   3.931   1.937  0.6251  0.1084  0.2133
 7841SOL    HW224334   1.659   4.010   2.004 -0.8700 -1.0294 -0.8562
 7842SOL     OW24335   0.587   3.663   1.418 -0.7179  0.1892  0.0889
 7842SOL    HW124336   0.554   3.742   1.459 -1.0952 -0.0253  0.2074
 7842SOL    HW224337   0.588   3.598   1.488  1.3689  0.5645  0.4608
 7843SOL     OW24338   4.883   5.715   7.540 -0.5604  0.4079 -0.0636
 7843SOL    HW124339   4.950   5.758   7.486 -0.7902  0.5214 -0.2599
 7843SOL    HW224340   4.912   5.730   7.630 -0.7065  1.0921 -0.1241
 7844SOL     OW24341   6.698   2.213   7.054  0.2755 -0.1164 -0.2533
 7844SOL    HW124342   6.670   2.219   7.145  0.7106  2.8037 -0.2264
 7844SOL    HW224343   6.631   2.158   7.012 -1.7459  1.0781  1.1924
 7845SOL     OW24344   0.767   5.037   5.457 -0.6242  0.1275  0.3765
 7845SOL    HW124345   0.859   5.058   5.471 -0.2197 -1.1844 -0.1623
 7845SOL    HW224346   0.766   4.983   5.378 -1.5885 -1.6409  1.5170
 7846SOL     OW24347   3.364   0.369   5.095 -0.1863  0.3589  0.0277
 7846SOL    HW124348   3.450   0.411   5.100 -0.7564  1.7583 -1.1076
 7846SOL    HW224349   3.368   0.316   5.015 -0.2781  0.1799  0.1403
 7847SOL     OW24350   6.519   3.162   6.117 -0.2811 -0.0248 -0.5651
 7847SOL    HW124351   6.471   3.213   6.052  0.4912 -0.1639 -1.2621
 7847SOL    HW224352   6.548   3.226   6.182  0.6747  0.4509 -1.4297
 7848SOL     OW24353   0.080   7.254   5.236 -0.4129  0.5152  0.1941
 7848SOL    HW124354   0.154   7.266   5.295 -1.8552  0.2563  2.1814
 7848SOL    HW224355   0.038   7.174   5.267 -1.3646  0.5032 -1.0549
 7849SOL     OW24356   6.399   5.762   3.241 -0.2973  0.0407 -1.3499
 7849SOL    HW124357   6.328   5.812   3.281  1.3916  1.9138 -0.4903
 7849SOL    HW224358   6.400   5.679   3.288 -0.9728  0.5857 -0.3417
 7850SOL     OW24359   1.226   5.447   6.502  0.2952  0.2835 -0.1900
 7850SOL    HW124360   1.289   5.377   6.484 -1.7775 -1.7042 -0.0950
 7850SOL    HW224361   1.216   5.446   6.597 -1.6736 -1.1572 -0.3591
 7851SOL     OW24362   7.820   7.555   0.049  0.0469 -0.1926 -0.1901
 7851SOL    HW124363   7.847   7.524  -0.037 -0.5138  1.7687 -1.1261
 7851SOL    HW224364   7.769   7.634   0.031 -0.4111  0.0465  1.9256
 7852SOL     OW24365   7.582   7.226   6.439 -0.3541 -0.0172  0.2573
 7852SOL    HW124366   7.622   7.307   6.469 -0.2203  0.6362 -1.5550
 7852SOL    HW224367   7.531   7.195   6.514  3.0466 -0.6468  2.5717
 7853SOL     OW24368   1.167   7.603   2.174  0.4056  0.4272 -0.1269
 7853SOL    HW124369   1.175   7.663   2.100  0.1745  0.1332 -0.3891
 7853SOL    HW224370   1.132   7.658   2.245  0.5109  0.6781 -0.2695
 7854SOL     OW24371   3.987   5.589   0.792 -0.0443  1.0781 -0.5728
 7854SOL    HW124372   4.015   5.606   0.883  1.5327  1.0208 -1.0090
 7854SOL    HW224373   3.930   5.662   0.770  1.5974  2.5047 -0.3372
 7855SOL     OW24374   0.190   4.275   2.472 -0.2411 -0.0614 -0.2058
 7855SOL    HW124375   0.197   4.356   2.420  0.4279  0.2210  0.3120
 7855SOL    HW224376   0.142   4.214   2.415 -0.2737  0.5225 -0.8146
 7856SOL     OW24377   0.613   7.472   1.676 -0.0272  0.5688  0.3020
 7856SOL    HW124378   0.687   7.514   1.631 -0.1705  1.1735  0.6146
 7856SOL    HW224379   0.653   7.400   1.725  0.7661  2.2676  2.3453
 7857SOL     OW24380   7.286   0.163   1.354  0.4914  0.3536 -0.1775
 7857SOL    HW124381   7.353   0.102   1.322  1.1501  0.5518  0.7827
 7857SOL    HW224382   7.323   0.199   1.435 -0.0255  1.7792 -0.5448
 7858SOL     OW24383   3.373   6.182   7.176 -0.2435 -0.2457  0.2914
 7858SOL    HW124384   3.313   6.159   7.105 -0.3661  1.5086 -0.2370
 7858SOL    HW224385   3.356   6.275   7.191  1.9032  0.1442  0.5473
 7859SOL     OW24386   2.806   1.088   4.059 -0.4971  0.2064  0.3440
 7859SOL    HW124387   2.767   1.171   4.032  0.5759  0.4766 -0.4597
 7859SOL    HW224388   2.899   1.097   4.038 -0.4749 -1.4856 -0.5034
 7860SOL     OW24389   6.348   4.434   0.038  0.4521 -0.4688 -0.1539
 7860SOL    HW124390   6.382   4.521   0.015 -1.2041 -0.2246 -2.0249
 7860SOL    HW224391   6.407   4.373  -0.006  0.1965 -0.1681 -0.9415
 7861SOL     OW24392   5.941   6.765   1.353  0.3695 -0.1256  0.2809
 7861SOL    HW124393   5.880   6.718   1.410  0.8330 -0.1306  0.7793
 7861SOL    HW224394   5.984   6.828   1.410  0.6523  0.0475 -0.1179
 7862SOL     OW24395   5.010   1.643   0.553  0.3148 -0.0519 -0.1585
 7862SOL    HW124396   4.941   1.710   0.547  0.9536  0.6273  0.0031
 7862SOL    HW224397   5.089   1.687   0.523  0.8951 -0.4982  0.6705
 7863SOL     OW24398   1.019   5.440   2.812  0.5558  0.0285 -0.1097
 7863SOL    HW124399   0.962   5.365   2.791  1.3766 -0.4945 -0.5193
 7863SOL    HW224400   1.106   5.412   2.786  0.9890  0.8798  0.3802
 7864SOL     OW24401   7.016   0.539   6.952  0.0386 -0.1699 -0.1532
 7864SOL    HW124402   6.974   0.479   6.890 -2.8420  0.3253  1.1814
 7864SOL    HW224403   7.030   0.485   7.030  1.4349 -0.1624 -0.3759
 7865SOL     OW24404   1.710   4.789   5.632 -0.2572  0.0950  0.3933
 7865SOL    HW124405   1.757   4.722   5.583  0.3401  0.5642  0.3184
 7865SOL    HW224406   1.773   4.820   5.697 -1.4499 -1.5043  2.4401
 7866SOL     OW24407   2.872   3.518   4.273  0.0918  0.1811 -0.1116
 7866SOL    HW124408   2.875   3.603   4.227  1.3715  0.6697  0.8476
 7866SOL    HW224409   2.849   3.540   4.363  0.4735 -0.4961  0.1574
 7867SOL     OW24410   5.836   0.172   2.585  0.3064 -0.0149 -0.1604
 7867SOL    HW124411   5.824   0.262   2.552 -1.5049 -0.5640 -1.1418
 7867SOL    HW224412   5.807   0.177   2.676 -1.3001  0.1263 -0.6377
 7868SOL     OW24413   7.863   7.004   6.802 -0.6718 -0.2647  0.4300
 7868SOL    HW124414   7.802   7.075   6.820 -0.2143  0.1956  0.1888
 7868SOL    HW224415   7.808   6.933   6.768 -1.1223 -0.0068  0.6108
 7869SOL     OW24416   3.821   4.559   2.013 -0.1098 -0.1436 -0.0285
 7869SOL    HW124417   3.824   4.629   2.078 -0.5953 -0.7109  0.6177
 7869SOL    HW224418   3.847   4.601   1.931  2.7275  0.1346  0.8967
 7870SOL     OW24419   3.557   1.716   6.577  0.5297 -0.0254  0.0173
 7870SOL    HW124420   3.525   1.674   6.497 -2.0839  0.6571  0.6265
 7870SOL    HW224421   3.591   1.643   6.630  0.7519 -0.6876 -1.0130
 7871SOL     OW24422   5.079   5.119   6.324  0.2408 -0.3126 -0.6317
 7871SOL    HW124423   5.039   5.034   6.307 -1.0503 -0.2607  1.6840
 7871SOL    HW224424   5.007   5.181   6.315  0.5972  0.2204  0.1103
 7872SOL     OW24425   7.519   0.204   7.199  0.2116  0.6555 -0.3903
 7872SOL    HW124426   7.438   0.221   7.246 -0.4698 -0.7713 -0.9849
 7872SOL    HW224427   7.508   0.116   7.164  2.4083  0.0249  0.3223
 7873SOL     OW24428   7.680   3.938   1.420 -0.1578  0.9105 -0.2388
 7873SOL    HW124429   7.640   3.876   1.359 -0.3496  2.0404 -1.3028
 7873SOL    HW224430   7.682   4.020   1.372  1.9725  1.2737  0.3690
 7874SOL     OW24431   1.130   3.029   7.836 -0.2438 -0.6734  0.0111
 7874SOL    HW124432   1.067   2.960   7.859 -0.2993 -0.5884  0.1177
 7874SOL    HW224433   1.083   3.111   7.853 -0.4867 -0.6052 -0.9710
 7875SOL     OW24434   0.909   7.787   7.888  0.0903  0.0855 -0.1139
 7875SOL    HW124435   0.949   7.873   7.873  0.8371 -0.5047 -1.7189
 7875SOL    HW224436   0.820   7.796   7.856  0.2024  0.2346 -0.3852
 7876SOL     OW24437   6.850   3.063   7.949 -0.4214  0.7163 -0.0811
 7876SOL    HW124438   6.905   2.998   7.905 -2.0628  0.5463 -1.9753
 7876SOL    HW224439   6.906   3.141   7.954  1.4672 -0.6193  1.9490
 7877SOL     OW24440   6.354   1.708   2.459  0.1808  0.0618 -0.3778
 7877SOL    HW124441   6.364   1.754   2.543 -2.3715 -1.1739  0.7306
 7877SOL    HW224442   6.295   1.764   2.408 -3.1200 -1.7833  1.0608
 7878SOL     OW24443   5.630   0.052   5.621  0.5600  0.2078  0.5537
 7878SOL    HW124444   5.648  -0.042   5.620  0.2577  0.1500 -0.4084
 7878SOL    HW224445   5.613   0.072   5.713  2.4901 -0.2991  1.0781
 7879SOL     OW24446   1.329   3.919   7.946  0.1504 -0.2900 -0.3766
 7879SOL    HW124447   1.284   3.942   7.865  1.4527  1.6594 -0.6124
 7879SOL    HW224448   1.382   3.996   7.967 -0.2491 -0.6733  2.4130
 7880SOL     OW24449   1.259   7.249   3.975  0.0272 -0.0590 -0.0406
 7880SOL    HW124450   1.339   7.275   4.020  1.0264  0.9167 -2.2282
 7880SOL    HW224451   1.284   7.174   3.921  0.0813  1.4275 -2.2393
 7881SOL     OW24452   7.346   7.202   5.186 -0.5907 -0.1683  0.4576
 7881SOL    HW124453   7.433   7.236   5.203 -0.8575  1.7622 -1.5132
 7881SOL    HW224454   7.307   7.190   5.272  0.7958  1.2586  1.3399
 7882SOL     OW24455   6.518   2.642   6.858  0.5221 -0.2536 -0.0453
 7882SOL    HW124456   6.588   2.647   6.794  0.2481 -0.4474 -0.3612
 7882SOL    HW224457   6.549   2.693   6.933  1.4600 -1.2092  0.2453
 7883SOL     OW24458   0.726   4.873   3.388 -0.5881 -0.3581 -0.2128
 7883SOL    HW124459   0.675   4.932   3.331 -0.2812  0.6471  0.5256
 7883SOL    HW224460   0.740   4.924   3.468 -0.2775 -1.4348  0.4315
 7884SOL     OW24461   1.297   6.453   6.788 -0.0464  0.2432 -0.1909
 7884SOL    HW124462   1.223   6.392   6.794 -0.0580  0.3783  1.6805
 7884SOL    HW224463   1.260   6.532   6.748 -0.4961 -0.2708 -0.8160
 7885SOL     OW24464   5.841   4.200   2.298 -0.6412  0.2658  0.3101
 7885SOL    HW124465   5.835   4.281   2.348  1.3528  0.2307  0.6955
 7885SOL    HW224466   5.907   4.218   2.231 -0.7607 -0.7784 -0.1054
 7886SOL     OW24467   6.840   4.549   6.023 -0.1602 -0.2278 -0.0568
 7886SOL    HW124468   6.754   4.590   6.013  0.0313  0.1662 -0.0927
 7886SOL    HW224469   6.849   4.495   5.944  0.1155  0.6343 -0.6288
 7887SOL     OW24470   7.606   0.913   1.760 -0.0644 -0.0212 -0.1800
 7887SOL    HW124471   7.549   0.990   1.751 -0.7346 -0.5065 -0.1250
 7887SOL    HW224472   7.678   0.943   1.815  0.1100  0.8018 -0.8290
 7888SOL     OW24473   5.800   7.721   5.283 -0.2588  0.3201  0.0449
 7888SOL    HW124474   5.796   7.657   5.211 -1.1073  0.1037  0.2735
 7888SOL    HW224475   5.729   7.783   5.264 -1.6540 -0.7244  1.5940
 7889SOL     OW24476   4.913   1.887   6.567  0.5569 -0.0801 -0.3891
 7889SOL    HW124477   4.847   1.946   6.603  1.1464  0.7486 -0.6328
 7889SOL    HW224478   4.865   1.831   6.506  0.3515  1.6724 -1.8894
 7890SOL     OW24479   1.826   5.563   4.181  0.4462 -0.5330 -0.2636
 7890SOL    HW124480   1.886   5.490   4.199  1.4846  0.2391 -0.4939
 7890SOL    HW224481   1.789   5.585   4.267  0.4792 -1.0266 -0.1186
 7891SOL     OW24482   2.819   1.265   4.942  0.2059  0.1496  0.2041
 7891SOL    HW124483   2.845   1.196   5.003 -0.7019 -0.0248  0.4121
 7891SOL    HW224484   2.728   1.284   4.965 -0.7811 -1.1555 -2.2277
 7892SOL     OW24485   0.298   1.793   2.751  0.0107  0.1016 -0.3979
 7892SOL    HW124486   0.296   1.886   2.725 -0.8804 -0.3333 -2.0029
 7892SOL    HW224487   0.235   1.751   2.693  0.5162 -1.5499  0.2139
 7893SOL     OW24488   2.429   3.511   7.395 -0.5588 -0.5297  0.1783
 7893SOL    HW124489   2.442   3.494   7.489  0.6085 -1.0246 -0.0585
 7893SOL    HW224490   2.390   3.430   7.362  2.4384 -1.8775 -0.4182
 7894SOL     OW24491   4.574   1.871   1.834  0.1442 -1.0135  0.2500
 7894SOL    HW124492   4.595   1.936   1.767 -0.0343 -0.2428  0.9259
 7894SOL    HW224493   4.515   1.810   1.790 -1.6537  0.6132  0.2216
 7895SOL     OW24494   2.344   2.532   0.258 -0.2964  0.5296  0.7485
 7895SOL    HW124495   2.371   2.572   0.175 -2.9184  1.1638  0.1252
 7895SOL    HW224496   2.311   2.446   0.232  0.2511  0.1326  1.3571
 7896SOL     OW24497   5.233   6.623   7.087  0.0754  0.1268 -0.7467
 7896SOL    HW124498   5.239   6.642   7.181  2.0396 -0.2095 -0.7612
 7896SOL    HW224499   5.180   6.544   7.081 -1.5478  1.1156 -0.0891
 7897SOL     OW24500   4.336   3.982   0.577  0.1089  0.7279  0.4190
 7897SOL    HW124501   4.378   3.903   0.542  0.9640  0.1816  2.5672
 7897SOL    HW224502   4.301   4.026   0.499 -1.2414 -2.2006 -0.7741
 7898SOL     OW24503   6.352   3.198   2.487 -0.5952 -0.2934  0.7128
 7898SOL    HW124504   6.285   3.137   2.455 -1.7414  0.3276  1.8426
 7898SOL    HW224505   6.350   3.188   2.582  2.5193 -1.8822  0.7367
 7899SOL     OW24506   7.882   0.401   3.080  0.0054  0.4020 -0.5198
 7899SOL    HW124507   7.845   0.476   3.127 -1.9534 -0.2125 -0.9972
 7899SOL    HW224508   7.810   0.368   3.027  1.0878 -1.2732 -1.0231
 7900SOL     OW24509   6.125   0.755   7.756  0.4201 -0.0588  0.0647
 7900SOL    HW124510   6.097   0.836   7.799  1.6631  1.9842 -2.7304
 7900SOL    HW224511   6.202   0.779   7.706  0.3187 -2.7850 -1.5981
 7901SOL     OW24512   6.437   0.891   4.128 -0.7229  0.0054  0.4976
 7901SOL    HW124513   6.497   0.941   4.183 -0.3000 -0.6392  0.6324
 7901SOL    HW224514   6.372   0.857   4.190 -1.8074  1.4908  0.2312
 7902SOL     OW24515   5.760   0.254   4.552 -0.1819  0.6989  0.0086
 7902SOL    HW124516   5.728   0.190   4.489  0.9068  0.3954 -0.2586
 7902SOL    HW224517   5.847   0.278   4.520  0.1618  0.9600  1.0935
 7903SOL     OW24518   2.509   5.666   6.045 -0.1148  0.0090  0.3285
 7903SOL    HW124519   2.457   5.610   6.103 -0.6485 -0.2216 -0.3718
 7903SOL    HW224520   2.452   5.739   6.024  0.4471  0.6443  0.9239
 7904SOL     OW24521   0.156   0.556   6.691 -0.2408  0.3695 -0.9407
 7904SOL    HW124522   0.088   0.596   6.637 -1.2115  1.5251  1.0102
 7904SOL    HW224523   0.114   0.479   6.731  0.5050 -0.5565 -1.8867
 7905SOL     OW24524   0.865   7.024   3.952 -0.4742  0.1887  0.3907
 7905SOL    HW124525   0.772   7.046   3.939 -0.7241 -0.9219  0.1780
 7905SOL    HW224526   0.912   7.082   3.892 -1.0704  0.4200  0.1370
 7906SOL     OW24527   7.659   2.926   5.179 -0.9962  0.6519 -0.3720
 7906SOL    HW124528   7.585   2.874   5.148 -2.6476  2.4656  0.3166
 7906SOL    HW224529   7.694   2.876   5.253 -0.4869 -0.9886 -1.6558
 7907SOL     OW24530   3.834   5.329   7.960 -0.2962  0.0070  0.2235
 7907SOL    HW124531   3.867   5.264   7.899  0.3955 -0.5835  1.2005
 7907SOL    HW224532   3.885   5.408   7.942  0.0753 -0.2378  0.1991
 7908SOL     OW24533   2.108   1.658   5.494  0.2130 -0.0207 -0.5050
 7908SOL    HW124534   2.161   1.599   5.548  0.5342 -0.2052 -1.0159
 7908SOL    HW224535   2.153   1.743   5.501  0.7724 -0.2461 -1.1861
 7909SOL     OW24536   7.003   6.065   4.566  0.0240 -0.6436 -0.2198
 7909SOL    HW124537   6.959   5.986   4.598  0.1750 -0.5694  0.1781
 7909SOL    HW224538   6.933   6.120   4.533 -0.0069 -1.3177 -1.3321
 7910SOL     OW24539   2.014   3.264   7.112 -0.2745  0.1200 -0.3288
 7910SOL    HW124540   2.068   3.185   7.124 -0.9597 -0.2274  0.6675
 7910SOL    HW224541   1.987   3.261   7.021 -1.3935 -1.5580  0.0119
 7911SOL     OW24542   3.171   3.345   4.744 -0.1503  0.2726 -0.0424
 7911SOL    HW124543   3.159   3.266   4.691  1.7449  0.1802 -0.3945
 7911SOL    HW224544   3.119   3.412   4.698 -0.6252 -0.4170 -0.5423
 7912SOL     OW24545   0.347   3.191   6.494  0.4170 -0.1600  0.5912
 7912SOL    HW124546   0.259   3.227   6.502 -0.1932 -1.4434 -0.2523
 7912SOL    HW224547   0.386   3.238   6.420  0.7767  0.9868  1.4561
 7913SOL     OW24548   3.062   4.063   0.541 -0.1939 -0.6423  0.0829
 7913SOL    HW124549   3.023   4.103   0.464  0.3021  0.7927  0.5355
 7913SOL    HW224550   3.045   4.125   0.612  2.1855 -0.3090  0.4632
 7914SOL     OW24551   3.618   6.324   2.460  0.0708 -0.6001  0.0638
 7914SOL    HW124552   3.710   6.318   2.485  0.2526 -1.9832 -0.8192
 7914SOL    HW224553   3.620   6.366   2.374 -0.1224 -0.5445  0.0867
 7915SOL     OW24554   7.753   5.260   5.093  0.0741  0.3338 -0.0937
 7915SOL    HW124555   7.819   5.311   5.047 -1.2054  1.2458 -0.9640
 7915SOL    HW224556   7.716   5.203   5.026 -1.3075  1.1651 -0.0691
 7916SOL     OW24557   4.093   3.866   0.593  0.2230  1.2368 -0.6181
 7916SOL    HW124558   4.144   3.947   0.583  2.4651 -0.0554 -0.4025
 7916SOL    HW224559   4.090   3.851   0.687  0.8343  0.5058 -0.7032
 7917SOL     OW24560   1.523   1.841   6.714  0.2793 -0.1746 -0.0234
 7917SOL    HW124561   1.522   1.934   6.736  0.3095 -0.5097  1.5248
 7917SOL    HW224562   1.612   1.813   6.735  0.1608 -0.6333 -0.1329
 7918SOL     OW24563   0.010   3.281   4.480  0.5143  0.3111 -0.0863
 7918SOL    HW124564  -0.015   3.202   4.432  2.4587 -0.3038 -0.2101
 7918SOL    HW224565   0.041   3.341   4.413 -0.7791  1.1412  0.0277
 7919SOL     OW24566   3.683   0.984   2.713  0.1682 -0.1343  0.0608
 7919SOL    HW124567   3.692   1.033   2.794 -1.5042 -1.0517  0.8329
 7919SOL    HW224568   3.646   0.900   2.739 -0.3180 -0.4815 -1.6375
 7920SOL     OW24569   0.122   7.283   0.289 -0.2034  0.1098 -0.2409
 7920SOL    HW124570   0.094   7.239   0.209  0.3808  0.2036 -0.4999
 7920SOL    HW224571   0.073   7.365   0.290 -2.0737 -0.9487  0.7556
 7921SOL     OW24572   2.980   3.669   5.038 -0.1029  0.1709  0.0562
 7921SOL    HW124573   2.957   3.702   5.125 -3.1820 -0.7683 -0.2962
 7921SOL    HW224574   2.989   3.747   4.984 -0.7319  0.6623  0.6539
 7922SOL     OW24575   3.357   5.233   0.338 -0.0793  0.4113  0.0568
 7922SOL    HW124576   3.277   5.197   0.299 -0.2467  0.3774  0.4270
 7922SOL    HW224577   3.412   5.157   0.354 -0.0498  0.4153 -0.0267
 7923SOL     OW24578   1.856   2.813   6.381  0.2042 -0.0659  0.5807
 7923SOL    HW124579   1.949   2.802   6.361 -0.1776 -2.1193 -0.2979
 7923SOL    HW224580   1.853   2.890   6.437  2.0631  2.1281 -2.0516
 7924SOL     OW24581   3.500   6.276   0.478  0.3219 -0.0989 -0.2296
 7924SOL    HW124582   3.427   6.239   0.526 -0.6359 -0.8984 -2.1959
 7924SOL    HW224583   3.486   6.371   0.482  0.6182 -0.0903  1.5101
 7925SOL     OW24584   5.663   3.697   5.327  0.3884 -0.1936  0.1316
 7925SOL    HW124585   5.738   3.645   5.354  2.0510  0.7009 -2.3750
 7925SOL    HW224586   5.697   3.786   5.318 -1.8299  0.9892  2.1198
 7926SOL     OW24587   0.371   1.334   7.873  0.3492  0.0095  0.1207
 7926SOL    HW124588   0.457   1.294   7.890 -0.5819 -1.6717  1.2275
 7926SOL    HW224589   0.315   1.299   7.943 -1.2936  0.9049 -0.6997
 7927SOL     OW24590   7.533   7.667   6.678  0.0547 -0.5519  0.2043
 7927SOL    HW124591   7.605   7.694   6.621  1.0502 -1.0231  1.2104
 7927SOL    HW224592   7.533   7.730   6.749 -1.0967 -0.0490 -0.2165
 7928SOL     OW24593   4.073   3.377   5.503  0.6387 -0.0749  0.6326
 7928SOL    HW124594   4.125   3.457   5.511  0.9407 -0.0454 -1.2771
 7928SOL    HW224595   3.986   3.402   5.535  1.1877  0.4771  1.7808
 7929SOL     OW24596   3.638   1.886   1.504 -0.0908 -0.4071 -0.4575
 7929SOL    HW124597   3.728   1.878   1.473  0.4413  0.6761  0.7303
 7929SOL    HW224598   3.612   1.975   1.481 -0.2893 -0.1760  0.5893
 7930SOL     OW24599   6.356   1.412   1.802  0.2668 -0.5279 -0.3176
 7930SOL    HW124600   6.401   1.367   1.730  1.0686  0.5399 -0.4979
 7930SOL    HW224601   6.391   1.372   1.881  0.4185 -0.7317 -0.4858
 7931SOL     OW24602   6.920   0.434   4.294  0.2070 -0.1488 -0.6775
 7931SOL    HW124603   6.905   0.364   4.357  0.8747 -1.9936 -2.4707
 7931SOL    HW224604   6.865   0.506   4.325 -0.7819 -1.5628  1.0343
 7932SOL     OW24605   6.862   2.486   3.630 -0.2320  0.0242  0.3460
 7932SOL    HW124606   6.856   2.526   3.544 -0.6309 -1.0754 -0.1553
 7932SOL    HW224607   6.851   2.392   3.614 -1.0238 -0.1355  1.6606
 7933SOL     OW24608   0.082   5.889   6.657  0.2519  0.2580 -0.3170
 7933SOL    HW124609   0.091   5.817   6.720 -1.5972  0.0964 -0.1781
 7933SOL    HW224610   0.103   5.849   6.572 -0.3197 -0.3561 -0.1857
 7934SOL     OW24611   0.575   4.021   3.746  0.0923 -0.8727  0.0152
 7934SOL    HW124612   0.522   4.099   3.732  0.9141  0.0150  1.5407
 7934SOL    HW224613   0.614   4.003   3.660  1.6131  1.7404  0.0365
 7935SOL     OW24614   0.124   3.266   4.915 -0.4397  0.4009  0.5197
 7935SOL    HW124615   0.184   3.319   4.968 -1.0675  0.8816  0.7750
 7935SOL    HW224616   0.169   3.183   4.902  1.0367  1.3813 -0.8225
 7936SOL     OW24617   3.622   2.160   3.678  0.6714  0.6422  0.3193
 7936SOL    HW124618   3.584   2.248   3.682  0.0042  0.3448  0.9222
 7936SOL    HW224619   3.641   2.139   3.770  0.4395  0.0050  0.2255
 7937SOL     OW24620   5.667   0.934   4.176 -0.2105 -0.3880 -0.4000
 7937SOL    HW124621   5.730   0.973   4.115 -1.4418  0.5204 -1.1669
 7937SOL    HW224622   5.700   0.846   4.193  3.1095  1.0916  1.9552
 7938SOL     OW24623   4.983   4.645   7.431 -0.6372 -0.4778 -0.8803
 7938SOL    HW124624   4.923   4.572   7.415 -1.1077 -0.3949  0.3842
 7938SOL    HW224625   5.010   4.674   7.344  0.8461 -3.1742 -1.4381
 7939SOL     OW24626   5.567   1.273   6.893  0.7745  0.1849  0.3709
 7939SOL    HW124627   5.606   1.334   6.830  1.2405 -0.0368  0.4390
 7939SOL    HW224628   5.524   1.207   6.838 -2.7543  2.3722  0.2411
 7940SOL     OW24629   7.294   6.492   2.102  0.3516 -0.2090 -0.2975
 7940SOL    HW124630   7.275   6.440   2.180  4.7790 -0.8706  0.5825
 7940SOL    HW224631   7.311   6.427   2.033  1.6452  0.1551 -0.3459
 7941SOL     OW24632   4.812   2.932   0.221 -0.3809 -0.0116  0.7679
 7941SOL    HW124633   4.903   2.903   0.222 -1.1490 -2.7724  1.1792
 7941SOL    HW224634   4.816   3.027   0.233  2.4321  0.0500 -0.0012
 7942SOL     OW24635   6.068   1.026   4.999 -0.2509 -0.4106 -0.3766
 7942SOL    HW124636   5.995   1.016   5.060 -0.5237 -0.9302 -0.7801
 7942SOL    HW224637   6.090   0.936   4.974  0.6626 -0.2794 -0.1037
 7943SOL     OW24638   5.340   2.606   5.645 -0.0697 -0.1557  0.5117
 7943SOL    HW124639   5.399   2.680   5.659 -0.1868  0.2885 -1.0971
 7943SOL    HW224640   5.392   2.544   5.593  0.0157 -1.2100  1.8168
 7944SOL     OW24641   7.186   6.886   7.797 -0.2456  0.4511 -0.3287
 7944SOL    HW124642   7.135   6.938   7.859 -1.2673  1.2066 -1.7476
 7944SOL    HW224643   7.189   6.799   7.837 -0.3858  1.0342  1.0367
 7945SOL     OW24644   3.866   6.966   0.942 -0.9464  0.5590  0.3271
 7945SOL    HW124645   3.844   7.019   0.865 -1.3060  3.3346  2.1864
 7945SOL    HW224646   3.944   7.008   0.978  0.3039 -1.7890  0.5408
 7946SOL     OW24647   4.239   6.449   4.877 -0.1535 -0.1117 -0.0448
 7946SOL    HW124648   4.227   6.355   4.865 -0.2083  0.0845 -1.7356
 7946SOL    HW224649   4.159   6.478   4.922 -1.1004 -0.5606 -1.3749
 7947SOL     OW24650   3.389   4.908   1.065  0.3107 -0.5522 -0.0726
 7947SOL    HW124651   3.354   4.819   1.070 -1.9867  0.0731 -2.5318
 7947SOL    HW224652   3.311   4.965   1.070  1.7934  1.4719  2.6322
 7948SOL     OW24653   1.083   5.332   6.215 -0.2918  0.3634 -0.4684
 7948SOL    HW124654   1.050   5.356   6.128 -0.3862  1.1013 -0.2380
 7948SOL    HW224655   1.007   5.342   6.273  0.2615  1.9331  0.0422
 7949SOL     OW24656   6.014   6.715   6.541 -0.2389 -0.5166  0.4968
 7949SOL    HW124657   6.004   6.794   6.594  0.1793 -1.1266  1.5113
 7949SOL    HW224658   6.021   6.644   6.605  1.8034 -1.1081 -0.3060
 7950SOL     OW24659   2.173   4.620   7.864 -0.0514 -0.0505 -0.3848
 7950SOL    HW124660   2.104   4.601   7.927  0.6213 -0.4280  0.2600
 7950SOL    HW224661   2.129   4.623   7.779 -0.6893 -1.3372 -0.1151
 7951SOL     OW24662   7.848   1.653   7.336 -0.4490 -0.2637  0.4468
 7951SOL    HW124663   7.868   1.577   7.391 -1.6917 -1.8882 -1.2129
 7951SOL    HW224664   7.889   1.633   7.252  0.8588  1.8568  0.5221
 7952SOL     OW24665   1.317   7.009   5.993 -0.0053 -0.8534  0.2457
 7952SOL    HW124666   1.295   6.959   6.071 -0.3258  0.1962  0.8439
 7952SOL    HW224667   1.387   7.069   6.021 -1.8544  1.3350  0.4647
 7953SOL     OW24668   6.643   7.956   5.280  0.4946 -0.3887 -0.1816
 7953SOL    HW124669   6.635   7.949   5.185 -0.9303  1.1192 -0.2144
 7953SOL    HW224670   6.571   7.903   5.315  1.3660 -1.4303  0.1212
 7954SOL     OW24671   7.958   0.893   7.700  0.5853  0.2884 -0.6987
 7954SOL    HW124672   8.004   0.973   7.723  2.3714 -0.5225 -1.2594
 7954SOL    HW224673   7.960   0.890   7.604 -0.0194 -0.1301 -0.7102
 7955SOL     OW24674   6.758   2.710   3.271  0.0541  0.3415 -0.4836
 7955SOL    HW124675   6.708   2.715   3.190  0.1885 -1.3345 -0.6913
 7955SOL    HW224676   6.711   2.768   3.331 -1.2347  0.0133 -1.1370
 7956SOL     OW24677   5.209   3.318   1.530  0.5446 -0.0296  0.2107
 7956SOL    HW124678   5.123   3.329   1.572  1.5385  0.2088  2.3341
 7956SOL    HW224679   5.219   3.395   1.474  0.2676  1.0972  1.6509
 7957SOL     OW24680   5.036   1.252   4.962 -0.2712 -0.2351 -0.1646
 7957SOL    HW124681   4.990   1.321   5.010  2.7252  1.6045  0.3466
 7957SOL    HW224682   5.040   1.283   4.872  1.0495  0.3184  0.0587
 7958SOL     OW24683   4.001   6.133   3.488 -0.2971  0.7661  0.3007
 7958SOL    HW124684   4.058   6.173   3.422 -0.9742 -2.6355 -2.6072
 7958SOL    HW224685   3.912   6.147   3.455 -0.7224 -0.1308  1.0214
 7959SOL     OW24686   1.477   1.000   6.013  0.3386 -0.4004  0.7420
 7959SOL    HW124687   1.479   0.966   5.923 -1.1523  0.9837  0.1169
 7959SOL    HW224688   1.532   1.078   6.010 -0.8980  0.4960  0.6013
 7960SOL     OW24689   5.895   6.098   2.598  0.0455  0.1645  0.1198
 7960SOL    HW124690   5.853   6.183   2.612  0.9266  0.4707  1.0703
 7960SOL    HW224691   5.843   6.036   2.649  0.3164  0.4159  0.7113
 7961SOL     OW24692   2.576   7.759   6.177 -0.2546  0.4290 -0.5308
 7961SOL    HW124693   2.646   7.825   6.179 -0.9555  1.1970 -0.5540
 7961SOL    HW224694   2.496   7.811   6.168 -0.8945 -0.3746  0.4025
 7962SOL     OW24695   6.630   4.821   7.250  0.1144 -0.4936 -0.2143
 7962SOL    HW124696   6.611   4.844   7.159 -0.1641  1.2102  0.2342
 7962SOL    HW224697   6.544   4.818   7.292  0.2411 -1.2895  0.0031
 7963SOL     OW24698   6.680   6.916   0.102  0.3345  0.1226 -0.1239
 7963SOL    HW124699   6.763   6.913   0.054  0.7703  0.4337  0.5961
 7963SOL    HW224700   6.619   6.867   0.047  0.2421  2.2733 -2.1118
 7964SOL     OW24701   0.967   6.885   1.430 -0.2344 -0.8529  0.0038
 7964SOL    HW124702   0.920   6.855   1.353 -2.3791 -1.9002  1.6178
 7964SOL    HW224703   1.009   6.967   1.403 -1.4505 -0.8593 -2.0677
 7965SOL     OW24704   6.745   7.291   6.250 -0.5191  0.0950 -0.2925
 7965SOL    HW124705   6.709   7.251   6.171  0.5801 -0.7657 -0.3911
 7965SOL    HW224706   6.671   7.300   6.310 -0.9292 -1.5204 -0.5226
 7966SOL     OW24707   6.324   6.235   4.168  0.3895  0.1971  0.7535
 7966SOL    HW124708   6.292   6.245   4.258 -2.8510  1.2188 -0.3665
 7966SOL    HW224709   6.246   6.213   4.117  1.5946  2.1237 -2.1969
 7967SOL     OW24710   4.633   6.597   3.119  0.1415  0.0173  0.1489
 7967SOL    HW124711   4.569   6.541   3.163 -1.0270  1.4685  0.3810
 7967SOL    HW224712   4.584   6.637   3.047  0.8156  1.0889  0.2668
 7968SOL     OW24713   5.593   3.175   0.039 -0.6603  0.2985  0.0020
 7968SOL    HW124714   5.656   3.157  -0.030 -0.7399  0.4548 -0.1111
 7968SOL    HW224715   5.509   3.144   0.005 -0.3099 -1.8558  0.9720
 7969SOL     OW24716   7.024   2.003   6.444 -0.1542 -0.1232  0.2521
 7969SOL    HW124717   6.998   1.911   6.448 -1.4380  0.1865 -0.4738
 7969SOL    HW224718   7.094   2.005   6.378 -0.7105 -0.4609 -0.3615
 7970SOL     OW24719   1.545   4.123   1.898 -1.1316 -0.1874 -0.4574
 7970SOL    HW124720   1.474   4.187   1.893 -2.0002 -1.0771  0.1975
 7970SOL    HW224721   1.564   4.101   1.806 -1.5222  0.2358 -0.6450
 7971SOL     OW24722   3.788   0.627   2.218 -0.6619  0.3364  0.5553
 7971SOL    HW124723   3.809   0.680   2.294  1.3667  0.8287 -0.2812
 7971SOL    HW224724   3.724   0.563   2.250  2.1669 -1.3334  3.4479
 7972SOL     OW24725   2.038   1.151   3.659  0.4597 -0.1809  0.4247
 7972SOL    HW124726   2.128   1.165   3.689  0.6853 -0.6207 -0.0249
 7972SOL    HW224727   2.035   1.059   3.633  0.4687  0.3039 -1.4792
 7973SOL     OW24728   7.594   1.432   3.661 -0.2982  0.7305 -0.4776
 7973SOL    HW124729   7.597   1.512   3.610  0.1064  1.1231  0.1489
 7973SOL    HW224730   7.532   1.376   3.615  1.3678  0.3733 -2.4067
 7974SOL     OW24731   2.600   0.344   7.723  0.0402  0.3507 -0.6292
 7974SOL    HW124732   2.593   0.393   7.641 -0.8880  2.7954  0.8107
 7974SOL    HW224733   2.537   0.386   7.782  1.5017 -0.5222  1.7061
 7975SOL     OW24734   2.664   5.421   1.998 -0.1336  0.0278  0.4626
 7975SOL    HW124735   2.643   5.344   2.050 -0.3805  0.2370  0.6801
 7975SOL    HW224736   2.587   5.435   1.943  0.0863 -0.1341  0.1110
 7976SOL     OW24737   5.522   5.210   4.895  0.3424  0.1945  0.1075
 7976SOL    HW124738   5.613   5.182   4.883  0.4467  1.1763 -2.0206
 7976SOL    HW224739   5.479   5.186   4.813 -1.2006  0.2197  0.8797
 7977SOL     OW24740   3.947   4.533   7.051  0.0887 -0.4214 -0.0925
 7977SOL    HW124741   3.861   4.542   7.010 -0.1972 -0.6049  0.4558
 7977SOL    HW224742   3.934   4.560   7.141  0.1746 -2.1883  0.4897
 7978SOL     OW24743   7.229   1.153   2.891  0.1757 -0.0179  0.0725
 7978SOL    HW124744   7.277   1.205   2.827 -0.3092 -0.9707 -1.0941
 7978SOL    HW224745   7.149   1.124   2.845 -0.9396  0.5246  1.5761
 7979SOL     OW24746   2.353   4.787   3.611 -0.7292 -0.1996  0.3610
 7979SOL    HW124747   2.412   4.834   3.669 -0.7313 -1.6927  1.6383
 7979SOL    HW224748   2.331   4.851   3.543  1.0557  0.8900  0.7320
 7980SOL     OW24749   2.144   5.797   6.558  0.0959 -0.0001 -0.4087
 7980SOL    HW124750   2.125   5.730   6.492  1.2171  0.4077 -1.1783
 7980SOL    HW224751   2.237   5.819   6.544  0.0839  0.8152  0.6521
 7981SOL     OW24752   5.071   6.134   3.243  0.0624 -0.4761 -0.5577
 7981SOL    HW124753   5.128   6.103   3.173  1.4221 -0.4405  0.4739
 7981SOL    HW224754   5.132   6.161   3.312 -1.0472  2.7024 -0.6418
 7982SOL     OW24755   7.520   3.935   7.957 -0.1219 -0.1001  0.7623
 7982SOL    HW124756   7.437   3.982   7.957 -0.3980 -0.5745  0.3040
 7982SOL    HW224757   7.516   3.880   7.879  1.0753  0.6637  0.1375
 7983SOL     OW24758   0.427   5.190   1.380 -0.6767 -0.1235  0.1963
 7983SOL    HW124759   0.511   5.233   1.395  0.0114 -0.8461 -1.3652
 7983SOL    HW224760   0.440   5.101   1.412 -0.1469 -0.8164 -1.7822
 7984SOL     OW24761   5.845   7.301   0.425 -0.6957 -0.5024 -0.0768
 7984SOL    HW124762   5.807   7.366   0.485 -1.1686 -0.0128 -0.8791
 7984SOL    HW224763   5.844   7.345   0.340  0.2706 -1.0618 -0.3883
 7985SOL     OW24764   5.448   4.975   2.175 -0.6494 -0.1562 -0.4477
 7985SOL    HW124765   5.423   5.048   2.119 -0.8383 -0.2700 -0.5151
 7985SOL    HW224766   5.507   5.012   2.239  0.8037 -0.3021 -1.6529
 7986SOL     OW24767   4.878   6.622   7.192  0.0945 -0.0740 -0.5326
 7986SOL    HW124768   4.937   6.566   7.142 -0.2814 -1.1188  0.1569
 7986SOL    HW224769   4.929   6.647   7.269  1.3364  3.0412 -2.2149
 7987SOL     OW24770   2.544   1.844   2.931 -0.1160 -0.5096  0.1745
 7987SOL    HW124771   2.466   1.808   2.888 -0.3795  1.3274 -0.9949
 7987SOL    HW224772   2.612   1.842   2.864 -0.3189  1.6717 -0.1786
 7988SOL     OW24773   7.150   7.099   4.383 -0.3302 -0.1562  0.3583
 7988SOL    HW124774   7.204   7.101   4.462 -2.0594  0.5729  1.6011
 7988SOL    HW224775   7.067   7.060   4.412 -1.3858  1.0943 -0.8132
 7989SOL     OW24776   1.106   1.395   2.281  0.1382 -0.3367  0.6471
 7989SOL    HW124777   1.110   1.403   2.186 -0.2019  0.7542  0.7083
 7989SOL    HW224778   1.170   1.327   2.303  0.2571 -0.5531 -0.3503
 7990SOL     OW24779   4.524   3.431   5.245 -0.3358 -0.0210 -0.3274
 7990SOL    HW124780   4.481   3.361   5.294  0.4614 -0.0689  0.3141
 7990SOL    HW224781   4.465   3.448   5.171 -0.4956 -1.4091 -0.5366
 7991SOL     OW24782   6.300   6.448   5.211  0.0654 -0.0970 -0.1499
 7991SOL    HW124783   6.269   6.466   5.123 -2.0776 -1.1795  0.3026
 7991SOL    HW224784   6.308   6.353   5.215 -0.1752 -0.0877  0.8908
 7992SOL     OW24785   7.542   4.026   7.165  0.2082 -0.6362  0.0314
 7992SOL    HW124786   7.567   4.035   7.256 -1.0241 -0.4097  0.3697
 7992SOL    HW224787   7.497   4.108   7.145  2.3188  0.2637 -1.4324
 7993SOL     OW24788   6.652   1.933   7.123 -0.0985  0.0126 -0.1331
 7993SOL    HW124789   6.615   1.932   7.035 -0.3465 -0.6006 -0.0256
 7993SOL    HW224790   6.589   1.885   7.177  0.3300 -0.1203  0.2603
 7994SOL     OW24791   6.164   0.086   4.106 -0.2028 -0.1544  0.0458
 7994SOL    HW124792   6.077   0.067   4.070 -0.0847 -1.2200  0.2892
 7994SOL    HW224793   6.154   0.078   4.200  0.4323 -1.6391  0.0257
 7995SOL     OW24794   6.058   6.895   2.058  0.4453  0.6166  0.2805
 7995SOL    HW124795   6.150   6.899   2.085  1.2842  1.4512 -2.4036
 7995SOL    HW224796   6.061   6.850   1.974 -1.7119  0.2137  0.3782
 7996SOL     OW24797   1.842   3.885   2.819 -0.6889  0.2845  0.8025
 7996SOL    HW124798   1.781   3.834   2.872 -1.9360 -0.1687 -0.9799
 7996SOL    HW224799   1.924   3.836   2.823 -0.9814 -0.1478  1.6929
 7997SOL     OW24800   4.280   7.195   4.679 -0.1108  0.2250 -0.1260
 7997SOL    HW124801   4.189   7.189   4.652 -0.0481 -0.5901 -0.1763
 7997SOL    HW224802   4.293   7.287   4.702 -1.0890  0.2346  0.4124
 7998SOL     OW24803   3.421   4.432   2.901 -0.1800  0.5387 -0.1619
 7998SOL    HW124804   3.402   4.396   2.815 -0.3487 -0.7778  0.4098
 7998SOL    HW224805   3.476   4.508   2.883 -2.3450  1.8812 -1.5721
 7999SOL     OW24806   6.129   7.785   1.829  0.3002  0.0460  0.2343
 7999SOL    HW124807   6.219   7.819   1.827  1.1464 -2.0646 -0.1677
 7999SOL    HW224808   6.122   7.730   1.751 -1.3321  0.1048  0.3040
 8000SOL     OW24809   2.923   6.460   7.873  0.4639 -0.5107 -0.2456
 8000SOL    HW124810   2.865   6.503   7.937  1.4323  0.3164  0.1016
 8000SOL    HW224811   2.930   6.370   7.905  0.8402 -0.1397  0.7745
 8001SOL     OW24812   6.558   7.987   1.580 -0.0545  0.1887  0.1775
 8001SOL    HW124813   6.644   8.027   1.572 -0.0195 -0.2440 -2.2928
 8001SOL    HW224814   6.496   8.059   1.570  0.0338  0.0316 -1.9199
 8002SOL     OW24815   2.089   7.833   1.235 -0.3813  0.0316 -0.1153
 8002SOL    HW124816   2.017   7.800   1.181 -0.9835  1.2409 -0.0836
 8002SOL    HW224817   2.133   7.897   1.179  0.1388 -0.0664  0.1754
 8003SOL     OW24818   3.405   4.511   0.852 -0.2401  0.1574 -0.1362
 8003SOL    HW124819   3.423   4.420   0.875  0.9381  0.6145  0.9049
 8003SOL    HW224820   3.424   4.517   0.759 -1.8960 -1.0067 -0.5870
 8004SOL     OW24821   4.468   1.813   2.230 -0.3153  0.1910 -0.3203
 8004SOL    HW124822   4.410   1.811   2.154  0.5396 -1.2093 -0.9877
 8004SOL    HW224823   4.472   1.722   2.259  1.2225  0.3196 -0.0499
 8005SOL     OW24824   5.087   4.679   5.266  0.1633  0.3610 -0.0038
 8005SOL    HW124825   5.041   4.687   5.182 -1.7797  0.4280  1.0161
 8005SOL    HW224826   5.134   4.761   5.276  0.1174  0.5001 -0.8587
 8006SOL     OW24827   1.145   6.445   6.428 -0.0964 -0.0754 -0.2355
 8006SOL    HW124828   1.185   6.375   6.376  0.2358  0.7513 -1.1200
 8006SOL    HW224829   1.162   6.525   6.378 -1.4184  0.5066  0.1999
 8007SOL     OW24830   6.856   3.415   7.991 -0.3846  0.9712  0.6636
 8007SOL    HW124831   6.764   3.435   7.974 -1.1571 -2.4663  0.0530
 8007SOL    HW224832   6.904   3.470   7.930 -2.0938  2.0869  0.2520
 8008SOL     OW24833   6.416   7.502   0.249 -0.2221  0.1340  0.4711
 8008SOL    HW124834   6.362   7.423   0.243 -0.6599  0.3532  1.4570
 8008SOL    HW224835   6.432   7.514   0.342 -0.0816  1.1663  0.3254
 8009SOL     OW24836   1.450   6.698   3.031  0.6381  0.2770  0.3068
 8009SOL    HW124837   1.407   6.613   3.038 -1.2181  1.1859  0.6082
 8009SOL    HW224838   1.461   6.711   2.937  2.0271 -0.7594  0.2809
 8010SOL     OW24839   2.284   2.986   3.215 -0.0028  0.1610  0.5647
 8010SOL    HW124840   2.362   2.952   3.170 -0.1318  0.2982  0.2350
 8010SOL    HW224841   2.319   3.054   3.273 -0.0265  1.2115 -0.6157
 8011SOL     OW24842   0.585   3.600   3.966  0.2191  0.2223  0.2462
 8011SOL    HW124843   0.573   3.610   4.061  1.1468 -2.9485  0.8172
 8011SOL    HW224844   0.632   3.517   3.957 -3.4564 -1.8354 -3.1670
 8012SOL     OW24845   1.341   2.413   7.169  0.5930 -0.2151 -0.1701
 8012SOL    HW124846   1.379   2.412   7.257 -1.9583  1.2363  1.0862
 8012SOL    HW224847   1.387   2.482   7.123  0.2528  0.7801  0.9396
 8013SOL     OW24848   5.484   5.051   5.247  0.5717 -0.2385 -0.0795
 8013SOL    HW124849   5.554   5.035   5.184  1.4109  1.4730  0.3692
 8013SOL    HW224850   5.528   5.058   5.331 -0.5274 -2.4640  0.7840
 8014SOL     OW24851   1.138   6.697   2.968 -0.1622  0.3057 -0.8339
 8014SOL    HW124852   1.106   6.775   3.014 -0.6277 -0.6520  0.5337
 8014SOL    HW224853   1.155   6.633   3.037  1.9759 -0.2324 -1.7574
 8015SOL     OW24854   1.036   1.538   7.989 -0.3576  0.2267 -0.5204
 8015SOL    HW124855   0.994   1.597   7.926 -1.7728 -0.7977 -0.5889
 8015SOL    HW224856   1.023   1.579   8.074  1.2608  1.4488 -0.8155
 8016SOL     OW24857   1.414   7.759   1.262 -0.4329 -0.3052  0.1749
 8016SOL    HW124858   1.323   7.768   1.236 -0.0478  3.2738 -0.3374
 8016SOL    HW224859   1.418   7.673   1.305 -4.2423 -0.1760  1.1574
 8017SOL     OW24860   1.965   6.357   7.816 -1.4228  0.6769  0.5355
 8017SOL    HW124861   1.925   6.415   7.751 -0.6961  2.2653  1.4322
 8017SOL    HW224862   2.041   6.405   7.847 -0.5354 -0.9747  1.0370
 8018SOL     OW24863   6.793   1.155   3.860  0.1621  0.4000 -0.5264
 8018SOL    HW124864   6.703   1.127   3.879  0.0276  1.9124  1.4282
 8018SOL    HW224865   6.791   1.183   3.769 -1.0459 -0.6301 -0.8506
 8019SOL     OW24866   6.144   0.236   1.135  0.2809 -0.2373  0.0376
 8019SOL    HW124867   6.192   0.317   1.153  0.2774 -0.8353  3.3657
 8019SOL    HW224868   6.177   0.174   1.200 -1.3497 -2.2214 -0.9342
 8020SOL     OW24869   1.014   7.739   0.823  0.2117 -0.2983 -0.2270
 8020SOL    HW124870   1.015   7.774   0.734 -0.2516 -2.9000 -1.3557
 8020SOL    HW224871   1.082   7.671   0.822 -1.0081 -1.5840  0.8224
 8021SOL     OW24872   3.480   3.569   1.214 -0.4874  0.0583  0.0942
 8021SOL    HW124873   3.389   3.560   1.245 -0.6110 -0.9435 -0.5128
 8021SOL    HW224874   3.528   3.600   1.291 -0.8337 -2.1126  1.2824
 8022SOL     OW24875   1.853   0.708   7.247 -0.0808  1.0852 -0.1769
 8022SOL    HW124876   1.828   0.720   7.155  0.2675  1.2618 -0.2512
 8022SOL    HW224877   1.855   0.797   7.283 -1.8709  0.9120  0.4582
 8023SOL     OW24878   4.826   3.010   3.793 -0.0889  0.6053  0.2980
 8023SOL    HW124879   4.917   3.038   3.794 -0.1673  0.8986 -0.3362
 8023SOL    HW224880   4.821   2.948   3.720 -0.2462  0.0568  0.7640
 8024SOL     OW24881   5.384   3.400   5.771  0.0552 -0.0314 -0.0852
 8024SOL    HW124882   5.412   3.348   5.846 -1.7716 -0.0977  0.6116
 8024SOL    HW224883   5.464   3.416   5.722  1.7723  2.0126  3.0684
 8025SOL     OW24884   3.138   4.575   2.109  0.1905 -0.2127  0.0038
 8025SOL    HW124885   3.095   4.581   2.023  0.5802 -0.0469 -0.1834
 8025SOL    HW224886   3.201   4.504   2.099 -0.4952 -0.9027  0.4821
 8026SOL     OW24887   3.751   7.622   1.261 -0.5395 -0.2583 -0.3522
 8026SOL    HW124888   3.687   7.638   1.192 -1.0832 -3.0336 -0.6194
 8026SOL    HW224889   3.719   7.673   1.336 -0.9962  1.2690 -1.5404
 8027SOL     OW24890   7.031   2.077   4.232 -0.0846 -0.3366 -0.5984
 8027SOL    HW124891   6.977   2.028   4.294  0.5565 -2.2765 -1.4924
 8027SOL    HW224892   7.104   2.110   4.284 -0.8599  0.2834  0.1402
 8028SOL     OW24893   6.934   4.252   3.139 -0.1224 -0.2122 -0.3868
 8028SOL    HW124894   6.859   4.308   3.159 -1.0738 -2.0452  1.6100
 8028SOL    HW224895   6.909   4.166   3.172  3.2949 -0.6649  1.4298
 8029SOL     OW24896   2.090   6.018   4.923  0.0248  0.3581  0.5240
 8029SOL    HW124897   2.022   6.057   4.867  0.2896 -1.1827 -0.9674
 8029SOL    HW224898   2.161   6.082   4.924 -0.4215  0.8683 -0.0554
 8030SOL     OW24899   2.808   6.282   3.169  0.3257  0.1749  0.1832
 8030SOL    HW124900   2.898   6.270   3.138  0.0652  2.1507 -1.5787
 8030SOL    HW224901   2.812   6.261   3.262  2.3224 -1.0036 -0.1148
 8031SOL     OW24902   6.599   3.279   3.743 -0.4458 -0.7062 -0.3789
 8031SOL    HW124903   6.593   3.198   3.794  0.4957 -0.9385 -0.6207
 8031SOL    HW224904   6.651   3.255   3.666  0.7112  0.3610  0.0489
 8032SOL     OW24905   3.774   5.749   3.844  0.0269 -0.2087  0.2441
 8032SOL    HW124906   3.856   5.745   3.794 -0.3512 -0.0833 -0.4042
 8032SOL    HW224907   3.746   5.840   3.837  0.2281 -0.0725  1.1271
 8033SOL     OW24908   7.110   7.410   5.003 -0.6109 -0.8117  0.0232
 8033SOL    HW124909   7.137   7.323   4.973  1.3586 -1.0900  2.3469
 8033SOL    HW224910   7.019   7.399   5.030 -0.4255 -2.1361  0.1524
 8034SOL     OW24911   0.957   4.227   6.058  0.2833  0.4620  0.4437
 8034SOL    HW124912   0.909   4.150   6.090  0.0972  0.3276 -0.1455
 8034SOL    HW224913   0.972   4.209   5.965  0.7368  0.8869  0.4306
 8035SOL     OW24914   4.360   1.674   0.233 -0.0844 -0.0954 -0.0041
 8035SOL    HW124915   4.349   1.711   0.145 -1.0082  0.7257  0.4363
 8035SOL    HW224916   4.430   1.727   0.272  3.3280 -3.0057 -1.5500
 8036SOL     OW24917   6.402   1.882   4.206  0.5342  0.6131  0.8049
 8036SOL    HW124918   6.384   1.788   4.215 -1.8208  0.9823  0.7456
 8036SOL    HW224919   6.442   1.890   4.119  0.0955 -0.2672  0.5033
 8037SOL     OW24920   6.723   5.141   3.805  0.2701  0.1213  0.4180
 8037SOL    HW124921   6.776   5.141   3.725 -2.0690  1.0781 -1.2391
 8037SOL    HW224922   6.711   5.234   3.826 -0.2129 -0.0928  1.1235
 8038SOL     OW24923   4.715   4.463   1.915  0.5921 -0.3873 -0.4608
 8038SOL    HW124924   4.666   4.497   1.839  2.6710 -1.8967 -2.6407
 8038SOL    HW224925   4.662   4.390   1.946 -0.5187  0.5334 -0.1360
 8039SOL     OW24926   7.914   1.555   2.437  0.0657  0.0899 -0.1862
 8039SOL    HW124927   7.999   1.594   2.415  0.1349 -0.1470 -0.3372
 8039SOL    HW224928   7.869   1.546   2.353  0.2926 -0.7304 -0.2289
 8040SOL     OW24929   0.418   2.941   4.004  0.5337 -0.1964  0.1860
 8040SOL    HW124930   0.426   2.970   3.913 -0.8243  1.6323  0.5795
 8040SOL    HW224931   0.386   2.851   3.998 -0.3163  0.1626 -1.1798
 8041SOL     OW24932   0.106   6.475   6.476  0.1833 -0.0721  0.7325
 8041SOL    HW124933   0.172   6.448   6.540  0.3743 -0.8798  0.2095
 8041SOL    HW224934   0.070   6.393   6.444  0.5893  0.2951 -0.7121
 8042SOL     OW24935   7.720   2.130   1.414  0.4136 -0.0732  0.1204
 8042SOL    HW124936   7.743   2.223   1.418 -0.1903  0.0470  1.1317
 8042SOL    HW224937   7.750   2.101   1.328  1.9282  0.7023  0.3659
 8043SOL     OW24938   0.903   6.256   1.615 -0.0927  0.2500  0.5483
 8043SOL    HW124939   0.941   6.334   1.574  3.4270 -3.2616 -3.9954
 8043SOL    HW224940   0.809   6.265   1.599  0.2742  3.0479 -0.6874
 8044SOL     OW24941   3.922   0.177   6.727  0.2291 -0.3342 -0.1474
 8044SOL    HW124942   3.881   0.117   6.789  1.9513 -2.0355 -0.5658
 8044SOL    HW224943   3.853   0.200   6.666 -1.0071 -0.1559  1.2518
 8045SOL     OW24944   1.036   5.470   7.414  0.0510 -0.0035  0.5097
 8045SOL    HW124945   1.123   5.474   7.375  0.5311  1.4303  1.6763
 8045SOL    HW224946   0.978   5.504   7.346  0.8483  2.2357  0.8634
 8046SOL     OW24947   5.404   0.372   5.168 -0.3294 -0.0881 -0.1532
 8046SOL    HW124948   5.369   0.333   5.248  1.1847 -0.7673  0.2164
 8046SOL    HW224949   5.372   0.317   5.097  0.3934 -1.0018  0.2199
 8047SOL     OW24950   3.324   5.311   2.623 -0.5151  0.5176  0.0635
 8047SOL    HW124951   3.381   5.250   2.670 -0.4926  1.1381  0.8811
 8047SOL    HW224952   3.260   5.256   2.579  1.1618 -0.2538 -1.5224
 8048SOL     OW24953   7.356   5.316   6.532  0.8020  0.4233  0.1053
 8048SOL    HW124954   7.431   5.337   6.587  0.8823  0.0378  0.1487
 8048SOL    HW224955   7.386   5.331   6.442  0.6645  1.0710  0.1654
 8049SOL     OW24956   1.891   4.920   1.263 -0.1301  0.1911 -0.2676
 8049SOL    HW124957   1.965   4.860   1.271  0.2803  0.0545 -3.5262
 8049SOL    HW224958   1.824   4.884   1.321  0.1900 -3.3794 -1.8118
 8050SOL     OW24959   2.225   3.857   0.188 -0.0182 -0.1304 -0.0333
 8050SOL    HW124960   2.261   3.771   0.165 -2.2593 -0.5527 -2.4432
 8050SOL    HW224961   2.135   3.855   0.156  0.3957  3.8033 -2.1124
 8051SOL     OW24962   7.050   5.689   7.464  0.0515  0.0604  0.4935
 8051SOL    HW124963   7.032   5.613   7.519  0.1308  1.2450  2.2470
 8051SOL    HW224964   6.965   5.733   7.457  0.5556  1.4008  2.0887
 8052SOL     OW24965   2.135   0.502   5.996  0.2456  0.3805 -0.2953
 8052SOL    HW124966   2.145   0.547   5.913  0.3658  0.2242 -0.3665
 8052SOL    HW224967   2.212   0.527   6.047  0.2209  0.3992 -0.2671
 8053SOL     OW24968   3.636   1.775   2.600 -0.1966  0.2204  0.2299
 8053SOL    HW124969   3.720   1.769   2.555  0.1563 -1.9269  1.0983
 8053SOL    HW224970   3.581   1.827   2.540  2.1332  3.0775  0.3673
 8054SOL     OW24971   1.437   6.305   6.180  0.0048 -0.3428 -0.7056
 8054SOL    HW124972   1.508   6.363   6.208 -1.7666  0.9442  1.4870
 8054SOL    HW224973   1.480   6.236   6.129  2.5558  1.3282 -0.9625
 8055SOL     OW24974   0.994   3.448   6.297 -0.6140 -0.0622 -0.1502
 8055SOL    HW124975   0.993   3.486   6.385  0.3884 -0.1111 -0.1074
 8055SOL    HW224976   0.921   3.385   6.297 -0.4628 -0.2504  0.7232
 8056SOL     OW24977   5.974   7.648   2.937  0.0486  0.4219 -0.1390
 8056SOL    HW124978   5.908   7.629   2.870  0.5712 -1.6337 -0.1156
 8056SOL    HW224979   5.981   7.744   2.936 -1.6942  0.5975 -1.3170
 8057SOL     OW24980   6.809   5.762   6.882 -0.1443 -0.1845  0.1462
 8057SOL    HW124981   6.846   5.703   6.948  2.2778  0.1872 -0.7961
 8057SOL    HW224982   6.870   5.758   6.809 -1.7059  0.9594 -1.2889
 8058SOL     OW24983   2.615   7.787   7.630 -0.6307  0.2107 -0.3300
 8058SOL    HW124984   2.544   7.785   7.694  0.0578  0.7393  0.4685
 8058SOL    HW224985   2.595   7.862   7.574 -0.4408  0.6749  0.2138
 8059SOL     OW24986   0.177   5.299   6.850  0.1499  0.0425 -0.6502
 8059SOL    HW124987   0.266   5.268   6.832  0.0577 -1.4855  1.2282
 8059SOL    HW224988   0.121   5.224   6.833 -0.5706  0.4401 -0.1042
 8060SOL     OW24989   0.033   6.211   6.394  0.1582  0.2025  0.2384
 8060SOL    HW124990   0.004   6.168   6.314  0.3681  1.0961 -0.3381
 8060SOL    HW224991   0.002   6.155   6.465 -2.5210  0.7876 -0.3536
 8061SOL     OW24992   6.164   4.820   7.033  0.6431  0.1305 -0.5481
 8061SOL    HW124993   6.186   4.911   7.013  1.3502 -0.1219 -0.9474
 8061SOL    HW224994   6.192   4.771   6.956 -0.4791 -0.3324 -0.6855
 8062SOL     OW24995   0.051   1.847   4.242  0.3485  0.5675 -0.2048
 8062SOL    HW124996   0.002   1.796   4.307 -1.2141  1.8253 -0.3351
 8062SOL    HW224997   0.056   1.935   4.280 -0.1801  1.1984 -1.5568
 8063SOL     OW24998   4.527   0.648   3.536 -0.4493 -0.9131  0.2938
 8063SOL    HW124999   4.510   0.742   3.526  0.3159 -0.8009  0.0192
 8063SOL    HW225000   4.492   0.626   3.622 -3.3282 -1.0039 -0.7624
 8064SOL     OW25001   7.944   7.037   5.321  0.7475  0.4061  0.0339
 8064SOL    HW125002   7.885   7.005   5.253  2.0187  0.6765 -1.2401
 8064SOL    HW225003   7.886   7.080   5.384 -0.5777 -0.8437 -0.2709
 8065SOL     OW25004   2.152   4.441   1.881  0.4855  0.2914 -0.2187
 8065SOL    HW125005   2.126   4.362   1.928  0.0181  0.0047 -0.9387
 8065SOL    HW225006   2.069   4.480   1.851  0.7338  0.8292 -0.2210
 8066SOL     OW25007   7.036   0.299   3.196  0.7276  0.3398  0.4007
 8066SOL    HW125008   7.004   0.270   3.111  0.9535  0.4256  0.2864
 8066SOL    HW225009   7.125   0.265   3.201  0.8399  0.6389  0.4529
 8067SOL     OW25010   5.288   7.397   3.929 -0.1683  0.3583  0.5264
 8067SOL    HW125011   5.223   7.467   3.923  1.7309  2.2767  0.8853
 8067SOL    HW225012   5.348   7.426   3.998  1.3047 -1.0890 -0.0651
 8068SOL     OW25013   1.455   2.594   1.393 -1.1021  0.2441 -0.4274
 8068SOL    HW125014   1.427   2.517   1.442 -2.6242  0.2022 -1.3286
 8068SOL    HW225015   1.455   2.665   1.457 -2.1503 -0.0015 -0.1484
 8069SOL     OW25016   0.316   0.195   4.766  0.5686 -0.6349  0.0819
 8069SOL    HW125017   0.292   0.194   4.673  0.1491 -0.9621  0.1956
 8069SOL    HW225018   0.258   0.260   4.805 -0.9215 -2.1935  0.5607
 8070SOL     OW25019   6.261   5.735   6.294 -0.1946 -0.2519 -0.0503
 8070SOL    HW125020   6.281   5.799   6.226  0.8956  1.6108  1.8816
 8070SOL    HW225021   6.169   5.752   6.316  0.2286  1.1354  0.8220
 8071SOL     OW25022   7.894   5.882   2.401  0.3359  0.6393  0.6457
 8071SOL    HW125023   7.941   5.839   2.473  0.2541 -2.0046 -0.7373
 8071SOL    HW225024   7.948   5.865   2.324 -0.9956  0.8558 -0.3690
 8072SOL     OW25025   5.129   7.134   1.992 -0.3592  0.3164  0.7137
 8072SOL    HW125026   5.179   7.057   1.965 -0.6011  0.6291 -0.6753
 8072SOL    HW225027   5.064   7.146   1.923 -1.5486  0.6763  1.8553
 8073SOL     OW25028   7.088   5.182   2.861 -0.1159  0.2196 -0.2211
 8073SOL    HW125029   7.043   5.097   2.858  0.7483 -0.2278 -1.4829
 8073SOL    HW225030   7.062   5.226   2.780 -1.9385  1.9491  1.2069
 8074SOL     OW25031   2.894   2.696   7.988  0.8187  0.2262  0.0819
 8074SOL    HW125032   2.819   2.669   7.934  0.0322  1.3457  0.5806
 8074SOL    HW225033   2.918   2.782   7.956  1.3082  0.2633  0.5291
 8075SOL     OW25034   6.133   0.131   0.008  0.0760  0.3436 -0.0779
 8075SOL    HW125035   6.127   0.063  -0.059 -3.3659 -1.9559  2.2320
 8075SOL    HW225036   6.219   0.118   0.048  1.0442 -0.0321 -2.1428
 8076SOL     OW25037   4.714   5.682   7.043 -0.0562  0.1045  0.3775
 8076SOL    HW125038   4.654   5.720   7.108  0.4426  0.0879  0.8537
 8076SOL    HW225039   4.669   5.603   7.013  0.1036 -0.3732  1.3676
 8077SOL     OW25040   1.202   3.174   6.293  0.2919 -0.3989  0.3116
 8077SOL    HW125041   1.144   3.184   6.369  0.2092  0.1688  0.1803
 8077SOL    HW225042   1.144   3.142   6.224  0.2634 -0.4392  0.3538
 8078SOL     OW25043   4.250   0.918   4.049 -0.0409  0.4071 -0.0571
 8078SOL    HW125044   4.182   0.856   4.075 -0.8524  1.1198 -0.4419
 8078SOL    HW225045   4.289   0.878   3.971  0.0987 -0.0752  0.2494
 8079SOL     OW25046   6.895   3.386   2.103  0.0048 -0.0364 -0.4835
 8079SOL    HW125047   6.947   3.358   2.179 -0.4033 -0.4661 -0.3585
 8079SOL    HW225048   6.913   3.321   2.036  0.7048  0.5860 -0.9115
 8080SOL     OW25049   3.975   5.089   2.556  0.1761  0.3269 -0.6047
 8080SOL    HW125050   3.888   5.054   2.576  0.1952  0.6831  0.1805
 8080SOL    HW225051   4.032   5.012   2.552 -0.1970  0.0790 -1.2713
 8081SOL     OW25052   3.570   4.988   4.244 -0.2248  0.3973 -0.0914
 8081SOL    HW125053   3.565   4.892   4.248  1.0199  0.3409  0.4262
 8081SOL    HW225054   3.536   5.009   4.157  0.3856 -0.5983 -0.5935
 8082SOL     OW25055   7.591   4.906   1.598  0.6809  0.0553 -0.2062
 8082SOL    HW125056   7.643   4.928   1.521 -0.4416  0.6158 -0.8339
 8082SOL    HW225057   7.560   4.990   1.630 -0.9086 -0.3278 -0.6427
 8083SOL     OW25058   1.717   3.597   1.505  0.2696 -0.5269 -0.2956
 8083SOL    HW125059   1.761   3.532   1.560  1.5046  0.5606  0.0495
 8083SOL    HW225060   1.736   3.570   1.416  1.3505 -0.2906 -0.1493
 8084SOL     OW25061   6.872   3.201   0.244  0.0981  0.2015 -0.4360
 8084SOL    HW125062   6.788   3.248   0.245  1.1057  2.1390 -0.9698
 8084SOL    HW225063   6.937   3.270   0.226  1.5851 -1.5658 -2.2770
 8085SOL     OW25064   2.509   7.580   5.646 -0.7281 -0.0631  0.1063
 8085SOL    HW125065   2.540   7.545   5.730 -1.4625  0.7882  0.7461
 8085SOL    HW225066   2.498   7.673   5.661 -1.3076  0.0309 -0.8113
 8086SOL     OW25067   3.951   4.754   1.819  0.0137 -0.0714 -0.3544
 8086SOL    HW125068   3.956   4.850   1.821 -3.1364  0.1844  1.4149
 8086SOL    HW225069   3.999   4.726   1.897 -0.8768  0.2393  0.3169
 8087SOL     OW25070   5.164   1.003   1.156  0.3832 -0.5787 -0.5281
 8087SOL    HW125071   5.257   1.020   1.174  0.1658  0.2569 -0.1462
 8087SOL    HW225072   5.118   1.059   1.218 -0.3809 -1.1800 -0.5463
 8088SOL     OW25073   7.312   2.019   4.407 -0.4096  0.2776 -0.1571
 8088SOL    HW125074   7.249   1.962   4.451  1.9534 -0.7667  2.1473
 8088SOL    HW225075   7.368   1.959   4.357 -0.4442  1.0375 -1.1305
 8089SOL     OW25076   6.988   7.116   6.512 -0.2821  0.0281  0.0948
 8089SOL    HW125077   7.081   7.125   6.493 -0.5884  1.8407 -0.8037
 8089SOL    HW225078   6.966   7.027   6.485  0.8887  0.0564 -1.0340
 8090SOL     OW25079   0.185   3.176   1.321  0.0101 -0.1116 -0.3250
 8090SOL    HW125080   0.090   3.171   1.313  0.1917 -1.9827 -2.0670
 8090SOL    HW225081   0.207   3.262   1.285 -1.0470  0.7430  0.9635
 8091SOL     OW25082   1.193   3.867   5.268  0.0002  1.4263 -0.3687
 8091SOL    HW125083   1.241   3.785   5.274 -0.0008  1.2462 -2.1363
 8091SOL    HW225084   1.108   3.843   5.231 -0.2713  2.1204 -0.2159
 8092SOL     OW25085   5.515   1.032   1.543  0.4335 -0.1923 -0.2706
 8092SOL    HW125086   5.450   0.980   1.589 -1.0944  2.6493  1.0787
 8092SOL    HW225087   5.599   0.994   1.569 -0.5681 -1.9866  0.5154
 8093SOL     OW25088   5.509   3.334   5.285 -0.4932 -0.3328  0.1042
 8093SOL    HW125089   5.586   3.372   5.243 -0.2790 -0.9198 -0.0477
 8093SOL    HW225090   5.452   3.308   5.211 -0.2678 -1.0556  0.1739
 8094SOL     OW25091   5.052   2.097   2.161 -0.4261  0.3863 -0.2508
 8094SOL    HW125092   4.995   2.055   2.097 -1.2317  0.8683  0.1341
 8094SOL    HW225093   4.995   2.157   2.209 -0.2611 -1.2390  2.1319
 8095SOL     OW25094   1.785   4.577   1.294  0.4827 -0.0578  0.7392
 8095SOL    HW125095   1.866   4.544   1.333 -0.5026 -1.4681  1.6866
 8095SOL    HW225096   1.760   4.652   1.348 -0.4048 -1.4628  2.3883
 8096SOL     OW25097   1.580   1.747   1.860  0.5993  0.0764  0.2373
 8096SOL    HW125098   1.633   1.667   1.857  1.9092  0.9473 -1.1108
 8096SOL    HW225099   1.528   1.745   1.780  0.0885  0.2314  0.5568
 8097SOL     OW25100   7.805   1.111   1.263  0.2255  0.2537 -0.1914
 8097SOL    HW125101   7.816   1.202   1.292  1.8471  0.6035 -1.7238
 8097SOL    HW225102   7.715   1.107   1.230 -0.3015  0.9210  1.1006
 8098SOL     OW25103   1.050   3.207   5.594  0.2147 -0.0887  0.8356
 8098SOL    HW125104   1.004   3.128   5.568  0.1653  0.1954  0.0272
 8098SOL    HW225105   1.016   3.227   5.681  0.9779 -1.5201  1.4964
 8099SOL     OW25106   7.689   3.979   2.735 -0.1184  0.0004  0.2785
 8099SOL    HW125107   7.783   3.977   2.754  0.0867 -2.0353 -0.7699
 8099SOL    HW225108   7.676   3.914   2.666 -2.1398  1.0637 -0.4291
 8100SOL     OW25109   4.120   5.447   0.302 -0.2194  0.1404  0.2393
 8100SOL    HW125110   4.131   5.518   0.239  1.7810  0.4391  0.8532
 8100SOL    HW225111   4.179   5.379   0.271 -1.7821 -1.1222 -0.0867
 8101SOL     OW25112   2.662   2.107   7.556  0.7061 -0.0200 -0.3549
 8101SOL    HW125113   2.697   2.019   7.542  0.4786 -0.3070  0.7626
 8101SOL    HW225114   2.657   2.115   7.652  1.7393  1.6184 -0.4076
 8102SOL     OW25115   2.449   3.764   1.035 -0.0331 -0.0806 -1.1488
 8102SOL    HW125116   2.531   3.801   1.067  1.4535 -1.7353 -2.8271
 8102SOL    HW225117   2.425   3.697   1.099  0.5160 -0.3274 -1.1978
 8103SOL     OW25118   1.682   6.891   7.068  0.4672 -0.8417  0.0860
 8103SOL    HW125119   1.601   6.937   7.046  0.6171 -1.0502 -0.9677
 8103SOL    HW225120   1.725   6.877   6.983  1.4599 -1.0001  0.6000
 8104SOL     OW25121   5.774   1.469   5.791 -0.1080 -0.1845 -0.0435
 8104SOL    HW125122   5.719   1.403   5.834  0.7048 -1.4249 -0.8567
 8104SOL    HW225123   5.846   1.483   5.852 -0.5962  0.4268  0.4057
 8105SOL     OW25124   6.428   7.351   3.659 -0.2568 -0.4861  0.1731
 8105SOL    HW125125   6.379   7.319   3.735 -3.3703 -0.1473 -1.5421
 8105SOL    HW225126   6.450   7.441   3.683 -1.5067 -0.2618  0.5951
 8106SOL     OW25127   6.703   5.733   2.358 -0.6295  0.0008  0.5038
 8106SOL    HW125128   6.629   5.773   2.312  0.4871  2.1300  0.4729
 8106SOL    HW225129   6.681   5.742   2.450 -1.1886 -0.9682  0.4790
 8107SOL     OW25130   2.194   6.455   4.723  0.2037  0.4514  0.1733
 8107SOL    HW125131   2.228   6.366   4.727  2.0226  1.1295  1.0084
 8107SOL    HW225132   2.100   6.445   4.716  0.2513 -1.5205  1.7352
 8108SOL     OW25133   3.582   7.201   4.551  0.1321  0.1200  0.0983
 8108SOL    HW125134   3.647   7.195   4.480  1.2617  1.3274  0.9788
 8108SOL    HW225135   3.635   7.208   4.630 -1.1070  0.2376  0.9364
 8109SOL     OW25136   3.229   1.818   6.147 -0.2015 -0.2138 -0.0597
 8109SOL    HW125137   3.189   1.784   6.227  1.5244  0.6542  1.2353
 8109SOL    HW225138   3.167   1.883   6.114 -0.6752 -0.1717  0.8862
 8110SOL     OW25139   6.125   1.787   1.692  0.4965 -0.3950 -0.1689
 8110SOL    HW125140   6.119   1.758   1.783 -2.3384  0.5399  0.0268
 8110SOL    HW225141   6.159   1.877   1.698 -0.9709  0.1612  0.1180
 8111SOL     OW25142   7.161   3.193   6.179  0.3236  0.0434  0.1133
 8111SOL    HW125143   7.253   3.198   6.207  0.7190 -1.5568 -0.7862
 8111SOL    HW225144   7.147   3.273   6.128  1.9364 -0.7674 -1.7145
 8112SOL     OW25145   7.847   0.004   0.924 -0.2403  0.0265 -0.3342
 8112SOL    HW125146   7.837  -0.047   1.005  0.8721 -2.2271 -1.5068
 8112SOL    HW225147   7.933   0.044   0.931  0.6452 -1.6571 -1.1150
 8113SOL     OW25148   3.698   5.941   2.597 -0.2988  0.6921 -0.5093
 8113SOL    HW125149   3.772   5.988   2.558 -0.8301  1.5171 -0.5517
 8113SOL    HW225150   3.621   5.979   2.555 -0.6987 -1.1776 -1.5625
 8114SOL     OW25151   7.954   0.354   5.891 -0.3876 -0.3280  0.2395
 8114SOL    HW125152   7.873   0.405   5.898 -0.3907 -0.4277  0.9743
 8114SOL    HW225153   8.007   0.382   5.965 -0.0744 -0.8359  0.2140
 8115SOL     OW25154   7.853   2.236   0.545 -0.2572  0.0786  0.7601
 8115SOL    HW125155   7.900   2.281   0.475 -1.6256 -0.0653 -0.2897
 8115SOL    HW225156   7.792   2.302   0.579 -0.7649 -0.3337  0.6687
 8116SOL     OW25157   5.378   6.096   0.585 -0.1039 -0.1893  0.0326
 8116SOL    HW125158   5.393   6.176   0.536 -1.2083 -0.3847 -0.6498
 8116SOL    HW225159   5.369   6.028   0.518 -0.1446 -0.7223  0.5680
 8117SOL     OW25160   1.107   1.507   7.137  0.4931 -0.3757 -0.4287
 8117SOL    HW125161   1.171   1.548   7.196  0.8333 -0.1282 -0.9647
 8117SOL    HW225162   1.066   1.581   7.092 -1.6294 -0.3646  1.3463
 8118SOL     OW25163   5.237   1.183   1.742  0.0770  0.1991  0.2322
 8118SOL    HW125164   5.172   1.231   1.794 -0.1309  1.2359 -0.9295
 8118SOL    HW225165   5.321   1.211   1.776 -0.0336 -1.3714  1.9474
 8119SOL     OW25166   5.388   7.615   2.192 -0.1648 -0.0561 -0.2496
 8119SOL    HW125167   5.301   7.575   2.184 -0.6357  1.0288 -0.6325
 8119SOL    HW225168   5.373   7.698   2.237  0.7727 -0.1641  0.2968
 8120SOL     OW25169   3.483   3.106   2.621 -0.5603  0.0626 -0.1810
 8120SOL    HW125170   3.542   3.157   2.678 -0.7344 -0.0288  0.0814
 8120SOL    HW225171   3.542   3.056   2.565 -0.3554 -1.3036  1.2009
 8121SOL     OW25172   7.991   3.732   4.062 -0.2345 -0.5430 -0.1793
 8121SOL    HW125173   8.009   3.765   3.974  0.1953 -2.0649 -0.6936
 8121SOL    HW225174   7.962   3.641   4.048  0.6251 -1.0727  1.2812
 8122SOL     OW25175   6.674   0.267   6.515  0.1451  0.0758  0.2435
 8122SOL    HW125176   6.598   0.301   6.468  0.9149  1.1241 -0.2960
 8122SOL    HW225177   6.732   0.234   6.445 -0.5978 -2.4874  0.7409
 8123SOL     OW25178   1.149   5.416   0.697  0.3507  0.6970  0.8154
 8123SOL    HW125179   1.124   5.377   0.613  0.5746 -0.6395  1.3511
 8123SOL    HW225180   1.066   5.436   0.739  0.2127  2.8420 -0.3412
 8124SOL     OW25181   3.744   2.984   5.779  0.2733 -0.2946 -0.3664
 8124SOL    HW125182   3.709   2.943   5.857 -0.5095  0.7172 -0.1610
 8124SOL    HW225183   3.839   2.973   5.786  0.2474  0.1910  0.9659
 8125SOL     OW25184   0.742   4.919   1.837 -0.0220 -0.5448 -0.0298
 8125SOL    HW125185   0.739   4.875   1.922 -1.2309 -0.7551 -0.1658
 8125SOL    HW225186   0.807   4.870   1.786  1.7553  0.4180  1.1932
 8126SOL     OW25187   1.036   2.247   4.414 -0.2867  0.2184  0.1088
 8126SOL    HW125188   1.078   2.189   4.351 -1.0002  1.4607 -1.5793
 8126SOL    HW225189   1.084   2.232   4.496  1.6474 -0.4069 -1.0694
 8127SOL     OW25190   0.655   6.545   5.884  0.0355  0.1308  0.1340
 8127SOL    HW125191   0.711   6.572   5.957 -0.7252 -3.2500  2.1706
 8127SOL    HW225192   0.592   6.484   5.923 -0.5134 -1.7629 -3.3327
 8128SOL     OW25193   6.515   4.419   0.538 -0.2764 -0.2005 -0.3411
 8128SOL    HW125194   6.528   4.412   0.444 -0.4231 -2.2900 -0.2483
 8128SOL    HW225195   6.420   4.428   0.548 -0.3017 -0.4274 -0.3740
 8129SOL     OW25196   4.227   2.835   1.620  0.2452  0.5336  0.0480
 8129SOL    HW125197   4.287   2.763   1.602 -1.1981 -0.6871 -0.0229
 8129SOL    HW225198   4.204   2.825   1.713 -1.6664 -0.4943 -0.4772
 8130SOL     OW25199   4.721   4.720   3.801  0.3588  0.0828  0.1320
 8130SOL    HW125200   4.750   4.716   3.892 -0.6494  1.8963  0.5720
 8130SOL    HW225201   4.671   4.801   3.795 -0.0433 -0.2651 -1.9201
 8131SOL     OW25202   5.015   4.005   4.301 -0.3198 -0.0879  0.2165
 8131SOL    HW125203   5.004   4.045   4.215  2.3019 -1.4943 -0.8529
 8131SOL    HW225204   4.962   3.925   4.297  0.4003 -0.5447 -0.3940
 8132SOL     OW25205   1.072   0.240   3.627 -0.0381  0.2380  0.2576
 8132SOL    HW125206   1.105   0.179   3.561  2.2013  1.1475  0.4584
 8132SOL    HW225207   1.100   0.326   3.596  1.3819  0.6591  2.5291
 8133SOL     OW25208   6.728   0.772   6.210 -0.4411  0.5807  0.1527
 8133SOL    HW125209   6.675   0.729   6.277 -0.1336 -2.7833 -1.5748
 8133SOL    HW225210   6.667   0.783   6.136 -0.5009  3.2827  0.5086
 8134SOL     OW25211   2.390   3.724   6.156 -0.0928 -0.0785 -0.5201
 8134SOL    HW125212   2.326   3.770   6.210 -0.6803  0.5091 -1.6616
 8134SOL    HW225213   2.397   3.778   6.077  2.1223  0.0792 -0.2758
 8135SOL     OW25214   3.993   3.517   3.673  0.2199 -0.2499 -0.2285
 8135SOL    HW125215   4.057   3.561   3.617 -1.0198  0.9218 -0.7944
 8135SOL    HW225216   4.044   3.487   3.748  1.6850 -0.7143 -1.3660
 8136SOL     OW25217   1.043   3.389   2.147 -0.0636 -0.4484 -0.4045
 8136SOL    HW125218   1.083   3.358   2.228 -2.6164  0.7324  1.4245
 8136SOL    HW225219   1.093   3.468   2.124 -0.5160  0.3163  1.1427
 8137SOL     OW25220   5.674   1.183   1.986  0.1638  0.0260 -0.4165
 8137SOL    HW125221   5.669   1.089   2.001 -0.2021  0.1470  0.2995
 8137SOL    HW225222   5.768   1.203   1.989  0.1945 -0.1839  0.3881
 8138SOL     OW25223   6.637   3.322   0.209 -0.3160  0.1567 -0.1562
 8138SOL    HW125224   6.559   3.267   0.206 -0.0112 -0.2443 -1.9664
 8138SOL    HW225225   6.657   3.340   0.118  1.4760  0.5941  0.2848
 8139SOL     OW25226   7.418   4.875   2.902 -0.1795 -0.8803  0.2696
 8139SOL    HW125227   7.459   4.882   2.988 -2.5272 -0.5755  1.4547
 8139SOL    HW225228   7.366   4.795   2.906  0.1895 -1.2182 -1.1267
 8140SOL     OW25229   5.602   5.986   3.784  0.3528 -0.3097 -0.4138
 8140SOL    HW125230   5.531   5.936   3.822 -1.0563  1.1348 -1.0427
 8140SOL    HW225231   5.620   6.056   3.846  1.0958 -0.5288 -0.3631
 8141SOL     OW25232   0.370   6.937   0.017  0.0607  0.1657 -0.9549
 8141SOL    HW125233   0.294   6.879   0.016 -0.2661  0.5803 -0.4141
 8141SOL    HW225234   0.429   6.897   0.082 -1.1600  1.6559  1.2112
 8142SOL     OW25235   0.667   6.613   7.228 -0.1599 -0.4432 -0.7716
 8142SOL    HW125236   0.666   6.553   7.153 -2.2450  0.8294 -1.8375
 8142SOL    HW225237   0.643   6.698   7.191  2.0475  0.9948  0.7997
 8143SOL     OW25238   2.110   0.165   0.636 -0.2532  0.5021  0.1994
 8143SOL    HW125239   2.138   0.256   0.637 -1.5384  0.9350  1.9936
 8143SOL    HW225240   2.157   0.126   0.562 -0.2910  2.7958 -1.1235
 8144SOL     OW25241   6.830   2.679   2.147  0.0166 -1.0354 -0.3683
 8144SOL    HW125242   6.737   2.668   2.167 -0.4144 -0.9228 -2.1811
 8144SOL    HW225243   6.838   2.659   2.054  1.7759 -0.7577 -0.3244
 8145SOL     OW25244   1.213   4.989   7.774  0.1083  0.3779 -0.1955
 8145SOL    HW125245   1.226   4.927   7.702 -1.3414 -0.3170  0.1013
 8145SOL    HW225246   1.121   4.978   7.798 -0.2233  2.7292 -0.1908
 8146SOL     OW25247   7.608   1.126   4.863  0.4962  0.4834  0.0652
 8146SOL    HW125248   7.532   1.083   4.901  1.3245 -0.2445  0.9439
 8146SOL    HW225249   7.594   1.219   4.880 -0.7774  0.4831 -0.8705
 8147SOL     OW25250   1.373   7.272   1.002 -0.4584 -0.4727  0.1323
 8147SOL    HW125251   1.309   7.341   0.982  0.1086 -0.6174 -2.6134
 8147SOL    HW225252   1.331   7.191   0.974  0.2708 -0.7822 -0.0854
 8148SOL     OW25253   1.175   5.524   4.729 -0.1763 -0.4221 -0.0277
 8148SOL    HW125254   1.107   5.545   4.665  0.4899  1.3444 -0.2131
 8148SOL    HW225255   1.207   5.437   4.703 -0.9618 -0.3847 -1.1650
 8149SOL     OW25256   4.517   2.387   3.500 -0.2645 -1.0153 -0.5774
 8149SOL    HW125257   4.566   2.329   3.559 -2.5426 -1.3112  1.1360
 8149SOL    HW225258   4.508   2.337   3.419  0.0710 -1.9792 -0.0391
 8150SOL     OW25259   4.979   6.062   5.178  0.2410  0.3903 -0.0009
 8150SOL    HW125260   4.959   6.149   5.145 -2.1047  0.6579  1.8026
 8150SOL    HW225261   5.038   6.078   5.252 -1.5240  0.7333  1.4286
 8151SOL     OW25262   7.825   5.507   4.134 -0.2453 -0.5885  0.2693
 8151SOL    HW125263   7.816   5.423   4.089 -1.5341 -0.4610  0.2566
 8151SOL    HW225264   7.871   5.486   4.215  1.5313 -0.9221 -0.7739
 8152SOL     OW25265   0.879   4.405   2.481  0.3273 -0.0016 -0.1785
 8152SOL    HW125266   0.974   4.396   2.478  0.5346  1.9119 -1.3667
 8152SOL    HW225267   0.847   4.337   2.422  1.0447 -0.0395 -0.5384
 8153SOL     OW25268   3.775   7.544   7.304  0.0033  0.4141  0.3232
 8153SOL    HW125269   3.780   7.562   7.398  1.1338  1.9382  0.0241
 8153SOL    HW225270   3.687   7.574   7.279  0.8060  3.1553  0.3878
 8154SOL     OW25271   2.384   5.782   3.154  0.4083  0.7524  0.0312
 8154SOL    HW125272   2.364   5.689   3.146  0.8205  0.8514 -4.1911
 8154SOL    HW225273   2.479   5.787   3.156  0.4874  1.0719 -2.1402
 8155SOL     OW25274   3.888   4.685   5.720  0.4189 -0.7295  0.7419
 8155SOL    HW125275   3.966   4.688   5.665 -0.5858  1.7502 -0.7196
 8155SOL    HW225276   3.846   4.770   5.707 -1.8459 -1.4593  2.5120
 8156SOL     OW25277   3.783   3.754   6.008 -0.3631  0.8228  0.1575
 8156SOL    HW125278   3.804   3.784   6.096 -1.5806  0.4079  0.6114
 8156SOL    HW225279   3.693   3.723   6.014 -0.2362  0.1430 -1.0719
 8157SOL     OW25280   5.581   0.133   1.998 -0.3411 -0.0970 -0.1335
 8157SOL    HW125281   5.536   0.104   2.077  0.4791  0.2060  0.4672
 8157SOL    HW225282   5.552   0.223   1.985  0.3658  0.2401  0.4911
 8158SOL     OW25283   4.120   5.001   5.746  0.0816  0.3955  0.1531
 8158SOL    HW125284   4.024   4.998   5.743  0.0514  1.3314 -0.1330
 8158SOL    HW225285   4.146   5.013   5.655  0.4567  0.5282  0.2767
 8159SOL     OW25286   3.108   6.035   3.453  0.3077  0.3560  0.4875
 8159SOL    HW125287   3.165   6.080   3.516 -1.1291 -0.0385  2.1565
 8159SOL    HW225288   3.096   6.097   3.382 -0.6573  2.1971  2.1670
 8160SOL     OW25289   3.660   2.493   0.450 -0.0933  0.4537  0.4390
 8160SOL    HW125290   3.620   2.527   0.369  1.3322  2.7641  0.6119
 8160SOL    HW225291   3.748   2.466   0.424 -0.0482  0.0548  0.9947
 8161SOL     OW25292   6.233   3.963   2.150 -0.5138 -0.2833 -0.4767
 8161SOL    HW125293   6.157   4.000   2.104  0.4978 -0.4662 -2.3690
 8161SOL    HW225294   6.270   3.900   2.089  1.2724 -0.0957  0.3524
 8162SOL     OW25295   2.374   7.359   5.537  0.0018  0.2585  0.2071
 8162SOL    HW125296   2.383   7.446   5.577  1.9302  0.5772 -0.8407
 8162SOL    HW225297   2.437   7.304   5.584  0.8563  0.1451 -1.0504
 8163SOL     OW25298   7.228   2.107   7.057  0.1901 -0.0192  0.0954
 8163SOL    HW125299   7.218   2.034   6.995  2.7598 -2.7401  2.5739
 8163SOL    HW225300   7.163   2.090   7.125  0.6748  0.0626  0.5872
 8164SOL     OW25301   4.565   6.141   4.544  0.6285  0.2744 -0.6454
 8164SOL    HW125302   4.532   6.072   4.601  2.0638  0.1201  0.0613
 8164SOL    HW225303   4.552   6.222   4.594  0.0150  0.3836 -0.9772
 8165SOL     OW25304   6.716   6.525   7.524 -0.0059 -0.0452 -0.2983
 8165SOL    HW125305   6.702   6.575   7.444  1.7765 -0.6368 -1.0171
 8165SOL    HW225306   6.756   6.443   7.496  0.4348 -0.3764  1.1745
 8166SOL     OW25307   0.117   4.442   6.476 -0.8232  0.0320 -0.0865
 8166SOL    HW125308   0.096   4.375   6.412  0.1835 -0.7688  0.3914
 8166SOL    HW225309   0.039   4.449   6.530 -0.7042 -1.2889  0.2997
 8167SOL     OW25310   3.525   6.663   4.006  0.5313  0.1761 -0.0466
 8167SOL    HW125311   3.538   6.752   3.973 -1.7821  0.3085 -0.7951
 8167SOL    HW225312   3.445   6.633   3.962  0.9302 -2.0602  0.6473
 8168SOL     OW25313   2.910   7.730   6.784  0.6306  0.3279 -0.6391
 8168SOL    HW125314   2.892   7.640   6.814  0.7953  0.9004  1.3416
 8168SOL    HW225315   3.004   7.741   6.798  0.4288  1.1412  0.1750
 8169SOL     OW25316   3.557   3.962   1.472  0.4958 -0.3901  0.1705
 8169SOL    HW125317   3.494   3.907   1.426 -0.2403  0.3848  0.2371
 8169SOL    HW225318   3.519   4.050   1.470  1.2572 -0.0312  0.7895
 8170SOL     OW25319   4.024   4.381   3.269  0.0886 -0.1954 -0.3755
 8170SOL    HW125320   4.049   4.322   3.199 -1.8578 -2.3378  0.6014
 8170SOL    HW225321   3.955   4.435   3.231 -2.3746 -2.6716  0.2731
 8171SOL     OW25322   3.515   3.047   1.069 -0.0246 -0.0333  0.4205
 8171SOL    HW125323   3.603   3.030   1.103  0.1956  1.6198  0.7728
 8171SOL    HW225324   3.458   3.042   1.146 -0.1547 -0.4030  0.3064
 8172SOL     OW25325   1.907   2.403   2.720 -0.4661 -0.4139  0.1354
 8172SOL    HW125326   1.877   2.312   2.712 -1.4170 -0.2443  1.5499
 8172SOL    HW225327   1.876   2.445   2.639 -0.9080 -1.0980 -0.0603
 8173SOL     OW25328   4.082   6.069   0.296 -0.2403  0.5314 -0.8710
 8173SOL    HW125329   4.080   5.987   0.344  2.5758  0.0154 -1.4604
 8173SOL    HW225330   3.990   6.089   0.278 -1.1841 -0.9306  1.7838
 8174SOL     OW25331   3.893   0.698   5.693  0.4097  0.1025  0.3620
 8174SOL    HW125332   3.826   0.671   5.756 -0.8657 -0.5278 -1.2093
 8174SOL    HW225333   3.965   0.637   5.708  0.0219 -0.1978  1.0438
 8175SOL     OW25334   0.879   0.704   5.596 -0.3863 -0.0400  0.3176
 8175SOL    HW125335   0.856   0.769   5.529  0.6071  2.4238  2.2433
 8175SOL    HW225336   0.965   0.672   5.570 -0.6184 -0.1778 -0.3069
 8176SOL     OW25337   2.817   2.308   3.742  0.3122 -0.1064  0.0531
 8176SOL    HW125338   2.840   2.350   3.825  0.7051  0.6674 -0.4317
 8176SOL    HW225339   2.734   2.264   3.760 -0.7529  1.8827  0.2857
 8177SOL     OW25340   2.894   4.527   5.631 -0.6173 -1.0956  0.3595
 8177SOL    HW125341   2.971   4.538   5.574 -1.8833 -2.2278 -1.6887
 8177SOL    HW225342   2.838   4.601   5.609 -0.4543 -0.6564  1.3535
 8178SOL     OW25343   2.197   1.131   6.940  0.0062 -0.1357 -0.1099
 8178SOL    HW125344   2.192   1.078   7.019  1.0081 -0.2560 -0.1152
 8178SOL    HW225345   2.286   1.116   6.906 -0.4705 -0.2327 -1.3601
 8179SOL     OW25346   1.696   5.540   5.060 -0.1157  0.2900 -0.0702
 8179SOL    HW125347   1.713   5.598   4.985  0.0682  1.2463  0.6915
 8179SOL    HW225348   1.625   5.583   5.107  0.3759  0.1565  0.7984
 8180SOL     OW25349   1.662   2.935   3.244 -0.7709 -0.2425  0.1904
 8180SOL    HW125350   1.680   3.012   3.191 -1.8125 -0.3963 -0.4333
 8180SOL    HW225351   1.684   2.861   3.188  0.0361 -0.4105  0.7134
 8181SOL     OW25352   2.021   3.776   1.118  0.0227  0.2232  0.3361
 8181SOL    HW125353   2.067   3.724   1.052  1.1894  0.5967  0.8282
 8181SOL    HW225354   2.016   3.719   1.194  0.8228  0.6279  0.6991
 8182SOL     OW25355   4.667   7.728   1.118  0.1997 -0.0962 -0.2260
 8182SOL    HW125356   4.739   7.755   1.175  0.3560 -0.3561 -0.2993
 8182SOL    HW225357   4.708   7.672   1.052  0.0295  0.2642 -0.6407
 8183SOL     OW25358   4.716   0.149   5.331 -0.2635 -0.0412  0.3596
 8183SOL    HW125359   4.645   0.212   5.344 -0.9971 -1.0278  1.3137
 8183SOL    HW225360   4.676   0.064   5.349  0.8942 -0.7210 -0.1744
 8184SOL     OW25361   0.382   4.850   7.843 -0.0368 -0.1871 -0.3841
 8184SOL    HW125362   0.297   4.854   7.886 -0.0764 -1.8312 -0.2497
 8184SOL    HW225363   0.397   4.939   7.812 -2.0665  0.0232 -0.9227
 8185SOL     OW25364   4.746   3.298   4.906 -0.1687  0.2898  0.7608
 8185SOL    HW125365   4.713   3.229   4.963  0.7773 -0.2011  0.7363
 8185SOL    HW225366   4.751   3.375   4.962  1.6620 -0.4138  1.6503
 8186SOL     OW25367   5.856   5.282   4.751  0.8091 -0.2753 -0.2480
 8186SOL    HW125368   5.883   5.374   4.753  1.8102 -0.5576  0.0955
 8186SOL    HW225369   5.800   5.275   4.674  1.0265  0.5449 -0.4945
 8187SOL     OW25370   0.435   4.631   0.331  0.1300  0.4043 -0.4385
 8187SOL    HW125371   0.446   4.688   0.407 -0.9514 -0.9122  0.7519
 8187SOL    HW225372   0.379   4.682   0.272 -0.7970  0.6146  0.5876
 8188SOL     OW25373   3.086   4.564   7.827 -0.1537  0.2409  0.8090
 8188SOL    HW125374   3.146   4.539   7.757 -0.7910  1.8943 -0.4047
 8188SOL    HW225375   3.112   4.654   7.849  0.6613 -0.5581  3.4277
 8189SOL     OW25376   6.344   3.637   0.647 -0.7075  0.5107  0.5156
 8189SOL    HW125377   6.266   3.585   0.627  0.2433 -1.4370  1.5835
 8189SOL    HW225378   6.326   3.723   0.609 -1.6754 -1.0074 -2.8266
 8190SOL     OW25379   2.044   2.944   0.862  0.0273  0.1375 -0.0005
 8190SOL    HW125380   2.137   2.958   0.874  0.1241 -0.1477 -0.3797
 8190SOL    HW225381   2.036   2.909   0.773 -0.3708 -0.4734  0.2638
 8191SOL     OW25382   0.496   0.065   4.588 -0.3613  0.3477  0.0656
 8191SOL    HW125383   0.428   0.092   4.649 -0.6755 -1.9266  0.8304
 8191SOL    HW225384   0.556   0.012   4.640 -0.1244 -0.8835 -1.3529
 8192SOL     OW25385   7.618   5.577   5.672 -0.5856  0.1039  0.3932
 8192SOL    HW125386   7.601   5.573   5.578  1.1630  0.6334  0.0196
 8192SOL    HW225387   7.690   5.515   5.686 -0.1529  0.7767  1.2129
 8193SOL     OW25388   0.826   5.442   6.598 -0.1389  0.2907  0.3983
 8193SOL    HW125389   0.762   5.372   6.586 -0.1186  0.2206  0.6746
 8193SOL    HW225390   0.874   5.417   6.678  1.2659 -0.4399 -0.6334
 8194SOL     OW25391   5.813   6.695   4.152 -0.1947  0.3682 -0.1447
 8194SOL    HW125392   5.879   6.755   4.116  0.9981  0.3969  1.8888
 8194SOL    HW225393   5.819   6.617   4.097 -0.0253  1.1779 -1.3230
 8195SOL     OW25394   5.463   6.564   7.576  0.0127 -0.3982  0.7018
 8195SOL    HW125395   5.501   6.595   7.493 -0.6124 -0.3662  0.4276
 8195SOL    HW225396   5.537   6.567   7.637  0.4789 -0.4038  0.1561
 8196SOL     OW25397   3.360   0.784   6.035  0.5387  0.2043 -0.1175
 8196SOL    HW125398   3.328   0.873   6.048  0.3485 -0.0169  0.9552
 8196SOL    HW225399   3.414   0.766   6.111  0.9414 -0.4451 -0.5460
 8197SOL     OW25400   7.968   5.372   7.588  0.3039  0.0023  0.3116
 8197SOL    HW125401   8.003   5.458   7.567 -0.6794  0.8397  1.8801
 8197SOL    HW225402   8.027   5.337   7.654  0.7696 -0.5941 -0.4106
 8198SOL     OW25403   5.606   2.115   3.386  0.0199 -0.4443  0.3260
 8198SOL    HW125404   5.545   2.080   3.450 -1.8224 -0.4798 -1.3435
 8198SOL    HW225405   5.553   2.172   3.331  1.8349  0.7286 -0.3059
 8199SOL     OW25406   2.519   5.257   7.412  0.3469  0.5608 -0.7543
 8199SOL    HW125407   2.578   5.187   7.438  2.6202  1.6854 -2.5008
 8199SOL    HW225408   2.574   5.335   7.409 -2.2752  2.7486  2.0339
 8200SOL     OW25409   4.044   1.159   4.635 -0.2059 -0.5120  0.1798
 8200SOL    HW125410   4.094   1.084   4.666  0.5828  0.0751  0.3667
 8200SOL    HW225411   4.077   1.176   4.547 -2.1043 -1.8757 -0.8725
 8201SOL     OW25412   1.754   2.298   7.312 -0.2095 -0.2052 -0.4395
 8201SOL    HW125413   1.699   2.253   7.249  0.3522 -1.0506 -0.3426
 8201SOL    HW225414   1.739   2.251   7.395  1.5218 -1.2229 -0.6583
 8202SOL     OW25415   5.619   6.736   3.473  0.0562  0.3590 -0.3633
 8202SOL    HW125416   5.535   6.703   3.505  0.3953  0.0692  0.2574
 8202SOL    HW225417   5.596   6.805   3.411 -0.6376  0.2629 -0.2204
 8203SOL     OW25418   3.987   4.075   7.650 -0.1254 -0.2490 -0.0509
 8203SOL    HW125419   4.048   4.006   7.624  0.4299 -0.6962  2.2247
 8203SOL    HW225420   3.901   4.033   7.646  0.0361 -0.5653 -0.2767
 8204SOL     OW25421   5.785   3.683   7.754  0.2586  0.5266  0.3194
 8204SOL    HW125422   5.766   3.743   7.826 -2.7808  0.1167 -0.0179
 8204SOL    HW225423   5.757   3.597   7.785 -0.3855  0.2186 -1.0291
 8205SOL     OW25424   1.327   6.252   0.453  0.3862 -0.3923  0.3638
 8205SOL    HW125425   1.315   6.190   0.381  0.0851  0.3929 -0.2767
 8205SOL    HW225426   1.303   6.203   0.531 -0.5334 -0.8778 -0.2107
 8206SOL     OW25427   1.595   7.214   0.829  0.6494  0.0391  0.3154
 8206SOL    HW125428   1.556   7.275   0.891  1.1996  0.6530  0.0621
 8206SOL    HW225429   1.539   7.137   0.833 -0.1030  0.5941  0.5662
 8207SOL     OW25430   1.276   3.407   5.869  0.0500 -0.1043 -0.1225
 8207SOL    HW125431   1.194   3.406   5.820 -0.6631 -1.0586  1.0411
 8207SOL    HW225432   1.323   3.330   5.837 -0.3060 -0.5836  0.4904
 8208SOL     OW25433   6.447   5.621   6.428 -0.0873  0.4726 -0.5389
 8208SOL    HW125434   6.383   5.667   6.375  1.9484  2.2472 -1.6097
 8208SOL    HW225435   6.472   5.684   6.496  1.5099  0.3733 -0.9981
 8209SOL     OW25436   7.069   6.504   5.908  0.0384  0.0089 -0.6692
 8209SOL    HW125437   7.096   6.416   5.937 -1.0038 -0.1004 -0.0000
 8209SOL    HW225438   6.976   6.495   5.889  0.3255  0.5164 -2.4333
 8210SOL     OW25439   0.384   7.566   7.811 -0.5428 -0.2250 -0.0289
 8210SOL    HW125440   0.334   7.647   7.801  1.0048  0.7804 -0.0764
 8210SOL    HW225441   0.330   7.510   7.867 -2.0204  0.4962 -0.6796
 8211SOL     OW25442   4.120   2.956   7.546 -0.2439 -0.0604  0.1533
 8211SOL    HW125443   4.088   2.872   7.578  0.0573  0.1667  1.0802
 8211SOL    HW225444   4.212   2.959   7.573  0.0396  0.1113 -0.8153
 8212SOL     OW25445   5.349   0.682   0.579 -0.4157  0.3431 -0.4048
 8212SOL    HW125446   5.410   0.640   0.639  0.3109  0.1897 -1.2361
 8212SOL    HW225447   5.390   0.766   0.558  0.7889 -0.7816 -2.9040
 8213SOL     OW25448   0.068   1.114   7.911 -0.0316 -0.0044 -0.0151
 8213SOL    HW125449  -0.012   1.083   7.954  0.9982  0.2542  2.2506
 8213SOL    HW225450   0.109   1.170   7.977  1.2467  1.1455 -1.7132
 8214SOL     OW25451   6.357   6.178   1.757  0.0899  0.0084 -0.3309
 8214SOL    HW125452   6.304   6.250   1.790  0.1067  0.6172 -1.5720
 8214SOL    HW225453   6.329   6.167   1.666  0.7247 -0.9642 -0.4285
 8215SOL     OW25454   1.736   5.944   0.586  0.1758 -0.1538 -0.3035
 8215SOL    HW125455   1.687   5.996   0.524 -0.0358  1.4994  1.1707
 8215SOL    HW225456   1.812   5.913   0.537 -0.4357  0.3451 -1.6011
 8216SOL     OW25457   6.661   6.763   6.507  0.4523 -0.0661 -0.0705
 8216SOL    HW125458   6.687   6.784   6.417  1.8072  1.1741  0.5773
 8216SOL    HW225459   6.628   6.673   6.502  0.0730  0.1352 -1.8795
 8217SOL     OW25460   5.799   2.055   6.929 -0.3188 -0.1571  0.1587
 8217SOL    HW125461   5.879   2.032   6.977  0.3670  1.9876  0.1263
 8217SOL    HW225462   5.738   2.084   6.997  0.2835  1.8446 -0.0870
 8218SOL     OW25463   2.612   5.196   2.155  0.5039 -0.0625  0.1238
 8218SOL    HW125464   2.544   5.222   2.217  1.6628 -0.1379  1.4773
 8218SOL    HW225465   2.654   5.120   2.196  0.5943 -0.8073 -1.2897
 8219SOL     OW25466   4.708   0.229   4.754 -0.1928  0.3699 -0.4056
 8219SOL    HW125467   4.669   0.149   4.788  1.2342  0.4247  1.5642
 8219SOL    HW225468   4.715   0.286   4.831  1.3236  1.3226 -1.1993
 8220SOL     OW25469   0.393   3.593   3.543  0.2726  0.1338  0.2059
 8220SOL    HW125470   0.434   3.672   3.578  1.1733  0.1780 -0.8898
 8220SOL    HW225471   0.328   3.625   3.480  0.9513  0.0248 -0.5757
 8221SOL     OW25472   4.155   4.422   5.826 -0.2346 -0.0125 -0.3599
 8221SOL    HW125473   4.200   4.483   5.767 -1.4393  0.5676 -0.7060
 8221SOL    HW225474   4.082   4.389   5.775 -0.4151 -0.6771  0.3152
 8222SOL     OW25475   0.417   2.836   1.869 -0.1500 -0.3610 -0.1226
 8222SOL    HW125476   0.363   2.785   1.929  2.3714 -1.0925  1.6954
 8222SOL    HW225477   0.506   2.803   1.883  1.1270  2.2921 -1.2931
 8223SOL     OW25478   5.749   5.481   7.711 -0.2159  0.1314 -0.1021
 8223SOL    HW125479   5.790   5.396   7.697  1.7165  0.5524  2.2914
 8223SOL    HW225480   5.822   5.541   7.722 -1.4880  1.4994  1.3813
 8224SOL     OW25481   6.668   1.365   5.030  0.1149 -0.1079 -0.3308
 8224SOL    HW125482   6.692   1.433   5.093 -2.2477 -0.5162  1.1304
 8224SOL    HW225483   6.629   1.413   4.957  2.8737  0.3689 -1.6256
 8225SOL     OW25484   3.899   3.607   4.902 -0.2249  0.6387  0.7229
 8225SOL    HW125485   3.824   3.551   4.884 -0.2770  0.5706  1.1480
 8225SOL    HW225486   3.886   3.638   4.992  0.2876  0.5759  0.8244
 8226SOL     OW25487   7.195   2.315   0.074  0.1998  0.3252 -0.6102
 8226SOL    HW125488   7.284   2.283   0.064  0.0508 -0.8573  1.2809
 8226SOL    HW225489   7.206   2.407   0.099  0.7861  0.7269 -2.2449
 8227SOL     OW25490   5.384   3.796   6.130 -0.4359 -0.3818  0.0443
 8227SOL    HW125491   5.322   3.795   6.203  0.8078 -0.9180  1.1406
 8227SOL    HW225492   5.357   3.870   6.076 -0.0301  1.4795  2.2623
 8228SOL     OW25493   0.272   5.101   5.008 -0.4082  0.0575  0.3260
 8228SOL    HW125494   0.280   5.191   4.979  0.1617 -0.7020 -2.0782
 8228SOL    HW225495   0.180   5.078   4.990  0.0440 -0.5381 -1.4643
 8229SOL     OW25496   2.905   4.250   1.206 -0.2751 -0.7272  0.0826
 8229SOL    HW125497   2.905   4.198   1.125 -2.1775 -0.0204 -0.4122
 8229SOL    HW225498   2.975   4.314   1.192  1.0048 -2.0740  0.0256
 8230SOL     OW25499   3.309   0.506   7.724  0.1470 -0.3151 -0.1484
 8230SOL    HW125500   3.393   0.462   7.728  1.3683  1.9818  2.6092
 8230SOL    HW225501   3.261   0.475   7.801  0.0698  1.2883  0.4816
 8231SOL     OW25502   0.927   5.773   5.615  0.4336  0.0901  0.4132
 8231SOL    HW125503   1.000   5.827   5.646  0.4192  0.5528 -0.3494
 8231SOL    HW225504   0.885   5.742   5.696  1.0964  0.3235  0.8582
 8232SOL     OW25505   7.920   7.338   5.022  0.1006 -0.0753  0.4128
 8232SOL    HW125506   7.857   7.406   5.047  0.9229  1.5601 -1.6871
 8232SOL    HW225507   7.965   7.315   5.103 -0.8330  1.1998  1.3235
 8233SOL     OW25508   7.362   4.986   0.387  0.1029  0.1568  0.0763
 8233SOL    HW125509   7.369   5.082   0.393 -0.7795  0.1294  1.8666
 8233SOL    HW225510   7.436   4.961   0.331 -0.5997  2.0050 -1.8161
 8234SOL     OW25511   4.843   7.531   1.037 -0.3081  0.2045 -0.1035
 8234SOL    HW125512   4.916   7.578   1.075  0.1748 -0.8687  0.3190
 8234SOL    HW225513   4.883   7.471   0.973 -0.7296 -0.8798  0.6204
 8235SOL     OW25514   4.756   6.061   6.047  0.4078  0.5857 -0.2666
 8235SOL    HW125515   4.716   6.148   6.045 -0.9324 -0.0055 -1.7822
 8235SOL    HW225516   4.690   6.003   6.009  2.3161 -0.6144 -2.0274
 8236SOL     OW25517   2.066   2.643   7.366 -0.4755 -0.0650 -0.0502
 8236SOL    HW125518   2.006   2.586   7.318 -0.9693  0.6755 -0.3155
 8236SOL    HW225519   2.088   2.712   7.305  1.6356 -0.9641 -0.3935
 8237SOL     OW25520   3.131   7.899   7.087 -0.3190 -0.3328  0.0278
 8237SOL    HW125521   3.165   7.979   7.046  2.3593 -1.5892 -0.4419
 8237SOL    HW225522   3.191   7.882   7.159 -1.3460 -1.4729  0.6351
 8238SOL     OW25523   2.815   1.096   0.745  0.1254  0.0435 -0.2824
 8238SOL    HW125524   2.860   1.152   0.682  1.3009  1.0460  1.3447
 8238SOL    HW225525   2.722   1.113   0.730  0.3766  0.3482 -1.6321
 8239SOL     OW25526   4.724   3.106   1.138 -0.1285 -0.7313 -0.0457
 8239SOL    HW125527   4.727   3.126   1.044 -1.1326 -1.1780 -0.1820
 8239SOL    HW225528   4.813   3.124   1.169 -0.0096  0.2731 -0.9074
 8240SOL     OW25529   0.619   0.051   1.147 -0.3370  0.9419  0.7277
 8240SOL    HW125530   0.640   0.138   1.114  1.6226  0.3850  0.3656
 8240SOL    HW225531   0.698   0.023   1.194  0.1528 -1.6367 -1.3691
 8241SOL     OW25532   7.342   6.990   4.251 -0.0796 -0.3469  0.3732
 8241SOL    HW125533   7.352   7.073   4.204 -0.2132 -0.2459  0.5236
 8241SOL    HW225534   7.258   6.997   4.297  0.1404 -0.3637  0.7876
 8242SOL     OW25535   3.309   1.494   1.649 -0.2304  0.2897  0.0216
 8242SOL    HW125536   3.316   1.426   1.583 -0.4708 -0.8629  1.1486
 8242SOL    HW225537   3.232   1.544   1.624 -1.8958 -1.7288  0.8160
 8243SOL     OW25538   0.661   1.490   3.909 -0.6452  0.0007 -0.2384
 8243SOL    HW125539   0.609   1.538   3.844 -0.2444  2.9170  1.4458
 8243SOL    HW225540   0.743   1.470   3.864 -0.5924  1.4744 -0.8573
 8244SOL     OW25541   3.846   2.256   2.484 -0.3000  0.1597 -0.9064
 8244SOL    HW125542   3.818   2.335   2.531 -0.8872 -1.0646  0.9242
 8244SOL    HW225543   3.769   2.200   2.485  0.7276 -1.2886 -0.2438
 8245SOL     OW25544   6.226   5.054   4.833  0.5284 -0.5814 -0.2961
 8245SOL    HW125545   6.167   4.980   4.813  0.1003 -0.5224  0.7248
 8245SOL    HW225546   6.269   5.029   4.914  3.7578 -1.7178 -2.1451
 8246SOL     OW25547   2.358   0.315   4.931  0.3987 -0.0097  0.2552
 8246SOL    HW125548   2.395   0.340   5.016  1.8897 -0.8459 -0.1073
 8246SOL    HW225549   2.273   0.278   4.952  0.0929  1.1777  1.2262
 8247SOL     OW25550   0.584   2.406   6.829 -0.1891 -0.1829 -0.4655
 8247SOL    HW125551   0.610   2.478   6.886 -0.3393  0.6264 -1.3940
 8247SOL    HW225552   0.575   2.331   6.888 -0.5839  0.6819  0.6125
 8248SOL     OW25553   3.279   5.366   6.681 -0.1296 -0.4491 -0.3908
 8248SOL    HW125554   3.327   5.294   6.722 -3.4103 -2.2891  0.5530
 8248SOL    HW225555   3.310   5.367   6.591  2.3308 -0.8063  0.3687
 8249SOL     OW25556   3.822   1.867   3.891  0.2723 -0.1035 -0.1627
 8249SOL    HW125557   3.885   1.897   3.825 -0.4977 -1.4075 -1.5564
 8249SOL    HW225558   3.769   1.944   3.910 -0.3358  0.0239 -2.0925
 8250SOL     OW25559   0.217   1.048   1.586 -0.4424 -0.3701  0.3884
 8250SOL    HW125560   0.206   0.967   1.635 -1.0444 -0.8179 -0.4679
 8250SOL    HW225561   0.238   1.020   1.497  2.1366  0.4152  0.6516
 8251SOL     OW25562   5.370   1.301   3.918  0.3076  0.0953 -0.0668
 8251SOL    HW125563   5.410   1.277   3.835 -0.5461 -0.3624 -0.3573
 8251SOL    HW225564   5.327   1.221   3.948  0.2514  0.3696  0.6106
 8252SOL     OW25565   2.971   6.828   7.618 -0.3625 -0.1258 -0.0084
 8252SOL    HW125566   2.899   6.777   7.579 -0.6657  0.2284  0.0749
 8252SOL    HW225567   2.980   6.903   7.560  1.2458 -1.1064 -1.1241
 8253SOL     OW25568   7.251   4.673   2.902  0.4396 -0.1584  0.1743
 8253SOL    HW125569   7.156   4.678   2.910  0.4545  0.3065  0.1248
 8253SOL    HW225570   7.270   4.580   2.890 -0.1752 -0.0740 -1.7853
 8254SOL     OW25571   4.991   6.504   7.846 -0.0305  0.4821  0.1537
 8254SOL    HW125572   5.005   6.594   7.874  1.1945 -0.0256  1.3091
 8254SOL    HW225573   5.015   6.503   7.753  0.0125  1.3230  0.1526
 8255SOL     OW25574   6.359   5.381   0.566  0.6281 -0.2693  0.4071
 8255SOL    HW125575   6.442   5.426   0.553  0.0759  0.5538 -0.3511
 8255SOL    HW225576   6.346   5.329   0.487 -0.0970  0.4749  0.0146
 8256SOL     OW25577   7.647   1.938   0.030  0.6247 -0.3003  0.2770
 8256SOL    HW125578   7.702   1.988   0.090  1.9732 -0.7966 -0.4877
 8256SOL    HW225579   7.618   1.863   0.081  0.6755 -0.0358  0.6953
 8257SOL     OW25580   4.685   2.650   1.686  0.2032 -0.7040  0.0984
 8257SOL    HW125581   4.649   2.625   1.601  1.7166 -0.2534 -0.7248
 8257SOL    HW225582   4.770   2.604   1.689  0.4464 -0.2079  1.0885
 8258SOL     OW25583   7.173   4.174   6.086 -0.6362 -0.3778  0.3095
 8258SOL    HW125584   7.156   4.124   6.006 -1.6753 -0.1345  0.3741
 8258SOL    HW225585   7.194   4.107   6.151  2.1447 -0.4983 -0.5832
 8259SOL     OW25586   2.713   3.320   0.687  0.0609 -0.3452 -0.5341
 8259SOL    HW125587   2.733   3.232   0.654 -1.6238 -0.1207 -2.3797
 8259SOL    HW225588   2.700   3.308   0.781  1.4175 -1.7464 -0.4856
 8260SOL     OW25589   6.330   2.378   1.742 -0.3777  0.8556  0.0764
 8260SOL    HW125590   6.298   2.466   1.723 -1.5683  0.5243  0.4607
 8260SOL    HW225591   6.251   2.323   1.741  0.3160 -0.1643  0.0861
 8261SOL     OW25592   3.587   3.616   2.464 -0.4579  0.5005 -0.3823
 8261SOL    HW125593   3.495   3.590   2.459 -0.8485  1.6465  0.4366
 8261SOL    HW225594   3.611   3.603   2.555  0.5842 -0.9761 -0.8341
 8262SOL     OW25595   6.232   4.233   5.647  0.2115  0.0715 -0.2999
 8262SOL    HW125596   6.282   4.219   5.567  1.9486  0.9115  0.5640
 8262SOL    HW225597   6.158   4.288   5.620 -0.0629 -0.8667 -1.5525
 8263SOL     OW25598   7.551   7.378   1.083 -0.0294  0.0244 -0.1990
 8263SOL    HW125599   7.566   7.303   1.141 -0.2051  0.6320  0.6359
 8263SOL    HW225600   7.459   7.370   1.058  0.1998 -0.5755 -0.8893
 8264SOL     OW25601   7.068   2.800   1.669 -0.3460 -0.0901  0.1284
 8264SOL    HW125602   7.136   2.829   1.608  0.3464 -0.6987  0.5932
 8264SOL    HW225603   7.115   2.749   1.735 -1.1671  0.0282  0.8303
 8265SOL     OW25604   5.174   1.766   2.919  0.2039 -0.1569  0.4262
 8265SOL    HW125605   5.247   1.803   2.969 -0.5750 -0.8529  2.1686
 8265SOL    HW225606   5.105   1.754   2.984 -0.5068 -2.1044 -0.6180
 8266SOL     OW25607   3.547   6.498   4.336 -0.0698  0.0362 -0.5163
 8266SOL    HW125608   3.472   6.466   4.387 -0.6524  1.4822 -0.4223
 8266SOL    HW225609   3.607   6.533   4.402  1.0383 -1.7252 -0.5334
 8267SOL     OW25610   2.603   2.122   7.267 -0.6435  0.6014 -0.4869
 8267SOL    HW125611   2.520   2.075   7.278 -0.3292  0.1795  0.1364
 8267SOL    HW225612   2.643   2.121   7.354  1.4431 -1.9209 -1.3577
 8268SOL     OW25613   7.962   0.433   3.598  0.1608  0.2512  0.1790
 8268SOL    HW125614   8.031   0.379   3.561 -1.5554 -2.8906  1.2159
 8268SOL    HW225615   8.007   0.495   3.655  2.2105 -0.3265 -0.7239
 8269SOL     OW25616   5.086   1.987   4.260 -0.1645  1.0513  0.2477
 8269SOL    HW125617   5.118   1.931   4.189 -0.5720  0.5937  0.4193
 8269SOL    HW225618   5.092   2.076   4.226 -1.2197  0.7764 -0.7154
 8270SOL     OW25619   0.867   6.218   7.117  0.4792 -0.0125 -0.6605
 8270SOL    HW125620   0.815   6.290   7.151  1.8983  1.9143 -2.3138
 8270SOL    HW225621   0.816   6.184   7.043 -0.0308 -0.4849 -0.0964
 8271SOL     OW25622   4.182   0.836   3.572 -0.1732  0.0832 -0.3538
 8271SOL    HW125623   4.091   0.860   3.554 -0.5864 -0.4923  0.8970
 8271SOL    HW225624   4.191   0.748   3.534 -0.9919 -1.0535  1.9467
 8272SOL     OW25625   7.010   5.011   1.473 -0.5307 -0.2220 -0.2577
 8272SOL    HW125626   6.953   4.934   1.481  0.0581 -0.6090  0.2446
 8272SOL    HW225627   6.952   5.085   1.489 -0.9719 -0.5913 -0.1170
 8273SOL     OW25628   2.157   1.429   1.847  0.0022  0.1670 -0.1997
 8273SOL    HW125629   2.096   1.503   1.848  0.1225  0.2662  0.1779
 8273SOL    HW225630   2.224   1.452   1.912  1.3477  0.7973 -1.7519
 8274SOL     OW25631   2.347   2.200   0.469 -0.7532 -0.1683  0.1797
 8274SOL    HW125632   2.332   2.289   0.501 -0.1443 -0.4609  1.3360
 8274SOL    HW225633   2.341   2.207   0.373 -2.0838  0.8407  0.3213
 8275SOL     OW25634   6.610   5.272   4.279  0.2724 -0.5927  0.0338
 8275SOL    HW125635   6.675   5.331   4.317  0.7163 -1.6432  0.9678
 8275SOL    HW225636   6.565   5.233   4.354 -2.0572  0.7036 -0.5837
 8276SOL     OW25637   7.608   5.614   0.544 -0.1703 -0.0976  0.4572
 8276SOL    HW125638   7.643   5.532   0.508 -0.0758 -0.6579  1.7646
 8276SOL    HW225639   7.513   5.602   0.544 -0.2326  0.3049 -0.4972
 8277SOL     OW25640   0.943   4.815   1.678  0.2248  0.3556  0.2727
 8277SOL    HW125641   1.036   4.793   1.688 -0.4859 -4.3709 -1.1463
 8277SOL    HW225642   0.935   4.844   1.587  0.0427 -1.9619 -0.5159
 8278SOL     OW25643   4.455   5.226   5.227 -0.1442  0.1044 -0.4131
 8278SOL    HW125644   4.413   5.306   5.195  0.9691  1.3586  1.1065
 8278SOL    HW225645   4.503   5.192   5.151 -1.7556  0.0583 -1.4645
 8279SOL     OW25646   3.960   5.532   0.512 -0.2459 -0.1667  0.3215
 8279SOL    HW125647   4.036   5.487   0.476  0.8973  1.0677  1.0881
 8279SOL    HW225648   3.986   5.558   0.600 -0.2549  3.1911 -0.5292
 8280SOL     OW25649   3.903   3.651   0.721 -0.4025 -0.0147  0.2061
 8280SOL    HW125650   3.937   3.737   0.746  0.4175  0.0715 -1.0985
 8280SOL    HW225651   3.930   3.593   0.792 -0.3510  0.6669  0.7548
 8281SOL     OW25652   6.048   6.146   3.380 -0.2581 -0.0717 -0.1781
 8281SOL    HW125653   6.088   6.060   3.366  2.3296  1.0750 -0.4156
 8281SOL    HW225654   6.083   6.175   3.464  0.0014  1.3027 -0.7377
 8282SOL     OW25655   3.108   1.674   1.514 -0.2745 -0.0879  0.0508
 8282SOL    HW125656   3.096   1.610   1.444  1.0671 -0.6483  0.3188
 8282SOL    HW225657   3.107   1.759   1.469  0.3028 -0.4268 -0.6119
 8283SOL     OW25658   2.039   0.572   3.142 -0.0066 -0.0483  0.0487
 8283SOL    HW125659   1.960   0.602   3.096 -1.0044 -1.6371  0.6194
 8283SOL    HW225660   2.102   0.553   3.072 -0.1701  1.0817 -0.4254
 8284SOL     OW25661   7.131   6.295   7.237 -0.2019  0.7227 -0.2123
 8284SOL    HW125662   7.127   6.292   7.141  0.4544  0.7297 -0.2423
 8284SOL    HW225663   7.040   6.311   7.264 -0.1777  2.1219 -0.8827
 8285SOL     OW25664   4.696   5.552   2.946  0.5889 -0.0735  0.0379
 8285SOL    HW125665   4.699   5.580   3.037  1.0744  0.9768 -0.2850
 8285SOL    HW225666   4.604   5.559   2.921  0.6327  0.8494  0.0963
 8286SOL     OW25667   1.383   0.930   3.589  0.2218 -0.4686 -0.2004
 8286SOL    HW125668   1.448   0.860   3.597  0.5739 -0.2132 -0.7392
 8286SOL    HW225669   1.423   0.993   3.529 -0.1770  0.0990  0.1201
 8287SOL     OW25670   0.180   6.121   3.949  0.3812  0.3810 -0.1260
 8287SOL    HW125671   0.259   6.070   3.971  0.3724 -0.2461 -1.4363
 8287SOL    HW225672   0.213   6.199   3.905  0.3978  1.6246  1.9529
 8288SOL     OW25673   3.400   3.408   3.675  0.4916  0.4881 -0.0386
 8288SOL    HW125674   3.349   3.486   3.695 -1.9300 -0.8836 -0.3712
 8288SOL    HW225675   3.419   3.415   3.582  0.0426  0.5657 -0.1264
 8289SOL     OW25676   3.344   7.030   5.234  0.3064  0.1175  0.6477
 8289SOL    HW125677   3.314   7.054   5.322 -0.8331 -0.4686  0.4369
 8289SOL    HW225678   3.433   7.065   5.229 -0.0937  1.3397  1.5421
 8290SOL     OW25679   5.053   5.338   0.976 -0.0124  0.2796  0.2799
 8290SOL    HW125680   4.999   5.357   1.053 -0.4351 -0.9002  0.2967
 8290SOL    HW225681   5.140   5.367   1.000  0.2546 -1.6144  1.9092
 8291SOL     OW25682   6.983   0.950   1.315 -0.1170  0.0379 -0.0012
 8291SOL    HW125683   7.059   0.920   1.265 -0.4026  1.6031 -1.5005
 8291SOL    HW225684   6.917   0.967   1.248 -0.8409  1.3288  1.0086
 8292SOL     OW25685   6.966   5.073   4.653 -0.2332 -0.0250  0.0873
 8292SOL    HW125686   7.041   5.123   4.621  0.4549 -0.7582  0.5049
 8292SOL    HW225687   6.911   5.137   4.697  0.9564  0.2885  1.1825
 8293SOL     OW25688   3.217   0.494   3.373  0.2644 -0.7694 -0.4026
 8293SOL    HW125689   3.211   0.464   3.463  1.5716 -0.9126 -0.3461
 8293SOL    HW225690   3.256   0.582   3.380  0.9882 -1.0481 -0.8578
 8294SOL     OW25691   2.264   7.887   4.012 -0.1429 -0.0260 -0.5488
 8294SOL    HW125692   2.218   7.970   4.023 -1.3203 -0.5371 -1.2966
 8294SOL    HW225693   2.220   7.846   3.937  1.9704 -0.2899 -1.7216
 8295SOL     OW25694   2.793   1.887   3.303  0.3842 -0.2691  0.1957
 8295SOL    HW125695   2.878   1.919   3.272 -0.0907  1.3109  0.4058
 8295SOL    HW225696   2.808   1.866   3.395  0.4238  0.5606  0.3870
 8296SOL     OW25697   4.018   4.284   5.067  0.3491 -0.0861  0.0397
 8296SOL    HW125698   4.007   4.189   5.071 -0.3983  0.0480  2.0232
 8296SOL    HW225699   4.063   4.307   5.148  0.5786  1.2633 -0.4373
 8297SOL     OW25700   1.183   4.199   0.949 -0.0758 -0.0774 -0.1686
 8297SOL    HW125701   1.105   4.233   0.904  1.0846  0.4126 -1.9195
 8297SOL    HW225702   1.242   4.274   0.954  0.6794 -0.6815  0.1939
 8298SOL     OW25703   2.514   1.714   2.605 -1.1181 -0.1529 -0.0631
 8298SOL    HW125704   2.506   1.646   2.537 -0.9713  1.9647 -2.3396
 8298SOL    HW225705   2.602   1.702   2.640 -0.6665 -0.4552 -1.2351
 8299SOL     OW25706   5.091   3.101   2.710  0.9839 -0.9249 -0.0683
 8299SOL    HW125707   5.174   3.142   2.688  1.3527  0.0317  2.7771
 8299SOL    HW225708   5.025   3.156   2.667  1.6393  0.7493  0.9998
 8300SOL     OW25709   1.052   2.608   2.901 -0.5378 -0.3245  0.2802
 8300SOL    HW125710   1.056   2.520   2.863  2.2194  0.7030 -2.2428
 8300SOL    HW225711   1.086   2.597   2.990 -0.0947 -1.8123 -0.0449
 8301SOL     OW25712   7.470   1.782   1.605 -0.1455  0.1538 -0.4316
 8301SOL    HW125713   7.401   1.848   1.596 -2.3274 -1.9920 -0.6470
 8301SOL    HW225714   7.459   1.749   1.694 -0.8283 -1.6291 -1.1379
 8302SOL     OW25715   6.783   4.910   0.778  0.3562 -0.5897  0.5391
 8302SOL    HW125716   6.832   4.963   0.840  0.9809 -0.7855  0.2201
 8302SOL    HW225717   6.812   4.820   0.795  1.7141 -0.4899 -1.0735
 8303SOL     OW25718   0.916   5.691   0.534 -0.0702  0.1180 -1.1005
 8303SOL    HW125719   0.867   5.773   0.522 -1.9784 -0.9813 -1.1914
 8303SOL    HW225720   0.891   5.637   0.459  1.1399 -0.5803 -1.0205
 8304SOL     OW25721   3.224   4.829   2.137 -0.0354 -0.5235  0.4167
 8304SOL    HW125722   3.147   4.885   2.139  0.3274  0.1255 -1.5916
 8304SOL    HW225723   3.191   4.741   2.157 -1.1311 -0.1016  0.5074
 8305SOL     OW25724   7.436   7.220   0.193 -0.4096  0.4276  0.6053
 8305SOL    HW125725   7.522   7.224   0.234  0.2641 -0.5247 -0.6679
 8305SOL    HW225726   7.429   7.303   0.145  0.7641 -0.3829 -1.0721
 8306SOL     OW25727   6.536   3.377   6.331  0.1341 -0.3355  0.3477
 8306SOL    HW125728   6.600   3.447   6.317  0.2009 -0.4175  0.2489
 8306SOL    HW225729   6.550   3.350   6.422  0.0644 -0.1757  0.4065
 8307SOL     OW25730   7.809   3.390   1.234  0.2488 -0.1768  0.0652
 8307SOL    HW125731   7.789   3.409   1.143  0.3989  0.1406  0.1000
 8307SOL    HW225732   7.856   3.466   1.266  1.1901 -0.7548  0.0924
 8308SOL     OW25733   2.079   2.820   3.045 -0.0205 -0.1905  0.1690
 8308SOL    HW125734   2.009   2.869   3.002 -2.2290 -1.6104  1.8619
 8308SOL    HW225735   2.101   2.873   3.122 -2.1573 -1.5132  1.8048
 8309SOL     OW25736   6.451   0.551   7.566 -0.0963  0.2424  0.4021
 8309SOL    HW125737   6.468   0.574   7.658 -0.6217  1.2254  0.2587
 8309SOL    HW225738   6.380   0.487   7.571 -1.2097  1.4567  0.6186
 8310SOL     OW25739   7.939   1.556   4.324  0.1647  0.4263 -0.1181
 8310SOL    HW125740   7.988   1.526   4.247 -0.3555  1.8223 -1.0399
 8310SOL    HW225741   7.847   1.546   4.299 -0.0828 -1.5727  1.3577
 8311SOL     OW25742   3.075   5.819   4.864 -0.2387  0.0596  0.2634
 8311SOL    HW125743   3.031   5.779   4.789 -2.6093  0.2035  1.4708
 8311SOL    HW225744   3.010   5.880   4.900  0.9773  0.3283  2.1423
 8312SOL     OW25745   5.540   2.750   7.445 -0.0359 -0.7823  0.1465
 8312SOL    HW125746   5.505   2.791   7.365  2.0669 -0.4533 -0.6801
 8312SOL    HW225747   5.505   2.662   7.444  0.0748 -0.8384 -1.2708
 8313SOL     OW25748   0.717   5.050   7.697  0.3698  0.0637 -0.4557
 8313SOL    HW125749   0.768   5.127   7.671 -0.0888  0.8361  0.8421
 8313SOL    HW225750   0.777   4.998   7.751  0.5178 -0.2456 -0.9093
 8314SOL     OW25751   6.276   5.890   4.231 -0.5823 -0.5844  0.4331
 8314SOL    HW125752   6.248   5.799   4.218  1.1376 -1.0874  0.0238
 8314SOL    HW225753   6.293   5.922   4.142 -1.4449  0.2451  0.5560
 8315SOL     OW25754   0.196   3.979   7.300 -0.4684 -0.5165  0.3697
 8315SOL    HW125755   0.108   3.965   7.266 -0.4139 -1.2113  0.5140
 8315SOL    HW225756   0.239   4.033   7.234 -0.1309 -2.4267 -1.0391
 8316SOL     OW25757   7.044   1.937   4.801  0.4521  0.6770  0.5016
 8316SOL    HW125758   7.108   1.970   4.865 -0.4748  0.0976  1.7610
 8316SOL    HW225759   6.961   1.973   4.831  0.1882  1.5655 -1.2282
 8317SOL     OW25760   6.651   1.853   0.283 -0.1447  0.4623  0.2328
 8317SOL    HW125761   6.716   1.877   0.350  0.9472 -1.3404 -0.0896
 8317SOL    HW225762   6.703   1.841   0.203 -1.1381  0.5977 -0.4510
 8318SOL     OW25763   4.817   3.924   5.698 -0.6690  0.0521 -0.1923
 8318SOL    HW125764   4.831   3.847   5.753  0.5033 -0.8315 -1.6603
 8318SOL    HW225765   4.871   3.992   5.739 -0.6521 -0.2820  0.3512
 8319SOL     OW25766   3.438   6.932   6.109  0.2619 -0.2368 -0.5481
 8319SOL    HW125767   3.439   6.885   6.192  0.0013  0.8546  0.0856
 8319SOL    HW225768   3.346   6.929   6.081  0.3939 -0.8340 -0.9490
 8320SOL     OW25769   6.016   0.849   6.779 -0.2760  0.0590 -0.0489
 8320SOL    HW125770   5.930   0.888   6.792  0.5668  2.1324 -0.2300
 8320SOL    HW225771   6.024   0.840   6.684 -0.4987 -0.6773 -0.0039
 8321SOL     OW25772   7.355   6.971   1.438 -0.4233 -0.1869 -0.1978
 8321SOL    HW125773   7.310   6.935   1.515 -1.2071  0.1683 -0.4729
 8321SOL    HW225774   7.409   6.899   1.405 -0.8122 -0.6376  0.1339
 8322SOL     OW25775   5.162   3.673   6.755 -0.0238 -0.2336  0.6381
 8322SOL    HW125776   5.208   3.752   6.724 -0.4435 -0.7713 -1.5336
 8322SOL    HW225777   5.196   3.659   6.843  0.9357  1.7067  0.6381
 8323SOL     OW25778   6.876   4.380   2.774 -0.1500  0.0784  0.3530
 8323SOL    HW125779   6.913   4.321   2.840 -1.2338  0.4241  1.2902
 8323SOL    HW225780   6.783   4.360   2.773 -0.3741  1.0757 -0.0462
 8324SOL     OW25781   0.793   4.412   6.493 -0.6653 -0.1834 -0.1812
 8324SOL    HW125782   0.847   4.434   6.417  0.7534 -3.3269 -0.2364
 8324SOL    HW225783   0.757   4.326   6.473  1.3057 -2.0726  3.3662
 8325SOL     OW25784   1.312   7.879   3.589 -0.0867 -0.4711  0.0763
 8325SOL    HW125785   1.237   7.927   3.555  1.1917  2.0057  0.4623
 8325SOL    HW225786   1.318   7.907   3.681 -0.7334 -3.4188  1.1384
 8326SOL     OW25787   2.192   3.864   6.285 -0.7655 -0.0877 -0.4889
 8326SOL    HW125788   2.136   3.939   6.262  0.0196  0.4276 -0.7890
 8326SOL    HW225789   2.137   3.809   6.340 -1.9878 -0.2307 -1.7799
 8327SOL     OW25790   1.086   0.836   7.137  0.1068 -0.2821  0.6852
 8327SOL    HW125791   1.126   0.851   7.051  0.6599 -0.8132  0.8360
 8327SOL    HW225792   1.100   0.917   7.184  0.4397 -0.2365  0.5125
 8328SOL     OW25793   2.079   0.051   4.574  0.3346 -0.2111 -0.1386
 8328SOL    HW125794   2.144   0.084   4.511  0.7623 -0.4027  0.2013
 8328SOL    HW225795   2.108  -0.038   4.593 -0.5736 -0.6423 -0.7161
 8329SOL     OW25796   6.710   0.674   6.580 -1.0052  0.2336  0.5446
 8329SOL    HW125797   6.677   0.663   6.491 -1.2795 -0.0298  0.6774
 8329SOL    HW225798   6.644   0.632   6.636  0.3493 -1.8370  0.7074
 8330SOL     OW25799   3.258   5.435   6.268  0.0889 -0.3213  0.0545
 8330SOL    HW125800   3.169   5.432   6.304  0.7640 -0.2145  1.8077
 8330SOL    HW225801   3.288   5.345   6.272  0.6363 -0.1069  1.0200
 8331SOL     OW25802   5.871   7.211   4.051  0.1559  0.8226 -0.0402
 8331SOL    HW125803   5.873   7.123   4.090  0.8985  1.1086  0.5860
 8331SOL    HW225804   5.781   7.241   4.067 -0.7409 -0.5663 -2.0248
 8332SOL     OW25805   1.405   4.564   3.124 -0.4573 -0.4099  0.1095
 8332SOL    HW125806   1.347   4.569   3.048 -0.3162  0.5251  0.0531
 8332SOL    HW225807   1.407   4.471   3.147  0.2227 -0.8459 -1.5873
 8333SOL     OW25808   3.457   0.991   6.286  0.1514 -0.0764  0.4371
 8333SOL    HW125809   3.469   1.048   6.210  1.5937  1.1953  1.5736
 8333SOL    HW225810   3.362   0.980   6.293 -0.0507  0.4908 -1.0033
 8334SOL     OW25811   0.670   2.901   1.602 -0.3100  0.1508 -0.3997
 8334SOL    HW125812   0.703   2.848   1.675  1.2877  0.1499 -1.0791
 8334SOL    HW225813   0.742   2.961   1.582 -1.3413  1.2558 -0.9363
 8335SOL     OW25814   1.614   6.065   6.593 -0.3861 -0.1995 -0.3224
 8335SOL    HW125815   1.664   6.126   6.648 -0.7737 -0.0182 -0.1657
 8335SOL    HW225816   1.531   6.110   6.577  0.0308  0.1184 -1.7666
 8336SOL     OW25817   6.886   4.910   0.508  0.2921 -0.2942  0.7337
 8336SOL    HW125818   6.823   4.893   0.578  1.1080 -0.3862  1.4549
 8336SOL    HW225819   6.904   4.824   0.471 -0.3288 -0.2177  0.2257
 8337SOL     OW25820   6.989   0.878   1.837  0.6215 -0.4227  0.7923
 8337SOL    HW125821   6.898   0.869   1.864  0.2730  0.4158 -0.0313
 8337SOL    HW225822   7.004   0.803   1.778  0.6882 -0.9526  1.4743
 8338SOL     OW25823   0.589   5.278   6.579  0.6954 -0.0284 -0.3288
 8338SOL    HW125824   0.539   5.226   6.643  1.1157 -0.1369 -0.0875
 8338SOL    HW225825   0.600   5.219   6.504 -2.6865  1.1453 -1.9442
 8339SOL     OW25826   8.004   2.029   6.051  0.4448  0.4412 -0.3684
 8339SOL    HW125827   8.075   2.046   5.988 -0.8360  0.5995 -1.8457
 8339SOL    HW225828   7.931   2.083   6.019 -1.3030 -1.9210 -0.6821
 8340SOL     OW25829   7.993   4.225   5.768  0.4027 -0.1077 -0.4994
 8340SOL    HW125830   8.011   4.156   5.833  1.2027  0.5299 -0.0217
 8340SOL    HW225831   8.003   4.307   5.817  0.0520  0.3621 -1.2025
 8341SOL     OW25832   6.255   0.382   7.641  0.5605  0.6066 -0.4347
 8341SOL    HW125833   6.214   0.370   7.726 -0.1767  1.1909 -0.6970
 8341SOL    HW225834   6.211   0.320   7.584  0.6972  0.5758 -0.5067
 8342SOL     OW25835   7.917   3.455   3.148  0.6079 -0.1600 -0.2159
 8342SOL    HW125836   7.878   3.417   3.069  3.2364 -1.8218 -0.8478
 8342SOL    HW225837   7.918   3.549   3.131 -2.9939  0.0689 -0.0859
 8343SOL     OW25838   3.894   6.611   7.909  0.4350  0.0858  0.2405
 8343SOL    HW125839   3.875   6.532   7.959  2.3901 -0.1596  0.6805
 8343SOL    HW225840   3.855   6.596   7.823 -0.1786 -0.8664  0.6774
 8344SOL     OW25841   2.565   1.391   5.475  0.0711 -0.0748  0.0073
 8344SOL    HW125842   2.545   1.303   5.444  1.4178 -0.4264  0.1043
 8344SOL    HW225843   2.660   1.392   5.486 -0.0765  0.9367  1.3828
 8345SOL     OW25844   5.784   1.988   0.933 -0.4872 -0.0943 -0.1631
 8345SOL    HW125845   5.757   2.079   0.947  1.0397  0.0831  1.9532
 8345SOL    HW225846   5.701   1.939   0.934 -1.1369  0.9568  1.4835
 8346SOL     OW25847   1.599   0.971   2.150 -0.3346 -0.4541  0.2226
 8346SOL    HW125848   1.539   0.947   2.079 -0.3043  1.1531 -0.4039
 8346SOL    HW225849   1.624   1.062   2.129  0.6819 -0.3968  1.6037
 8347SOL     OW25850   6.372   3.927   3.827  0.3588  0.1970  0.4541
 8347SOL    HW125851   6.399   3.839   3.852  1.6150  0.6806  0.8701
 8347SOL    HW225852   6.308   3.952   3.894 -1.0131 -0.8599 -0.3994
 8348SOL     OW25853   0.501   0.053   3.856  0.0183  0.2726  0.1968
 8348SOL    HW125854   0.480  -0.005   3.929 -1.0639  1.2228  0.6721
 8348SOL    HW225855   0.485   0.141   3.891  1.3268  0.8539 -0.5918
 8349SOL     OW25856   5.635   5.797   1.567  0.1883 -0.7630 -0.2164
 8349SOL    HW125857   5.675   5.711   1.556  0.1925 -0.7395 -0.4037
 8349SOL    HW225858   5.643   5.837   1.480 -1.9442 -1.4864 -0.8153
 8350SOL     OW25859   4.847   5.501   7.242 -0.1123  0.2573  0.4663
 8350SOL    HW125860   4.795   5.551   7.180  0.0589 -0.2774 -0.1162
 8350SOL    HW225861   4.932   5.544   7.242 -0.5597  1.2050  1.5077
 8351SOL     OW25862   7.227   4.517   0.798 -0.0818  0.3841  0.3996
 8351SOL    HW125863   7.322   4.532   0.789 -0.2997  3.3324  1.7186
 8351SOL    HW225864   7.190   4.553   0.718 -0.1093 -1.1334 -0.2969
 8352SOL     OW25865   5.759   1.462   1.734 -0.2789 -0.2638 -0.0914
 8352SOL    HW125866   5.746   1.458   1.829  0.5218 -2.9057  0.0044
 8352SOL    HW225867   5.670   1.464   1.698 -0.5954  0.5025  0.6966
 8353SOL     OW25868   5.546   1.563   2.650 -0.2764  0.0566  0.0837
 8353SOL    HW125869   5.591   1.570   2.565  0.2553 -1.6944  0.1901
 8353SOL    HW225870   5.499   1.481   2.645 -1.3998  0.6270  0.9818
 8354SOL     OW25871   4.144   1.175   4.380  0.2526  0.1470 -0.0859
 8354SOL    HW125872   4.234   1.200   4.397  0.4236 -1.5333  1.9980
 8354SOL    HW225873   4.108   1.246   4.328  2.5342  1.2446 -0.2656
 8355SOL     OW25874   7.919   7.157   4.768  0.0625  0.2432  0.3085
 8355SOL    HW125875   7.912   7.227   4.834  0.9498  2.8316 -2.1255
 8355SOL    HW225876   8.013   7.152   4.748 -0.3577  1.6474 -2.6621
 8356SOL     OW25877   3.693   5.893   5.447  0.1659  0.3740 -0.3970
 8356SOL    HW125878   3.705   5.935   5.361 -1.6613 -0.0307 -0.8883
 8356SOL    HW225879   3.615   5.839   5.436  1.7049 -2.2136  0.5870
 8357SOL     OW25880   1.136   6.248   7.916  0.4536  0.2663  0.3102
 8357SOL    HW125881   1.140   6.267   8.010  1.3926  2.2551 -0.0796
 8357SOL    HW225882   1.065   6.185   7.907  1.2360 -1.0366  2.5098
 8358SOL     OW25883   6.211   2.180   1.240  0.3045  0.0355 -0.4575
 8358SOL    HW125884   6.170   2.188   1.326 -1.2655 -0.5502 -1.1170
 8358SOL    HW225885   6.235   2.087   1.234  1.4876  0.3008 -0.2191
 8359SOL     OW25886   1.031   3.694   5.447  0.1916  0.4620  0.4467
 8359SOL    HW125887   1.015   3.717   5.356  1.3092  0.3998  0.2260
 8359SOL    HW225888   1.117   3.651   5.447 -0.6424 -1.3453  1.2297
 8360SOL     OW25889   6.279   6.953   1.620 -0.3147 -0.3976  0.0662
 8360SOL    HW125890   6.285   7.007   1.542 -0.0725  0.0957  0.4235
 8360SOL    HW225891   6.241   7.010   1.686 -0.1127 -0.6828  0.4307
 8361SOL     OW25892   7.969   4.440   1.857 -0.3762  0.1690  0.1701
 8361SOL    HW125893   7.976   4.346   1.842 -1.7359 -0.1382  1.2232
 8361SOL    HW225894   8.060   4.471   1.860  0.0670 -0.6349 -2.7106
 8362SOL     OW25895   5.134   7.593   3.079 -0.2358  0.0369 -0.4172
 8362SOL    HW125896   5.039   7.583   3.073 -0.5083  1.2383  1.3696
 8362SOL    HW225897   5.161   7.532   3.147  0.2278  0.0030 -0.6238
 8363SOL     OW25898   1.422   2.897   6.394  0.1912 -1.0271  0.0041
 8363SOL    HW125899   1.339   2.857   6.367 -0.2948 -0.3470  0.4527
 8363SOL    HW225900   1.465   2.829   6.445  0.2362 -1.6339 -0.8139
 8364SOL     OW25901   0.178   6.343   0.630  0.4220 -0.2872 -0.3262
 8364SOL    HW125902   0.083   6.338   0.635  0.4535 -1.2255 -0.5166
 8364SOL    HW225903   0.196   6.381   0.544  0.2055  1.5720  0.3987
 8365SOL     OW25904   7.019   3.601   3.614  0.1387  0.1365  1.0277
 8365SOL    HW125905   6.985   3.533   3.557 -1.2421  0.9680  0.7895
 8365SOL    HW225906   7.108   3.618   3.582 -1.2239  2.0280 -2.3708
 8366SOL     OW25907   3.810   6.372   0.030  0.2165 -0.1527 -0.1239
 8366SOL    HW125908   3.733   6.351   0.083  0.6517 -0.4211  0.4028
 8366SOL    HW225909   3.856   6.289   0.020  0.7435  0.1153  0.0457
 8367SOL     OW25910   1.244   6.373   1.360  0.0639  0.5689  0.2976
 8367SOL    HW125911   1.239   6.462   1.394  1.2590  0.7993 -0.0760
 8367SOL    HW225912   1.259   6.318   1.437 -3.2048  0.3198  0.9027
 8368SOL     OW25913   6.466   6.731   1.230  0.4569 -0.4001 -0.1838
 8368SOL    HW125914   6.471   6.692   1.318  0.1620 -0.5116 -0.2156
 8368SOL    HW225915   6.520   6.810   1.236  0.8209 -0.6568 -0.0352
 8369SOL     OW25916   0.373   4.081   5.262 -0.0349 -0.0692  0.0860
 8369SOL    HW125917   0.382   4.098   5.356 -0.0625 -0.2824  0.1271
 8369SOL    HW225918   0.279   4.093   5.245  0.0208  0.2917  0.0212
 8370SOL     OW25919   1.103   7.474   0.705 -0.0076  0.3309  0.3135
 8370SOL    HW125920   1.157   7.479   0.784  1.2263 -0.2127 -0.4702
 8370SOL    HW225921   1.166   7.472   0.633 -1.1145  0.9453 -0.6987
 8371SOL     OW25922   2.939   7.357   1.503 -0.5544 -0.3631  0.0726
 8371SOL    HW125923   2.978   7.402   1.428  0.8946  0.5740  1.3299
 8371SOL    HW225924   2.935   7.265   1.476  0.1073 -0.0696 -1.0925
 8372SOL     OW25925   5.287   0.732   6.272  0.0004  0.7958 -0.2759
 8372SOL    HW125926   5.378   0.727   6.243 -0.1934  0.5748 -0.8664
 8372SOL    HW225927   5.284   0.809   6.329  1.1934 -0.7888  2.1011
 8373SOL     OW25928   3.784   6.440   3.452 -0.2101  0.3351  0.1944
 8373SOL    HW125929   3.732   6.519   3.466  0.2211  0.7695 -0.5813
 8373SOL    HW225930   3.789   6.431   3.357 -0.6129 -0.8694  0.2695
 8374SOL     OW25931   7.767   6.564   2.978  0.0689 -0.0426  0.1910
 8374SOL    HW125932   7.747   6.655   2.957 -1.8040 -0.8324 -1.7966
 8374SOL    HW225933   7.829   6.536   2.910  0.2710 -0.3931  0.5111
 8375SOL     OW25934   7.918   3.433   5.125 -0.4950 -0.3670 -0.4618
 8375SOL    HW125935   7.995   3.378   5.140 -0.9686 -0.7353  0.6517
 8375SOL    HW225936   7.845   3.384   5.163 -1.6064 -0.8440 -3.0011
 8376SOL     OW25937   4.525   3.745   2.596 -0.3921  0.1334 -0.0606
 8376SOL    HW125938   4.512   3.721   2.688 -1.2586  1.2299  0.1287
 8376SOL    HW225939   4.618   3.766   2.589 -0.6501  1.9004  1.0572
 8377SOL     OW25940   1.919   7.453   6.865 -0.0763 -0.2258  0.4421
 8377SOL    HW125941   1.937   7.507   6.942 -0.3208  3.7514 -1.9651
 8377SOL    HW225942   1.827   7.470   6.845 -0.9651 -3.7505  0.9137
 8378SOL     OW25943   2.028   2.400   3.326 -0.3843  0.3136  0.1381
 8378SOL    HW125944   2.070   2.460   3.264 -2.6941  0.7390 -1.1490
 8378SOL    HW225945   1.971   2.457   3.379  0.8198 -0.1776  2.0611
 8379SOL     OW25946   6.125   3.615   3.769  0.2949  0.1684 -0.0452
 8379SOL    HW125947   6.075   3.615   3.687  0.1629  0.0878  0.0358
 8379SOL    HW225948   6.212   3.583   3.744  0.2794  0.2214 -0.1686
 8380SOL     OW25949   6.255   4.588   0.685  1.1480  0.1505 -0.6418
 8380SOL    HW125950   6.326   4.562   0.745  1.2743  1.1733 -0.3340
 8380SOL    HW225951   6.219   4.667   0.724  0.8996  0.5484 -1.6632
 8381SOL     OW25952   1.364   7.165   0.505 -0.1283 -0.2858 -0.0186
 8381SOL    HW125953   1.297   7.190   0.441 -1.4686 -2.8200  0.2950
 8381SOL    HW225954   1.323   7.177   0.590  0.2884 -0.5647  0.2273
 8382SOL     OW25955   2.441   0.585   1.935 -0.8810  0.0850  0.6440
 8382SOL    HW125956   2.508   0.544   1.879 -1.3109 -0.6399  0.6413
 8382SOL    HW225957   2.394   0.511   1.972 -1.9272  0.5954  0.3587
 8383SOL     OW25958   3.257   0.154   7.125 -0.0851 -0.4749 -0.3566
 8383SOL    HW125959   3.179   0.183   7.173 -0.3238 -0.6218 -0.6516
 8383SOL    HW225960   3.269   0.219   7.057  0.3032 -0.2217 -0.0487
 8384SOL     OW25961   1.520   2.434   1.617 -0.1730  0.2218  0.2329
 8384SOL    HW125962   1.604   2.469   1.589 -0.7728  0.1312 -1.8932
 8384SOL    HW225963   1.494   2.490   1.690  1.7243  0.2084  0.9630
 8385SOL     OW25964   3.335   3.273   0.997 -0.6169  0.8132  0.0069
 8385SOL    HW125965   3.267   3.260   1.063 -0.3192 -0.4115  0.1031
 8385SOL    HW225966   3.408   3.218   1.026 -0.5252  0.1451 -1.3931
 8386SOL     OW25967   7.428   1.396   1.046  0.3059  0.6289 -0.2331
 8386SOL    HW125968   7.506   1.415   1.098 -0.3118 -1.7806  1.8035
 8386SOL    HW225969   7.355   1.429   1.098 -0.2524 -0.8423 -0.0141
 8387SOL     OW25970   0.568   0.583   3.759  0.0206  0.4079 -0.5180
 8387SOL    HW125971   0.558   0.675   3.786 -2.2101 -0.6651  2.8108
 8387SOL    HW225972   0.483   0.543   3.776  1.7652 -2.9924  1.2785
 8388SOL     OW25973   3.323   7.495   0.639 -0.0912 -0.1281  0.0621
 8388SOL    HW125974   3.305   7.419   0.584 -3.3219 -0.0860  0.8636
 8388SOL    HW225975   3.238   7.539   0.648  1.3936  2.8322  0.7494
 8389SOL     OW25976   5.526   3.868   6.910 -0.5832 -0.2479 -0.2001
 8389SOL    HW125977   5.563   3.955   6.897  1.4626 -1.1644 -0.8580
 8389SOL    HW225978   5.523   3.830   6.822 -0.1393 -1.3347  0.2370
 8390SOL     OW25979   3.810   6.787   1.455 -0.4316 -0.2313 -0.4075
 8390SOL    HW125980   3.765   6.823   1.532 -1.7270  1.3446 -1.8165
 8390SOL    HW225981   3.790   6.849   1.385 -0.5272 -2.3704 -2.3889
 8391SOL     OW25982   3.386   3.604   3.166  0.3844  0.0027 -0.0995
 8391SOL    HW125983   3.457   3.613   3.103 -0.9255  0.5809 -1.5673
 8391SOL    HW225984   3.330   3.535   3.129 -0.8847  0.9801 -0.0601
 8392SOL     OW25985   7.286   7.250   5.781 -0.1509  0.2878 -0.1269
 8392SOL    HW125986   7.209   7.201   5.813 -0.0616  0.1985 -0.0478
 8392SOL    HW225987   7.252   7.336   5.758  0.1085  0.9808  1.9218
 8393SOL     OW25988   5.976   3.516   4.967  0.1464 -0.2444 -0.3188
 8393SOL    HW125989   6.047   3.559   5.014  0.6959 -1.5805  0.0996
 8393SOL    HW225990   5.911   3.586   4.953  0.2632  0.3516  1.8005
 8394SOL     OW25991   5.619   5.303   2.254 -0.5652 -0.2029  0.2621
 8394SOL    HW125992   5.555   5.333   2.320 -0.1755 -0.8203  0.9322
 8394SOL    HW225993   5.644   5.215   2.283 -0.9851 -0.8171 -1.1577
 8395SOL     OW25994   2.738   5.279   1.165 -0.3074  0.2833  0.4977
 8395SOL    HW125995   2.718   5.343   1.096  3.2979 -0.3420 -1.3998
 8395SOL    HW225996   2.779   5.330   1.234  0.9366  0.3110 -0.2328
 8396SOL     OW25997   1.754   4.487   6.518 -0.1424 -0.5445 -0.1576
 8396SOL    HW125998   1.702   4.410   6.539 -2.9308  1.5844  1.5519
 8396SOL    HW225999   1.841   4.453   6.497 -1.0530 -4.0444  1.0800
 8397SOL     OW26000   7.376   4.712   5.060 -0.3726  0.2923  0.1326
 8397SOL    HW126001   7.457   4.727   5.011 -0.6395  0.3054 -0.3147
 8397SOL    HW226002   7.402   4.712   5.152  0.4582 -1.7210 -0.0725
 8398SOL     OW26003   6.146   1.124   3.490  0.2380 -0.0218 -0.2350
 8398SOL    HW126004   6.093   1.203   3.492 -0.0827 -0.2469  0.3287
 8398SOL    HW226005   6.139   1.092   3.400  0.1494  0.4391 -0.3905
 8399SOL     OW26006   4.353   5.852   1.789  0.2438 -0.2210 -0.2931
 8399SOL    HW126007   4.406   5.814   1.719  0.9356  0.0354  0.0825
 8399SOL    HW226008   4.409   5.919   1.827 -1.6767  2.7532 -2.3223
 8400SOL     OW26009   7.719   0.448   0.227 -0.1461  0.4785  0.6831
 8400SOL    HW126010   7.794   0.403   0.265 -0.4085  0.7419  1.5406
 8400SOL    HW226011   7.648   0.384   0.233  0.2044 -0.1334 -1.0214
 8401SOL     OW26012   5.578   2.131   6.499  0.0984  0.3824  0.2439
 8401SOL    HW126013   5.520   2.055   6.489  0.3621  0.4234 -2.5793
 8401SOL    HW226014   5.648   2.101   6.558 -0.3233 -1.2483 -0.0369
 8402SOL     OW26015   3.522   7.198   7.939  0.4439 -0.0974 -0.2442
 8402SOL    HW126016   3.548   7.112   7.904 -0.0598  0.3967 -1.9291
 8402SOL    HW226017   3.567   7.204   8.023  0.7414 -1.8792 -0.2292
 8403SOL     OW26018   1.796   3.516   1.913  0.1462 -0.1274  0.1789
 8403SOL    HW126019   1.850   3.492   1.838 -0.3135  0.5563 -0.3839
 8403SOL    HW226020   1.854   3.566   1.970  0.7426 -1.3933  0.7286
 8404SOL     OW26021   3.738   0.400   1.021 -0.2430  0.2112 -0.5561
 8404SOL    HW126022   3.751   0.492   0.997 -0.8810 -0.2566 -2.9975
 8404SOL    HW226023   3.675   0.367   0.957 -0.6225 -1.7598  0.7285
 8405SOL     OW26024   1.064   1.203   3.777 -0.5962  0.3707 -0.4992
 8405SOL    HW126025   1.088   1.115   3.747  3.2175  1.1445 -0.3073
 8405SOL    HW226026   0.999   1.188   3.846  1.2979 -2.5128  0.8688
 8406SOL     OW26027   6.982   7.993   2.804 -0.1542  0.0191 -0.6744
 8406SOL    HW126028   7.023   8.025   2.724  0.4998 -0.4261 -0.5262
 8406SOL    HW226029   7.036   7.919   2.830  0.9948  1.4732  1.3836
 8407SOL     OW26030   3.186   1.405   5.370 -0.1205  0.1350  0.1187
 8407SOL    HW126031   3.108   1.372   5.326 -1.1001  1.1308  1.0637
 8407SOL    HW226032   3.230   1.326   5.403 -2.1359 -0.3458  1.8748
 8408SOL     OW26033   2.115   2.360   0.181 -0.2990 -0.1596  0.3768
 8408SOL    HW126034   2.184   2.295   0.169 -0.1425  0.2109 -0.8876
 8408SOL    HW226035   2.034   2.314   0.163 -0.1466  0.1114 -1.1203
 8409SOL     OW26036   3.862   7.790   5.958  0.3825  0.4355  0.5529
 8409SOL    HW126037   3.924   7.854   5.922 -3.3915  3.8991 -0.7080
 8409SOL    HW226038   3.877   7.792   6.052  1.9622  1.4085  0.3177
 8410SOL     OW26039   1.501   3.614   3.673 -0.4784 -0.3342  0.4121
 8410SOL    HW126040   1.434   3.548   3.654  0.8818 -1.9037  0.8403
 8410SOL    HW226041   1.491   3.632   3.767 -1.1672  0.4772  0.1982
 8411SOL     OW26042   3.215   2.148   3.576  0.5603  0.1254  0.3534
 8411SOL    HW126043   3.140   2.106   3.618  0.1582  0.7332  0.2625
 8411SOL    HW226044   3.231   2.227   3.628 -0.7163  1.5512 -1.2724
 8412SOL     OW26045   3.838   1.667   1.747 -0.4298  0.6900  0.2280
 8412SOL    HW126046   3.750   1.699   1.767 -0.8844 -0.1537 -0.3623
 8412SOL    HW226047   3.852   1.595   1.808 -0.7708 -0.1700 -0.6842
 8413SOL     OW26048   2.412   5.940   6.476  0.7654 -0.4296  0.2887
 8413SOL    HW126049   2.472   5.924   6.404  0.7399 -0.7596  0.3356
 8413SOL    HW226050   2.455   6.005   6.530  0.8684 -0.3181  0.0735
 8414SOL     OW26051   0.817   7.594   5.170 -0.2867  0.6019 -0.1442
 8414SOL    HW126052   0.861   7.511   5.190  0.0623  0.6992 -0.5018
 8414SOL    HW226053   0.885   7.648   5.129 -0.3231  1.3202  0.7199
 8415SOL     OW26054   7.240   7.317   4.220  0.5092  0.1222  0.7060
 8415SOL    HW126055   7.196   7.400   4.241  3.1228  1.5266  1.0791
 8415SOL    HW226056   7.195   7.252   4.273 -1.4940  1.3257  0.5764
 8416SOL     OW26057   0.253   1.201   7.386  0.2410  0.0565  0.4730
 8416SOL    HW126058   0.224   1.226   7.473 -2.7625 -0.3358 -0.2968
 8416SOL    HW226059   0.250   1.282   7.335 -1.4430 -0.2653 -0.0271
 8417SOL     OW26060   4.653   6.248   3.144 -0.3421 -0.4960  0.3236
 8417SOL    HW126061   4.626   6.163   3.109  0.0086 -0.2844 -0.4972
 8417SOL    HW226062   4.642   6.240   3.239 -1.8321 -0.9153  0.1335
 8418SOL     OW26063   5.748   0.380   1.595 -0.1732  0.3319 -0.3480
 8418SOL    HW126064   5.740   0.286   1.583 -0.8153  0.1485  1.2544
 8418SOL    HW226065   5.769   0.414   1.508 -0.7520 -1.1901 -1.1146
 8419SOL     OW26066   6.839   5.728   6.028 -0.4706  0.1069 -0.3304
 8419SOL    HW126067   6.897   5.670   6.077  0.0942  1.4331  0.6260
 8419SOL    HW226068   6.751   5.697   6.049 -0.2087  0.1007  0.8446
 8420SOL     OW26069   1.517   2.124   3.058 -0.0686 -0.2746 -0.5815
 8420SOL    HW126070   1.435   2.075   3.069  1.1641 -2.0623  1.3792
 8420SOL    HW226071   1.489   2.213   3.036 -2.4947 -0.9843 -0.6535
 8421SOL     OW26072   1.164   1.517   4.532 -0.4679  0.4867 -0.4109
 8421SOL    HW126073   1.213   1.555   4.605 -1.2416  0.8123 -0.0486
 8421SOL    HW226074   1.108   1.588   4.502  2.1865  1.5153 -3.5690
 8422SOL     OW26075   6.555   4.696   5.297 -0.4689 -0.1924  0.5511
 8422SOL    HW126076   6.636   4.648   5.315  1.0368  2.5393  1.7283
 8422SOL    HW226077   6.555   4.706   5.202  1.2109  0.6458  0.5907
 8423SOL     OW26078   1.625   2.182   3.744  0.3092  0.1828  0.3233
 8423SOL    HW126079   1.647   2.228   3.662 -2.6865  0.7355 -0.2765
 8423SOL    HW226080   1.703   2.192   3.798  1.6848  1.4695 -1.7315
 8424SOL     OW26081   5.480   1.425   4.965 -0.0656  0.0915  0.1349
 8424SOL    HW126082   5.415   1.362   4.997  0.0229  0.4054  0.9555
 8424SOL    HW226083   5.471   1.422   4.869 -0.2488 -0.9564  0.1750
 8425SOL     OW26084   2.962   0.563   3.054 -0.1941  0.1972 -0.2054
 8425SOL    HW126085   2.965   0.584   3.147 -1.9987 -0.4088  0.0320
 8425SOL    HW226086   2.907   0.485   3.049  0.8269 -0.4846 -1.6816
 8426SOL     OW26087   3.732   1.486   2.108 -0.1508 -0.5756 -0.5019
 8426SOL    HW126088   3.783   1.448   2.180 -1.8738 -0.7800  0.6630
 8426SOL    HW226089   3.744   1.580   2.117 -0.2849 -0.6022  0.0174
 8427SOL     OW26090   5.325   3.112   7.982  0.1202  0.5840 -0.0375
 8427SOL    HW126091   5.235   3.121   8.014 -0.0277 -0.5811 -0.0446
 8427SOL    HW226092   5.322   3.034   7.926  1.2163  0.3028  0.2673
 8428SOL     OW26093   7.724   5.221   7.005 -0.7085 -0.4217  0.2512
 8428SOL    HW126094   7.692   5.206   6.916  1.7500 -1.1355 -0.5796
 8428SOL    HW226095   7.684   5.304   7.031 -0.7695  0.2724 -1.8672
 8429SOL     OW26096   0.028   1.209   2.706 -0.1414  0.3862 -0.3328
 8429SOL    HW126097   0.092   1.218   2.777  1.9496  1.3395 -2.2082
 8429SOL    HW226098  -0.018   1.293   2.703  0.5208  0.7401 -0.7592
 8430SOL     OW26099   3.249   6.504   5.240  0.0524  0.0547 -0.0353
 8430SOL    HW126100   3.186   6.576   5.242  1.8950  1.7767 -0.1428
 8430SOL    HW226101   3.257   6.481   5.147 -2.2384 -1.9873  0.1721
 8431SOL     OW26102   7.614   3.888   0.386  0.2116  0.4682  0.0367
 8431SOL    HW126103   7.642   3.811   0.336  0.1868 -2.2199  3.7173
 8431SOL    HW226104   7.691   3.913   0.437 -0.2423  1.8948  0.0560
 8432SOL     OW26105   6.463   6.165   3.920  0.3301  0.1434 -0.3937
 8432SOL    HW126106   6.435   6.182   4.010  1.0498  1.7470 -0.4364
 8432SOL    HW226107   6.390   6.197   3.866  0.1581 -0.2572 -0.4020
 8433SOL     OW26108   0.472   6.076   4.552  0.1889 -0.0177  0.3675
 8433SOL    HW126109   0.537   6.065   4.622  0.3595  0.5623  0.3061
 8433SOL    HW226110   0.397   6.116   4.596  0.8336  1.7389 -0.0279
 8434SOL     OW26111   2.571   0.558   3.222 -0.3300 -0.7945 -0.3111
 8434SOL    HW126112   2.563   0.600   3.136  2.8886  0.8827  0.0481
 8434SOL    HW226113   2.515   0.610   3.279 -1.3191 -0.9851 -1.0751
 8435SOL     OW26114   1.859   1.448   0.914 -0.3900 -0.1902  0.2326
 8435SOL    HW126115   1.933   1.488   0.868  0.4974  0.1294  1.8491
 8435SOL    HW226116   1.782   1.495   0.883  0.2029  0.2443 -0.6304
 8436SOL     OW26117   1.985   6.550   6.472 -0.2635 -0.1641 -0.3907
 8436SOL    HW126118   2.074   6.580   6.494  0.0257 -0.9333 -0.4592
 8436SOL    HW226119   1.994   6.511   6.385 -0.7637  0.1454 -0.5800
 8437SOL     OW26120   1.004   6.669   5.606 -0.1112  0.6102  0.4768
 8437SOL    HW126121   1.069   6.726   5.645 -0.5634  2.9667 -1.9245
 8437SOL    HW226122   0.993   6.597   5.669  4.9432 -0.1216  0.8834
 8438SOL     OW26123   3.458   0.551   0.634 -0.0351 -0.0817  0.2583
 8438SOL    HW126124   3.500   0.513   0.558  2.3927  0.9785  0.9654
 8438SOL    HW226125   3.427   0.476   0.685  1.1458 -0.9389 -0.2474
 8439SOL     OW26126   1.193   7.316   5.370  0.7142 -0.1443  0.2624
 8439SOL    HW126127   1.244   7.319   5.289  0.4071 -1.4042  0.0053
 8439SOL    HW226128   1.164   7.407   5.382  0.8863  0.0982 -0.9550
 8440SOL     OW26129   3.177   3.996   1.491 -0.1469  0.2945  0.0026
 8440SOL    HW126130   3.249   4.041   1.534 -0.0565  0.2433 -0.0936
 8440SOL    HW226131   3.220   3.938   1.427 -0.0960 -1.8295  1.8375
 8441SOL     OW26132   6.095   3.276   2.014 -0.0880 -0.1752 -0.4051
 8441SOL    HW126133   6.166   3.311   1.961  0.7286  0.5876  1.1387
 8441SOL    HW226134   6.133   3.265   2.101 -1.3631 -1.4714  0.0265
 8442SOL     OW26135   4.444   4.431   7.920  0.0096 -0.1177  0.1200
 8442SOL    HW126136   4.491   4.395   7.995 -0.6767 -0.3522  0.4469
 8442SOL    HW226137   4.508   4.429   7.848  0.2130 -1.3439  0.3061
 8443SOL     OW26138   4.708   1.780   7.142 -0.6058  0.0023 -0.5251
 8443SOL    HW126139   4.751   1.780   7.228  0.5811 -2.0828 -1.0434
 8443SOL    HW226140   4.616   1.798   7.161  0.1371  2.9233  0.8007
 8444SOL     OW26141   4.923   3.220   5.469  0.6709  0.0601  0.3866
 8444SOL    HW126142   5.001   3.173   5.499  0.8210 -1.2013 -1.7889
 8444SOL    HW226143   4.909   3.189   5.380 -0.4681  2.6548 -0.4381
 8445SOL     OW26144   2.780   5.783   4.234  0.2773  0.2945 -0.0656
 8445SOL    HW126145   2.791   5.696   4.197 -0.1139  0.2809 -0.1550
 8445SOL    HW226146   2.690   5.807   4.213 -0.2375 -0.0516  1.6007
 8446SOL     OW26147   2.422   5.672   4.832  0.4164  0.3843  0.0786
 8446SOL    HW126148   2.438   5.634   4.746  2.2961  1.0108  0.0968
 8446SOL    HW226149   2.346   5.729   4.820 -0.4907 -0.9329 -0.6865
 8447SOL     OW26150   4.864   3.795   4.252 -0.2151 -0.7117 -0.2516
 8447SOL    HW126151   4.801   3.752   4.309 -0.3013  0.4393  0.5443
 8447SOL    HW226152   4.813   3.821   4.176 -0.0051 -2.6725 -1.1491
 8448SOL     OW26153   5.580   6.096   1.766  0.4688  0.7342  0.0159
 8448SOL    HW126154   5.643   6.095   1.694 -0.5203  2.5029 -0.9544
 8448SOL    HW226155   5.498   6.067   1.727 -0.1549  2.0075  0.3118
 8449SOL     OW26156   6.487   5.817   0.511  0.5640 -0.3747  0.2837
 8449SOL    HW126157   6.396   5.810   0.540  0.6729 -0.2915  0.6609
 8449SOL    HW226158   6.497   5.909   0.486  0.7461 -0.2010  0.9630
 8450SOL     OW26159   7.959   0.897   7.401 -0.0428 -0.5279  0.1528
 8450SOL    HW126160   7.993   0.956   7.334  2.3198 -1.9787 -0.0182
 8450SOL    HW226161   7.875   0.868   7.366  0.7593 -0.6090 -1.8224
 8451SOL     OW26162   4.336   3.502   0.096 -0.1860 -0.5755  0.1509
 8451SOL    HW126163   4.275   3.428   0.103  1.9105 -2.3079  1.1400
 8451SOL    HW226164   4.280   3.579   0.103 -2.8810 -1.8726 -3.6552
 8452SOL     OW26165   4.591   6.337   0.928  0.7769 -0.2242 -0.0495
 8452SOL    HW126166   4.529   6.330   0.855 -0.3230 -3.0666  0.9962
 8452SOL    HW226167   4.677   6.345   0.887 -0.0091  0.9465 -1.5738
 8453SOL     OW26168   6.428   5.309   0.878  0.4581  0.2882 -0.3202
 8453SOL    HW126169   6.427   5.221   0.916 -1.4732  0.4819  0.2200
 8453SOL    HW226170   6.340   5.320   0.841  1.2699  1.3054 -2.0618
 8454SOL     OW26171   5.709   7.997   1.307  0.5814 -0.0982  0.1384
 8454SOL    HW126172   5.773   8.041   1.251  0.1021  0.4302 -0.0145
 8454SOL    HW226173   5.626   8.008   1.260  0.3782 -0.7666  0.3358
 8455SOL     OW26174   7.755   3.927   7.525 -0.7055  0.4959 -0.2224
 8455SOL    HW126175   7.700   3.995   7.485 -2.9407 -0.0219  1.7519
 8455SOL    HW226176   7.780   3.964   7.610 -0.9967 -0.7027  0.3967
 8456SOL     OW26177   6.683   5.545   7.674 -0.2809 -0.1242 -0.1223
 8456SOL    HW126178   6.617   5.610   7.650  0.2243  1.2936  1.9873
 8456SOL    HW226179   6.763   5.576   7.632 -0.3528 -0.2254 -0.3342
 8457SOL     OW26180   2.399   6.346   4.398  0.0872  0.1319 -0.6602
 8457SOL    HW126181   2.388   6.350   4.303 -1.4094  0.9180 -0.4790
 8457SOL    HW226182   2.393   6.437   4.427  0.7675 -0.0723  0.1859
 8458SOL     OW26183   0.319   3.941   3.931 -0.0704  0.9989  0.3826
 8458SOL    HW126184   0.236   3.982   3.905  0.4938  1.0351 -1.5091
 8458SOL    HW226185   0.316   3.854   3.889  0.7152  0.8946  0.5344
 8459SOL     OW26186   6.140   3.880   1.772  0.4771  0.4203 -0.0616
 8459SOL    HW126187   6.203   3.824   1.727  0.5385 -0.0150  0.5668
 8459SOL    HW226188   6.079   3.819   1.814  1.4320  0.7810  1.9225
 8460SOL     OW26189   5.005   0.165   4.672 -0.9888 -0.0363  0.2271
 8460SOL    HW126190   4.910   0.161   4.675 -1.1423  2.2439  1.3408
 8460SOL    HW226191   5.026   0.249   4.713  1.4172  0.4148 -1.6912
 8461SOL     OW26192   7.850   1.221   0.184  0.5587 -0.8732 -0.1281
 8461SOL    HW126193   7.793   1.208   0.260  0.9676 -0.0817  0.3288
 8461SOL    HW226194   7.805   1.177   0.112 -0.7502 -0.0457  0.1639
 8462SOL     OW26195   2.974   0.764   1.449 -0.4542  0.2909  0.5780
 8462SOL    HW126196   2.968   0.684   1.397  0.1457  0.6012  0.0173
 8462SOL    HW226197   3.028   0.739   1.525 -1.0243 -0.0633  0.8792
 8463SOL     OW26198   2.193   4.665   5.813 -0.0603  0.3679  0.4727
 8463SOL    HW126199   2.220   4.751   5.845  0.3965  0.4182 -0.0469
 8463SOL    HW226200   2.145   4.626   5.887 -2.1224  1.8967  0.0403
 8464SOL     OW26201   0.575   0.415   6.775  0.2886 -0.1347 -0.7310
 8464SOL    HW126202   0.664   0.437   6.800  0.2331  0.7924 -1.3409
 8464SOL    HW226203   0.547   0.352   6.842  0.7545  0.9561  0.5276
 8465SOL     OW26204   5.849   0.115   5.039 -0.5033  0.5508  0.3097
 8465SOL    HW126205   5.944   0.128   5.042 -0.3602  0.0992 -1.3253
 8465SOL    HW226206   5.821   0.163   4.961 -1.1687 -1.7153 -0.9271
 8466SOL     OW26207   2.601   6.957   3.783 -0.4335  0.3027  0.4593
 8466SOL    HW126208   2.680   6.959   3.729  0.0130 -0.6737  1.0642
 8466SOL    HW226209   2.579   7.050   3.795 -0.9584  0.5822 -1.9376
 8467SOL     OW26210   1.765   3.291   0.489 -0.1832 -0.4685  0.3063
 8467SOL    HW126211   1.764   3.365   0.550 -0.1047 -0.0293 -0.2287
 8467SOL    HW226212   1.804   3.325   0.409 -1.1369 -0.7977 -0.3139
 8468SOL     OW26213   1.716   1.252   4.547 -0.1275  0.3015 -0.3439
 8468SOL    HW126214   1.673   1.212   4.623  0.3097  2.1503  0.9459
 8468SOL    HW226215   1.787   1.304   4.585  0.9070  0.2480 -2.1452
 8469SOL     OW26216   2.311   4.070   4.620 -0.0005 -0.1635 -0.0093
 8469SOL    HW126217   2.286   4.160   4.639  3.1290  0.6398  1.0308
 8469SOL    HW226218   2.361   4.075   4.539 -1.4843 -1.3619 -1.0577
 8470SOL     OW26219   5.870   5.652   1.771  0.6878 -0.6566  0.4576
 8470SOL    HW126220   5.839   5.632   1.683  1.0538  0.7176 -0.0097
 8470SOL    HW226221   5.963   5.631   1.770  0.6685 -0.7493  0.5534
 8471SOL     OW26222   1.333   5.683   7.630 -0.5679  0.3498 -0.0295
 8471SOL    HW126223   1.405   5.665   7.569 -0.4509  0.5186  0.0583
 8471SOL    HW226224   1.376   5.696   7.714 -0.8872 -2.2657  0.6203
 8472SOL     OW26225   3.281   6.334   7.518 -0.0583 -0.1945 -0.5468
 8472SOL    HW126226   3.332   6.412   7.541 -1.6460  0.3078  1.6044
 8472SOL    HW226227   3.222   6.364   7.449  1.0813 -0.2271 -1.5649
 8473SOL     OW26228   0.121   3.620   6.937 -0.1509  0.5024  0.5631
 8473SOL    HW126229   0.079   3.586   6.858  0.7019  1.4790 -0.3498
 8473SOL    HW226230   0.049   3.633   6.999 -0.8668 -0.0727 -0.1316
 8474SOL     OW26231   2.967   3.998   4.933 -0.0529  0.0411 -0.6888
 8474SOL    HW126232   2.951   4.059   4.861  1.4089  0.5705 -0.6016
 8474SOL    HW226233   3.033   4.042   4.987 -2.0157  0.2242  1.7069
 8475SOL     OW26234   7.963   7.201   4.430  0.1529  0.4039 -0.3767
 8475SOL    HW126235   8.016   7.213   4.509  1.7033  0.5983 -1.3942
 8475SOL    HW226236   7.982   7.111   4.403  0.8278  0.8194 -1.3341
 8476SOL     OW26237   5.095   4.064   4.587  0.2463  0.4518  0.6806
 8476SOL    HW126238   5.176   4.016   4.601 -0.0698 -0.9244 -1.6851
 8476SOL    HW226239   5.071   4.045   4.497 -0.3494  4.4772 -0.2088
 8477SOL     OW26240   7.745   6.232   4.708  0.2398  0.5826 -0.0948
 8477SOL    HW126241   7.831   6.258   4.677  0.0426  0.3274 -0.8904
 8477SOL    HW226242   7.726   6.291   4.780  0.9712  0.8081 -0.0834
 8478SOL     OW26243   0.530   3.244   4.032  0.3243  0.4303  0.2583
 8478SOL    HW126244   0.476   3.303   3.979  0.6800 -0.9565 -1.7869
 8478SOL    HW226245   0.620   3.269   4.011  0.4788 -0.9055 -0.7786
 8479SOL     OW26246   4.545   1.660   2.531  0.3575 -0.4799 -0.1643
 8479SOL    HW126247   4.454   1.680   2.507  0.1288 -0.0024  1.0505
 8479SOL    HW226248   4.575   1.738   2.577  1.4354 -0.5912 -0.6517
 8480SOL     OW26249   1.085   3.061   0.894  0.0222  0.1433  0.1470
 8480SOL    HW126250   1.176   3.091   0.903 -0.7965  3.7383 -1.6208
 8480SOL    HW226251   1.038   3.105   0.964 -0.6246 -0.4954  0.1292
 8481SOL     OW26252   1.248   5.137   3.389 -0.6561 -0.1258 -0.0197
 8481SOL    HW126253   1.226   5.223   3.423 -0.4780  0.0526 -0.3472
 8481SOL    HW226254   1.166   5.102   3.355 -0.9690 -0.5648  1.1339
 8482SOL     OW26255   4.719   6.038   6.782 -0.0007  0.1305 -0.6398
 8482SOL    HW126256   4.706   6.132   6.795  1.8948  0.6841 -2.1096
 8482SOL    HW226257   4.686   6.021   6.694  0.1711 -0.4654 -0.5952
 8483SOL     OW26258   5.615   4.342   4.060 -0.3363 -0.2297  0.5044
 8483SOL    HW126259   5.671   4.272   4.025 -0.3818  1.1460 -2.6614
 8483SOL    HW226260   5.676   4.409   4.090 -0.2789  0.1443 -0.4382
 8484SOL     OW26261   2.148   5.159   2.449  1.3215  0.1815  0.2844
 8484SOL    HW126262   2.197   5.239   2.432 -0.9045  1.2919 -1.4631
 8484SOL    HW226263   2.140   5.117   2.363  0.1099 -0.4661  0.6823
 8485SOL     OW26264   6.006   2.170   2.681  0.5014  0.5231 -0.2364
 8485SOL    HW126265   5.958   2.091   2.704  0.7642  0.3258 -0.3675
 8485SOL    HW226266   6.098   2.146   2.689  0.8898 -0.8711 -5.3109
 8486SOL     OW26267   5.039   3.607   0.157 -0.7461 -0.0133  0.1501
 8486SOL    HW126268   5.112   3.667   0.177 -0.4536 -0.0580 -0.7393
 8486SOL    HW226269   4.985   3.609   0.236  1.0582 -1.2413  1.4990
 8487SOL     OW26270   7.523   7.288   7.867 -0.1178 -0.2446 -0.3027
 8487SOL    HW126271   7.430   7.310   7.871 -0.0959 -0.2624  0.5164
 8487SOL    HW226272   7.560   7.350   7.804 -0.4211  0.7698  0.4908
 8488SOL     OW26273   4.639   5.673   1.951  0.3233  0.3491  0.1804
 8488SOL    HW126274   4.704   5.661   1.882 -1.1440  2.1214 -1.6962
 8488SOL    HW226275   4.620   5.585   1.983  1.7142 -0.4443 -1.0611
 8489SOL     OW26276   7.842   7.944   0.413  0.2520  0.1985  0.3327
 8489SOL    HW126277   7.822   7.977   0.501  0.2259 -0.3920  0.5536
 8489SOL    HW226278   7.772   7.881   0.395 -1.6162  2.6034 -1.4408
 8490SOL     OW26279   4.761   0.052   7.547  0.4375  0.2942 -1.0735
 8490SOL    HW126280   4.686  -0.006   7.532 -0.0766  1.0314 -1.4434
 8490SOL    HW226281   4.727   0.122   7.603  1.4735 -0.6015  0.7527
 8491SOL     OW26282   2.385   7.607   3.403  0.2759  0.3222 -0.6048
 8491SOL    HW126283   2.302   7.588   3.447  0.3010  0.0384 -0.6793
 8491SOL    HW226284   2.375   7.697   3.372 -0.6244 -0.2115 -1.9750
 8492SOL     OW26285   4.668   2.802   0.682 -0.6345 -0.1370  0.3775
 8492SOL    HW126286   4.681   2.897   0.682 -2.9644  0.2532 -0.1757
 8492SOL    HW226287   4.697   2.773   0.596  2.1465 -0.3585  1.2747
 8493SOL     OW26288   5.088   1.706   0.228  0.2079 -0.1491  0.5457
 8493SOL    HW126289   5.138   1.748   0.298  0.6726  0.9779 -0.4281
 8493SOL    HW226290   5.063   1.778   0.170 -0.1751 -1.0534 -0.4495
 8494SOL     OW26291   1.324   1.128   4.426  0.2437 -0.4088  0.3579
 8494SOL    HW126292   1.230   1.109   4.430  0.4706 -1.4811  0.7078
 8494SOL    HW226293   1.328   1.219   4.397 -0.8884 -0.5847 -0.4188
 8495SOL     OW26294   4.839   3.507   5.531 -0.4321 -0.0707 -0.0865
 8495SOL    HW126295   4.757   3.555   5.529 -0.9092 -0.7874  1.1792
 8495SOL    HW226296   4.836   3.457   5.612  1.2249 -0.1706 -0.0443
 8496SOL     OW26297   6.977   1.081   2.786  0.1998 -0.3634 -0.2927
 8496SOL    HW126298   6.936   1.001   2.819 -0.4191  0.0756  0.0416
 8496SOL    HW226299   6.943   1.091   2.697  0.1875 -0.4079 -0.2930
 8497SOL     OW26300   0.957   7.245   7.322  0.0513 -0.5579  0.2270
 8497SOL    HW126301   0.888   7.302   7.288 -0.4191 -0.4312  1.3323
 8497SOL    HW226302   0.911   7.164   7.343  0.3283 -0.6335  0.5345
 8498SOL     OW26303   2.614   4.455   3.524 -0.3531 -0.0647 -0.2484
 8498SOL    HW126304   2.594   4.524   3.461 -1.1250 -0.0817 -0.0298
 8498SOL    HW226305   2.551   4.469   3.595 -0.3389 -0.8343 -0.0801
 8499SOL     OW26306   1.599   7.095   2.497  1.0356 -0.2848 -0.1654
 8499SOL    HW126307   1.553   7.024   2.541  1.9559 -0.0287  1.2654
 8499SOL    HW226308   1.672   7.053   2.452  0.2522 -0.5103 -1.2683
 8500SOL     OW26309   2.507   4.573   7.397  0.3339 -0.1361 -0.2222
 8500SOL    HW126310   2.534   4.482   7.385  1.6064 -0.1986  2.3947
 8500SOL    HW226311   2.415   4.569   7.422  1.0402 -1.0386  2.5719
 8501SOL     OW26312   1.630   5.720   4.819  0.0156 -0.0641 -0.7696
 8501SOL    HW126313   1.668   5.801   4.853  2.0455 -1.1054 -0.3718
 8501SOL    HW226314   1.538   5.740   4.807  0.6775  2.7269 -2.0186
 8502SOL     OW26315   4.497   1.608   1.277 -0.3273  0.2003 -0.0400
 8502SOL    HW126316   4.506   1.654   1.360 -0.3006  0.1272 -0.0026
 8502SOL    HW226317   4.585   1.611   1.238  0.3170 -1.9761  1.0854
 8503SOL     OW26318   0.929   1.344   2.058 -0.3886  0.3602 -0.2151
 8503SOL    HW126319   0.894   1.256   2.074  0.6374  0.0117  0.1474
 8503SOL    HW226320   0.949   1.346   1.965  1.8883 -0.6759  0.1830
 8504SOL     OW26321   6.729   6.476   3.412 -0.1697  0.6409 -0.3494
 8504SOL    HW126322   6.672   6.550   3.433 -0.6000  0.3316 -0.4212
 8504SOL    HW226323   6.778   6.504   3.334  0.0410  1.0468 -0.0723
 8505SOL     OW26324   1.294   7.841   7.137  0.3295 -0.2657  0.2461
 8505SOL    HW126325   1.268   7.808   7.222  0.4111 -1.9899 -0.3650
 8505SOL    HW226326   1.389   7.849   7.142  0.4758 -1.5819 -0.0601
 8506SOL     OW26327   5.359   1.949   1.402  0.0930 -0.0883  0.6901
 8506SOL    HW126328   5.322   1.861   1.412 -1.1010 -0.0285 -2.1041
 8506SOL    HW226329   5.451   1.935   1.381 -0.2444 -0.7727 -0.4374
 8507SOL     OW26330   4.553   4.101   3.831 -0.2130 -0.0461  0.0175
 8507SOL    HW126331   4.480   4.041   3.821 -1.2667  1.2761 -0.4276
 8507SOL    HW226332   4.550   4.157   3.753 -0.0605  1.4095  1.0117
 8508SOL     OW26333   5.257   6.361   3.978 -0.1011 -0.1151  0.1035
 8508SOL    HW126334   5.269   6.362   4.073  1.4808 -2.4960  0.0214
 8508SOL    HW226335   5.247   6.268   3.956 -0.3808  0.3793 -2.0759
 8509SOL     OW26336   6.453   7.086   0.474  0.1568 -0.3947  0.1263
 8509SOL    HW126337   6.495   7.036   0.543 -1.3774 -0.4137  1.0862
 8509SOL    HW226338   6.416   7.162   0.519  0.7986  0.6204 -1.0017
 8510SOL     OW26339   3.741   7.174   4.332 -0.0657  0.1915  0.0364
 8510SOL    HW126340   3.674   7.189   4.265  0.0867  0.6873 -0.0080
 8510SOL    HW226341   3.774   7.086   4.313  0.0317  0.3550 -0.5925
 8511SOL     OW26342   0.423   5.211   6.811  0.3739  0.1424 -0.3392
 8511SOL    HW126343   0.470   5.264   6.874  2.2284  0.5745 -1.9783
 8511SOL    HW226344   0.401   5.131   6.858  0.4941  0.9688  1.1960
 8512SOL     OW26345   7.983   6.893   3.649  0.1254 -0.1450 -0.6037
 8512SOL    HW126346   8.059   6.932   3.607  0.3228 -0.1659 -0.2694
 8512SOL    HW226347   7.960   6.955   3.719  0.0891 -0.3427 -0.4413
 8513SOL     OW26348   7.271   0.243   3.043 -0.1024 -0.0313  0.3018
 8513SOL    HW126349   7.279   0.216   2.951  1.5260  1.7415 -0.1577
 8513SOL    HW226350   7.359   0.228   3.079 -1.3105 -3.0616  2.3566
 8514SOL     OW26351   4.045   6.004   7.434  0.3160  0.5343  0.5926
 8514SOL    HW126352   3.966   6.045   7.398 -0.7139 -0.4943  1.5716
 8514SOL    HW226353   4.084   6.070   7.490  0.5907  1.3142 -0.4948
 8515SOL     OW26354   6.128   6.980   5.908  0.2204 -0.2738 -0.1389
 8515SOL    HW126355   6.087   6.894   5.897 -2.7821  0.8652  1.3063
 8515SOL    HW226356   6.108   7.006   5.997  1.5940  1.7149 -0.3375
 8516SOL     OW26357   2.830   1.980   0.078  0.1735  0.2541 -0.2324
 8516SOL    HW126358   2.759   2.038   0.107  0.3174  0.4233 -0.2146
 8516SOL    HW226359   2.805   1.954  -0.011  0.6483  1.2346 -0.6721
 8517SOL     OW26360   5.226   6.552   4.774 -0.2153 -0.3720 -0.4427
 8517SOL    HW126361   5.186   6.615   4.714  1.1986  0.1376 -0.8840
 8517SOL    HW226362   5.320   6.559   4.758  0.1828 -0.4888  1.5852
 8518SOL     OW26363   3.078   7.484   4.509 -0.0882  0.3428 -0.0547
 8518SOL    HW126364   3.047   7.439   4.430  0.7874  0.1011 -0.2732
 8518SOL    HW226365   3.136   7.553   4.475  0.5965 -0.0038  0.3799
 8519SOL     OW26366   2.815   2.273   3.011 -0.7088  0.6316  0.3023
 8519SOL    HW126367   2.873   2.248   3.082 -1.0697 -0.1799  0.3130
 8519SOL    HW226368   2.776   2.356   3.040  0.7746  1.4482  0.0978
 8520SOL     OW26369   6.838   2.589   5.750 -0.0046 -1.3400  0.1878
 8520SOL    HW126370   6.904   2.544   5.697  1.2302 -1.1341  1.4976
 8520SOL    HW226371   6.803   2.522   5.808 -0.4192 -1.2806  0.0105
 8521SOL     OW26372   6.883   3.686   7.291 -0.2092  0.5088  0.2152
 8521SOL    HW126373   6.916   3.647   7.372 -0.1382 -0.0352 -0.0712
 8521SOL    HW226374   6.820   3.752   7.320  1.4500  1.9330  0.8190
 8522SOL     OW26375   5.144   4.417   2.857 -0.0567  0.2207  0.2609
 8522SOL    HW126376   5.224   4.432   2.908  1.0610 -2.9765 -0.3465
 8522SOL    HW226377   5.167   4.348   2.796 -2.1709  1.9600 -2.7655
 8523SOL     OW26378   4.765   1.698   0.120  0.1367 -0.4997 -0.2212
 8523SOL    HW126379   4.777   1.603   0.118  1.3227 -0.4596  1.7194
 8523SOL    HW226380   4.713   1.714   0.198 -1.0375  0.4022 -1.1573
 8524SOL     OW26381   1.736   5.619   4.467  0.0094  0.3665 -0.6120
 8524SOL    HW126382   1.820   5.586   4.498  1.2984  4.1725  0.5423
 8524SOL    HW226383   1.672   5.581   4.527  1.1423 -0.8514 -0.1087
 8525SOL     OW26384   6.936   7.662   6.686 -0.6556  0.1613  0.2297
 8525SOL    HW126385   6.990   7.586   6.707  1.0152  1.9188  2.8297
 8525SOL    HW226386   6.972   7.694   6.603 -0.4592 -1.0478 -0.1733
 8526SOL     OW26387   6.397   3.304   4.879 -0.1545  0.6827  0.1663
 8526SOL    HW126388   6.437   3.367   4.819  0.8922 -1.0205 -1.0262
 8526SOL    HW226389   6.313   3.282   4.837  0.4698 -0.3268 -0.6107
 8527SOL     OW26390   1.042   4.731   2.312 -0.0253  0.3107 -0.1103
 8527SOL    HW126391   1.097   4.678   2.370  3.0155  3.1011 -0.1377
 8527SOL    HW226392   0.957   4.686   2.311  0.8886 -1.8835  3.5176
 8528SOL     OW26393   2.186   1.804   3.301  0.2638  0.2488 -0.2632
 8528SOL    HW126394   2.166   1.793   3.208 -2.7692  1.5133  0.1114
 8528SOL    HW226395   2.249   1.876   3.305  3.9490 -2.6061 -1.4473
 8529SOL     OW26396   6.063   1.874   7.000 -0.1963  0.1471 -0.3047
 8529SOL    HW126397   6.008   1.820   6.943  1.4851 -2.4640  0.3624
 8529SOL    HW226398   6.100   1.941   6.941 -1.0290 -0.4651 -1.5709
 8530SOL     OW26399   5.510   7.267   1.568  0.4346 -0.3721  0.0391
 8530SOL    HW126400   5.548   7.199   1.513 -0.5096 -1.5860  0.8170
 8530SOL    HW226401   5.419   7.275   1.538  0.1363 -0.4792  0.8645
 8531SOL     OW26402   2.345   2.570   2.926 -0.1910 -0.3002  0.3686
 8531SOL    HW126403   2.300   2.502   2.875 -0.9463  0.3655  0.1210
 8531SOL    HW226404   2.404   2.522   2.983  0.3888 -1.0942 -0.8538
 8532SOL     OW26405   4.676   0.494   4.042 -0.3602 -0.0894  0.1084
 8532SOL    HW126406   4.749   0.544   4.079  0.6863 -2.2021  1.1042
 8532SOL    HW226407   4.643   0.441   4.114 -1.5559 -0.6685 -0.8211
 8533SOL     OW26408   1.232   6.007   7.640  0.6499  0.2059 -0.6547
 8533SOL    HW126409   1.299   6.074   7.625  0.7173  0.4026  0.4299
 8533SOL    HW226410   1.257   5.966   7.724 -0.2001 -0.1878 -0.5771
 8534SOL     OW26411   5.110   7.381   4.729 -0.3786 -0.0411 -0.1678
 8534SOL    HW126412   5.016   7.391   4.744 -0.3815 -0.1594 -0.0999
 8534SOL    HW226413   5.126   7.420   4.644 -0.2923  1.0365  0.3328
 8535SOL     OW26414   4.284   5.059   7.975 -0.2059  0.6828  0.2488
 8535SOL    HW126415   4.219   4.992   7.954  0.3815 -0.0567  0.7235
 8535SOL    HW226416   4.333   5.071   7.894  1.7368 -1.8048  0.9019
 8536SOL     OW26417   1.116   1.178   6.504 -1.0354 -0.0366  0.0050
 8536SOL    HW126418   1.170   1.223   6.569 -0.2342  0.8756 -1.2379
 8536SOL    HW226419   1.038   1.232   6.496 -1.3356 -0.3902  0.5207
 8537SOL     OW26420   1.692   2.149   6.025 -0.3399 -0.3071 -0.3498
 8537SOL    HW126421   1.733   2.186   5.947  0.6252  0.3549  0.4460
 8537SOL    HW226422   1.724   2.059   6.029  0.2881 -0.0829 -0.2590
 8538SOL     OW26423   3.383   6.311   6.370 -0.2176  0.1755  0.0189
 8538SOL    HW126424   3.290   6.320   6.350 -0.8671 -2.8757  1.0414
 8538SOL    HW226425   3.401   6.218   6.355  2.9362  0.8349 -1.0295
 8539SOL     OW26426   1.442   0.379   4.411  0.2064 -0.2027 -0.6773
 8539SOL    HW126427   1.434   0.469   4.442  1.4821 -0.3285  0.0778
 8539SOL    HW226428   1.371   0.369   4.347  1.0191  1.8169 -1.9814
 8540SOL     OW26429   5.215   5.202   2.061  0.6934 -0.0179  0.3047
 8540SOL    HW126430   5.261   5.285   2.076  1.4836 -0.4676  0.4541
 8540SOL    HW226431   5.179   5.179   2.147 -0.4109  0.6748  0.0388
 8541SOL     OW26432   3.733   4.572   3.546  0.7014  0.2877  0.5114
 8541SOL    HW126433   3.799   4.506   3.564  1.3081  1.1135  1.3601
 8541SOL    HW226434   3.725   4.622   3.627 -4.1508 -2.4520  2.1364
 8542SOL     OW26435   2.428   6.841   1.273 -0.7635 -0.4630 -0.1290
 8542SOL    HW126436   2.379   6.760   1.259 -0.2350 -1.0996  1.4871
 8542SOL    HW226437   2.520   6.815   1.266 -0.5822 -0.0669  0.6234
 8543SOL     OW26438   5.340   1.520   5.480  0.6249 -0.3128  0.0705
 8543SOL    HW126439   5.311   1.607   5.507  1.3466  1.6882 -4.6335
 8543SOL    HW226440   5.435   1.527   5.472  0.6920 -1.5158 -0.4072
 8544SOL     OW26441   6.110   6.074   5.219 -0.0073  0.3744  0.2025
 8544SOL    HW126442   6.062   5.992   5.233 -1.2216  0.9144 -0.5891
 8544SOL    HW226443   6.200   6.054   5.246  0.1431 -1.7257 -1.5104
 8545SOL     OW26444   5.873   0.408   7.964 -0.4229  0.0721  0.1627
 8545SOL    HW126445   5.809   0.458   8.015 -1.8418 -0.7165 -0.8036
 8545SOL    HW226446   5.873   0.321   8.004 -1.0946 -0.3718 -0.7774
 8546SOL     OW26447   1.944   2.592   7.808  0.4826  0.6804  0.6125
 8546SOL    HW126448   1.898   2.670   7.839 -0.5410  0.4928 -0.3662
 8546SOL    HW226449   2.015   2.626   7.754  0.1907  0.9425  0.3922
 8547SOL     OW26450   1.956   0.503   7.857 -0.6013  0.5979 -0.1495
 8547SOL    HW126451   2.034   0.543   7.898 -1.4804  1.0711  1.1311
 8547SOL    HW226452   1.970   0.409   7.869  0.1620  0.6319 -0.6791
 8548SOL     OW26453   6.349   3.203   7.665  0.3755  0.4201  0.6707
 8548SOL    HW126454   6.438   3.226   7.638  0.0322 -0.1530 -1.0756
 8548SOL    HW226455   6.329   3.123   7.617 -1.0544  0.4652  1.1407
 8549SOL     OW26456   2.043   6.630   2.900 -0.1093 -0.0719  0.3316
 8549SOL    HW126457   1.965   6.665   2.944  0.9324  0.9886  1.4013
 8549SOL    HW226458   2.112   6.636   2.966  1.1254 -0.0079 -0.9344
 8550SOL     OW26459   7.613   7.130   2.382  0.0216  0.3224 -0.1821
 8550SOL    HW126460   7.688   7.075   2.403  0.7337  0.1773 -2.7738
 8550SOL    HW226461   7.651   7.216   2.361 -0.5955  0.4497 -0.8280
 8551SOL     OW26462   4.488   7.076   3.460 -0.0086  0.3429 -0.2843
 8551SOL    HW126463   4.505   7.167   3.437 -1.7847  1.3242  1.8696
 8551SOL    HW226464   4.400   7.059   3.425 -0.4630  0.1205  0.9013
 8552SOL     OW26465   5.201   0.488   7.501 -0.3456  0.0483 -0.0479
 8552SOL    HW126466   5.205   0.516   7.593  0.7624 -0.2599  0.0038
 8552SOL    HW226467   5.153   0.405   7.503 -0.9148  0.3761  0.1639
 8553SOL     OW26468   5.944   5.946   4.544 -0.3486 -0.7059 -0.7995
 8553SOL    HW126469   6.015   5.914   4.598 -0.0387 -3.8793 -2.8454
 8553SOL    HW226470   5.982   5.956   4.457 -2.0135 -0.9554 -1.6076
 8554SOL     OW26471   2.613   5.866   1.357 -0.0022  0.3494  0.0225
 8554SOL    HW126472   2.684   5.801   1.358  0.3040  0.6708 -0.3789
 8554SOL    HW226473   2.601   5.889   1.449 -0.6216 -0.8058  0.2618
 8555SOL     OW26474   0.272   4.191   1.968 -0.4301  0.2182 -0.6636
 8555SOL    HW126475   0.353   4.165   2.013 -0.5430  0.9176 -0.0425
 8555SOL    HW226476   0.223   4.240   2.033 -1.0101  0.4770 -1.2824
 8556SOL     OW26477   2.757   3.543   1.024 -0.5269 -0.2889  0.2676
 8556SOL    HW126478   2.733   3.451   1.008  0.3982 -0.5496  0.2991
 8556SOL    HW226479   2.696   3.572   1.091 -0.2874 -1.1579  0.8919
 8557SOL     OW26480   0.368   1.985   7.121 -0.1351 -0.5540  0.2891
 8557SOL    HW126481   0.319   1.903   7.119 -1.2802  0.1157 -0.2793
 8557SOL    HW226482   0.312   2.045   7.170 -0.1749  0.3985 -0.8952
 8558SOL     OW26483   0.835   0.777   7.303 -0.1962 -0.5501 -0.1130
 8558SOL    HW126484   0.901   0.727   7.256 -1.1055 -0.6952 -1.2730
 8558SOL    HW226485   0.875   0.794   7.389  1.4849 -0.3121 -0.8945
 8559SOL     OW26486   0.713   6.282   3.783  0.2005 -0.5959  0.2216
 8559SOL    HW126487   0.671   6.295   3.868  0.7985 -0.5953  0.5217
 8559SOL    HW226488   0.774   6.355   3.774  0.5593 -0.9128  0.0530
 8560SOL     OW26489   7.750   1.672   0.681  0.2064  1.1765  0.2411
 8560SOL    HW126490   7.725   1.764   0.669 -1.5443  0.6601 -0.3338
 8560SOL    HW226491   7.693   1.624   0.622  1.6031 -0.2478 -0.0096
 8561SOL     OW26492   2.644   7.436   0.362 -0.4326  0.2068  0.3670
 8561SOL    HW126493   2.576   7.486   0.319 -0.2370  0.0322 -0.1469
 8561SOL    HW226494   2.607   7.348   0.370  0.5257 -0.4524 -1.8522
 8562SOL     OW26495   7.272   6.340   2.621 -0.6381  0.8715 -1.0606
 8562SOL    HW126496   7.275   6.352   2.526 -0.0792  0.6543 -1.0757
 8562SOL    HW226497   7.364   6.337   2.648 -0.7183  3.3611 -0.1932
 8563SOL     OW26498   5.389   1.732   4.359 -0.5860 -0.2253 -0.0918
 8563SOL    HW126499   5.454   1.669   4.391  0.0242 -0.0119 -0.8751
 8563SOL    HW226500   5.332   1.681   4.302 -0.4228 -0.1879 -0.2910
 8564SOL     OW26501   2.104   1.176   3.173 -0.0855 -0.4710 -0.6722
 8564SOL    HW126502   2.078   1.084   3.164 -0.2342 -0.2947 -2.3214
 8564SOL    HW226503   2.198   1.172   3.193 -0.0260 -0.9813 -1.0310
 8565SOL     OW26504   4.397   6.786   7.745 -0.4073 -0.0574  0.7582
 8565SOL    HW126505   4.368   6.717   7.804 -1.3413 -0.6846 -0.3887
 8565SOL    HW226506   4.336   6.858   7.760 -0.0261  0.1647  1.2642
 8566SOL     OW26507   4.586   1.830   5.202 -0.2045  0.4045  0.4557
 8566SOL    HW126508   4.528   1.896   5.166 -0.4898  0.0869  0.3268
 8566SOL    HW226509   4.670   1.875   5.214 -0.8941  1.3098  2.1387
 8567SOL     OW26510   6.648   7.921   5.015 -0.0199  0.0478 -0.4129
 8567SOL    HW126511   6.566   7.935   4.968  1.0640 -1.1166 -2.8267
 8567SOL    HW226512   6.667   7.828   5.003  1.4398  0.1987  0.4776
 8568SOL     OW26513   6.205   4.820   2.537  0.3883 -0.2853  0.3813
 8568SOL    HW126514   6.172   4.796   2.450 -0.2043 -1.0705  0.8145
 8568SOL    HW226515   6.154   4.898   2.561 -1.0232 -1.3294  0.9316
 8569SOL     OW26516   1.210   5.555   4.367 -0.6226 -0.5275 -0.1845
 8569SOL    HW126517   1.277   5.496   4.334  0.4007  0.5350 -0.0630
 8569SOL    HW226518   1.154   5.573   4.291 -0.6624 -1.2476 -0.3357
 8570SOL     OW26519   1.624   4.013   7.651  0.0244 -0.3810 -0.9455
 8570SOL    HW126520   1.610   3.919   7.666 -0.0203 -0.0299  1.7363
 8570SOL    HW226521   1.719   4.025   7.663  0.0601 -0.0909 -1.4723
 8571SOL     OW26522   3.928   6.111   1.412 -0.0821 -0.3740  0.1542
 8571SOL    HW126523   3.884   6.045   1.465  0.7441  0.4773  1.9605
 8571SOL    HW226524   4.021   6.097   1.428  0.4235 -1.6666 -3.0128
 8572SOL     OW26525   7.548   1.488   3.927  0.4052 -0.4496  0.1985
 8572SOL    HW126526   7.571   1.498   3.835 -0.1584 -2.0865 -0.1472
 8572SOL    HW226527   7.460   1.450   3.926 -1.2718  2.9807  1.4597
 8573SOL     OW26528   5.024   0.663   6.435  0.6658  0.0219  0.1234
 8573SOL    HW126529   5.064   0.586   6.475 -0.8267 -0.5612  0.5463
 8573SOL    HW226530   5.041   0.653   6.341 -1.2065 -1.9051 -0.0775
 8574SOL     OW26531   7.602   1.739   6.695 -0.0244 -0.1006  0.1122
 8574SOL    HW126532   7.676   1.713   6.640 -1.9936 -0.6038 -2.4883
 8574SOL    HW226533   7.584   1.830   6.671  0.8563  0.6697  2.1362
 8575SOL     OW26534   2.344   1.239   4.486 -0.3914  0.0837  0.1699
 8575SOL    HW126535   2.397   1.168   4.521 -1.0098  0.1726  1.3162
 8575SOL    HW226536   2.277   1.255   4.552  0.3949  2.5085  0.4904
 8576SOL     OW26537   2.466   6.205   7.335 -0.4941 -0.0553 -0.3092
 8576SOL    HW126538   2.478   6.264   7.260 -0.6128 -2.3751 -2.2837
 8576SOL    HW226539   2.371   6.201   7.348 -0.4323  1.0036  0.5594
 8577SOL     OW26540   5.173   0.119   2.899 -1.1721 -0.1867  0.0414
 8577SOL    HW126541   5.183   0.139   2.992  1.0403 -1.4793  0.1669
 8577SOL    HW226542   5.142   0.029   2.897  0.8309 -0.9196 -0.4018
 8578SOL     OW26543   3.476   1.154   5.567 -0.2178  1.1597 -0.2524
 8578SOL    HW126544   3.486   1.133   5.660 -0.0891 -0.9000 -0.6750
 8578SOL    HW226545   3.563   1.140   5.530 -0.9910 -1.7371 -1.2718
 8579SOL     OW26546   5.238   6.697   0.104  0.5919  0.0858  0.2122
 8579SOL    HW126547   5.150   6.667   0.081  0.3650  0.8282  0.0985
 8579SOL    HW226548   5.291   6.678   0.027  0.1912  1.0466 -0.3161
 8580SOL     OW26549   4.676   4.058   1.193 -0.2541 -0.1614 -0.3565
 8580SOL    HW126550   4.642   4.137   1.236  1.8248  1.1179 -0.8914
 8580SOL    HW226551   4.771   4.066   1.201  0.0249 -2.6235 -0.4996
 8581SOL     OW26552   6.504   3.605   7.261  0.4235  0.3966 -0.1156
 8581SOL    HW126553   6.535   3.663   7.191 -1.5399  0.0448 -1.3604
 8581SOL    HW226554   6.511   3.658   7.341  2.6276  0.8365 -0.5420
 8582SOL     OW26555   4.493   0.906   6.478  0.0362 -0.0132  0.4046
 8582SOL    HW126556   4.413   0.856   6.492 -0.2129  0.4705  0.6895
 8582SOL    HW226557   4.561   0.853   6.521  0.0518 -0.9271 -0.6824
 8583SOL     OW26558   5.882   3.486   2.588  0.9671 -0.1812 -0.5567
 8583SOL    HW126559   5.885   3.581   2.595  1.8887 -0.2933  1.2344
 8583SOL    HW226560   5.859   3.469   2.497  0.4929  1.7466 -0.8371
 8584SOL     OW26561   3.592   4.718   4.289 -0.5329  0.4130  0.1804
 8584SOL    HW126562   3.522   4.653   4.285 -0.5114  0.3193  1.2196
 8584SOL    HW226563   3.622   4.716   4.380  1.7079 -0.5014 -0.5158
 8585SOL     OW26564   2.022   7.529   2.523 -0.0839  0.2141 -0.7413
 8585SOL    HW126565   1.979   7.446   2.543  1.3561 -0.1614  1.1465
 8585SOL    HW226566   1.956   7.580   2.477 -0.6601 -2.3523 -2.9844
 8586SOL     OW26567   5.281   4.846   7.946 -0.1240 -0.4456  0.5800
 8586SOL    HW126568   5.220   4.912   7.913 -0.2970 -0.8883 -0.0028
 8586SOL    HW226569   5.367   4.886   7.936 -0.0635 -0.9978 -1.5362
 8587SOL     OW26570   0.830   3.402   1.439 -0.2289  0.2464 -0.0345
 8587SOL    HW126571   0.898   3.384   1.504 -1.2295 -0.0736  0.9670
 8587SOL    HW226572   0.846   3.492   1.411  0.1742  0.4170  0.7325
 8588SOL     OW26573   7.446   4.724   3.836  0.2748  0.0356  0.5309
 8588SOL    HW126574   7.370   4.679   3.872  0.7133  0.5797  2.2353
 8588SOL    HW226575   7.433   4.816   3.860  1.2699  0.1969  0.4819
 8589SOL     OW26576   5.428   6.103   3.567 -0.0152 -0.2470  0.2402
 8589SOL    HW126577   5.490   6.073   3.634 -0.1146  0.3255  0.5951
 8589SOL    HW226578   5.469   6.080   3.484  0.9164  0.5892  0.4623
 8590SOL     OW26579   3.036   6.740   5.453  0.1144 -0.2699 -0.0792
 8590SOL    HW126580   3.023   6.645   5.455  0.0170 -0.2481  0.6045
 8590SOL    HW226581   2.955   6.775   5.416 -1.0110 -0.2763  2.2263
 8591SOL     OW26582   5.171   5.705   6.470 -0.5016  0.3078  0.0551
 8591SOL    HW126583   5.170   5.674   6.561 -1.7822 -0.5107 -0.2124
 8591SOL    HW226584   5.214   5.635   6.421 -1.6753 -0.2239 -0.2581
 8592SOL     OW26585   3.258   1.686   1.177 -0.3311 -0.6424 -0.4224
 8592SOL    HW126586   3.307   1.695   1.259 -0.4446 -0.3609 -0.3845
 8592SOL    HW226587   3.267   1.594   1.154 -0.4744 -0.7702  0.0197
 8593SOL     OW26588   4.075   5.842   0.435  0.3201 -0.1742  0.6004
 8593SOL    HW126589   4.135   5.778   0.473  1.0586 -0.0941 -0.3824
 8593SOL    HW226590   3.991   5.797   0.430  0.8814 -1.1686 -0.2926
 8594SOL     OW26591   7.031   6.584   2.777  0.0474 -0.5421  0.0773
 8594SOL    HW126592   7.008   6.493   2.793 -0.4488 -1.1017 -3.0895
 8594SOL    HW226593   7.052   6.587   2.684  1.1440  2.3844  0.3220
 8595SOL     OW26594   2.827   5.532   7.915  0.4296 -0.0270  0.1009
 8595SOL    HW126595   2.917   5.525   7.946  1.0787  0.8455 -1.4707
 8595SOL    HW226596   2.834   5.539   7.820 -1.3219 -0.1815 -0.0855
 8596SOL     OW26597   0.365   6.965   3.731  0.5271 -0.3169  0.6782
 8596SOL    HW126598   0.398   6.917   3.807 -0.9146 -0.5320  1.2026
 8596SOL    HW226599   0.292   7.016   3.765  0.4328  0.2952 -0.3957
 8597SOL     OW26600   6.901   6.657   6.326  0.5015  0.5187 -0.0980
 8597SOL    HW126601   6.884   6.563   6.328  0.0126  0.6126  0.4477
 8597SOL    HW226602   6.844   6.691   6.257  1.5886  0.2510 -1.1533
 8598SOL     OW26603   1.335   5.902   6.710  0.2921 -0.4714 -0.2589
 8598SOL    HW126604   1.360   5.826   6.657 -0.1797 -0.8428  0.0398
 8598SOL    HW226605   1.244   5.919   6.685  0.7469  0.7267 -1.1812
 8599SOL     OW26606   2.685   6.388   0.155 -0.8544 -0.0653  0.0304
 8599SOL    HW126607   2.711   6.298   0.136 -0.4035  0.2033 -0.6564
 8599SOL    HW226608   2.677   6.391   0.250 -0.3564 -0.6941  0.0976
 8600SOL     OW26609   2.902   6.474   1.714  0.4776  0.6487 -0.3715
 8600SOL    HW126610   2.960   6.410   1.671  0.8993  0.9465 -0.2472
 8600SOL    HW226611   2.888   6.438   1.801  0.2866  0.4611 -0.4777
 8601SOL     OW26612   0.748   5.660   1.543 -0.5468 -0.0893 -0.1403
 8601SOL    HW126613   0.779   5.649   1.453 -0.9834 -0.0454 -0.3008
 8601SOL    HW226614   0.653   5.650   1.536 -0.4948 -1.1973  0.4846
 8602SOL     OW26615   0.049   1.872   1.575  0.1617 -0.4898 -0.3090
 8602SOL    HW126616   0.078   1.961   1.555  0.9078 -0.5546  0.4254
 8602SOL    HW226617   0.034   1.872   1.669  0.3007 -1.1780 -0.2823
 8603SOL     OW26618   7.644   6.770   7.473 -0.3111  0.8460 -0.1644
 8603SOL    HW126619   7.707   6.718   7.423 -0.3082  1.9043 -1.3335
 8603SOL    HW226620   7.559   6.742   7.441 -0.3680  0.5739  0.2234
 8604SOL     OW26621   3.640   5.744   1.198  0.0208 -0.7609 -0.1321
 8604SOL    HW126622   3.634   5.720   1.290 -0.5456 -0.1098  0.0124
 8604SOL    HW226623   3.673   5.665   1.154  0.7297 -0.9318  0.6842
 8605SOL     OW26624   4.390   4.610   5.116  0.4491 -0.2976 -0.6285
 8605SOL    HW126625   4.302   4.597   5.081 -0.8501  0.6609  1.9957
 8605SOL    HW226626   4.420   4.523   5.139 -0.9768 -0.4454  0.8777
 8606SOL     OW26627   0.539   7.714   5.653 -0.4064  0.0811 -0.1759
 8606SOL    HW126628   0.472   7.646   5.645 -1.4183  1.0726 -0.1997
 8606SOL    HW226629   0.500   7.781   5.709  0.7309  0.4841  0.1746
 8607SOL     OW26630   7.773   7.885   2.107 -0.4122  0.2005 -0.2055
 8607SOL    HW126631   7.865   7.865   2.089 -0.1136  0.8982  0.5195
 8607SOL    HW226632   7.744   7.932   2.029 -0.0184  0.4216 -0.2210
 8608SOL     OW26633   1.140   4.986   4.029 -0.3510  0.1707  0.2669
 8608SOL    HW126634   1.190   5.025   3.957 -1.4152  0.2917 -0.4266
 8608SOL    HW226635   1.127   5.057   4.091  1.6073 -0.2164  1.2021
 8609SOL     OW26636   2.080   7.351   5.818 -0.1383 -0.5883 -0.1116
 8609SOL    HW126637   2.118   7.361   5.906  0.1946 -1.4886 -0.1480
 8609SOL    HW226638   2.064   7.257   5.809 -1.8201 -0.3257 -0.3318
 8610SOL     OW26639   3.612   4.685   3.027  0.1564  0.4091 -0.2114
 8610SOL    HW126640   3.553   4.749   2.988 -0.0303  0.8672  0.7853
 8610SOL    HW226641   3.593   4.689   3.121  1.1802 -0.0401  0.0309
 8611SOL     OW26642   1.137   1.479   0.644 -0.2101 -0.0916  0.0972
 8611SOL    HW126643   1.109   1.554   0.696 -0.0634  0.9030 -1.1997
 8611SOL    HW226644   1.136   1.511   0.553  0.7360 -1.3813 -0.4012
 8612SOL     OW26645   7.007   3.224   3.288 -0.2540  0.3772 -0.2356
 8612SOL    HW126646   7.069   3.151   3.294 -0.2443  0.3515 -0.6215
 8612SOL    HW226647   6.939   3.192   3.229 -0.7310  0.3375  0.3334
 8613SOL     OW26648   2.809   4.594   0.722  0.4441 -0.8452 -0.2723
 8613SOL    HW126649   2.814   4.669   0.781 -0.5101 -0.7005 -0.3616
 8613SOL    HW226650   2.757   4.529   0.770  0.9696 -1.3295 -0.3362
 8614SOL     OW26651   7.363   5.264   3.246  0.3210  0.2769 -0.7870
 8614SOL    HW126652   7.376   5.353   3.278  0.6248  0.7740 -2.2293
 8614SOL    HW226653   7.268   5.253   3.242  0.2785  0.1519  0.3909
 8615SOL     OW26654   3.195   5.598   1.917  0.3804  0.0732  0.4710
 8615SOL    HW126655   3.184   5.536   1.990 -0.7039 -0.4519 -0.1229
 8615SOL    HW226656   3.254   5.665   1.952 -1.6853  0.9544  2.5459
 8616SOL     OW26657   5.426   2.279   5.336 -0.0439  0.0336 -0.2037
 8616SOL    HW126658   5.348   2.230   5.360 -0.5616  0.6830 -0.5419
 8616SOL    HW226659   5.451   2.245   5.251 -0.0333 -0.0858 -0.1527
 8617SOL     OW26660   0.586   5.360   3.097  0.0427  0.6120 -0.5930
 8617SOL    HW126661   0.646   5.330   3.028  0.5327  1.5854 -0.5972
 8617SOL    HW226662   0.528   5.422   3.054  0.0637  0.8877 -0.2280
 8618SOL     OW26663   3.058   7.257   0.102  0.2109  0.0405 -0.2414
 8618SOL    HW126664   3.134   7.261   0.045  0.6390  0.6158  0.3563
 8618SOL    HW226665   3.063   7.336   0.155  0.7486 -1.2547  1.7495
 8619SOL     OW26666   2.954   6.060   6.756 -0.1091 -0.0371 -0.1509
 8619SOL    HW126667   2.926   5.984   6.807 -0.1428 -0.8598 -1.3493
 8619SOL    HW226668   3.049   6.054   6.754 -0.1264 -0.2077 -0.4827
 8620SOL     OW26669   1.411   5.113   2.414  0.0428  0.3920  0.0989
 8620SOL    HW126670   1.319   5.088   2.405 -0.4926  2.4464 -0.7105
 8620SOL    HW226671   1.453   5.080   2.335 -0.5621  1.6011 -0.7617
 8621SOL     OW26672   3.220   6.588   5.849 -0.6577 -0.2551 -0.0513
 8621SOL    HW126673   3.304   6.635   5.849 -1.7089  1.7774 -0.7238
 8621SOL    HW226674   3.231   6.518   5.913  1.6134 -0.1887 -0.2887
 8622SOL     OW26675   6.672   5.622   0.629 -0.0206 -0.1354  0.1118
 8622SOL    HW126676   6.727   5.651   0.557  0.7385 -1.1897  0.2357
 8622SOL    HW226677   6.597   5.681   0.627  1.6645  2.1720  0.7287
 8623SOL     OW26678   4.832   6.199   7.351 -0.1763  0.2766  0.0720
 8623SOL    HW126679   4.834   6.152   7.435 -1.0156  0.8424  0.4195
 8623SOL    HW226680   4.772   6.272   7.366  1.5292  1.8224 -0.2744
 8624SOL     OW26681   0.437   6.955   2.609 -0.3078  0.4348  0.6845
 8624SOL    HW126682   0.457   6.990   2.695  0.8808  1.8942 -0.1237
 8624SOL    HW226683   0.360   7.005   2.580 -1.1283 -0.5339  1.1509
 8625SOL     OW26684   3.074   2.072   0.807 -0.2024  0.0645  0.3752
 8625SOL    HW126685   3.141   2.139   0.796  0.1042 -0.3811 -0.5424
 8625SOL    HW226686   3.122   1.989   0.804 -0.3145 -0.2192  3.2459
 8626SOL     OW26687   7.988   1.045   6.157  0.3506 -0.4202  0.5056
 8626SOL    HW126688   7.973   0.986   6.231 -2.7887  0.4821  0.7391
 8626SOL    HW226689   7.920   1.022   6.094  1.6248  0.2889 -1.1948
 8627SOL     OW26690   4.445   3.428   0.759 -0.2569  0.0513  0.4659
 8627SOL    HW126691   4.393   3.478   0.823 -0.3843  1.6741 -0.8285
 8627SOL    HW226692   4.438   3.338   0.789 -3.0357  0.3139  0.9369
 8628SOL     OW26693   5.044   3.655   5.722  0.2159 -0.5601  0.2388
 8628SOL    HW126694   5.011   3.566   5.729  2.3014 -1.3277  1.2252
 8628SOL    HW226695   5.043   3.675   5.629 -1.6673 -1.0046  0.1244
 8629SOL     OW26696   4.468   5.219   5.863  0.2358  0.1204  0.0595
 8629SOL    HW126697   4.412   5.248   5.791  1.3448  0.9827 -0.4854
 8629SOL    HW226698   4.491   5.129   5.840 -0.8040 -0.2030  0.2292
 8630SOL     OW26699   6.276   3.975   0.005 -0.1757 -0.2893  0.0075
 8630SOL    HW126700   6.289   3.888  -0.034  1.1844  0.2998 -0.9094
 8630SOL    HW226701   6.280   4.035  -0.068  2.1020  0.8181  0.9364
 8631SOL     OW26702   6.864   7.649   4.767 -0.1622  0.0723 -0.0081
 8631SOL    HW126703   6.824   7.575   4.721 -2.5305  1.9170 -1.1639
 8631SOL    HW226704   6.815   7.654   4.849  0.0156  0.3182  0.0811
 8632SOL     OW26705   6.216   7.434   4.571 -0.6086 -0.3546 -0.2595
 8632SOL    HW126706   6.175   7.362   4.525 -2.5529  2.0544 -2.6211
 8632SOL    HW226707   6.300   7.447   4.527  0.0832 -1.5003  0.6408
 8633SOL     OW26708   0.715   7.123   0.568  0.3818  0.0764  0.3069
 8633SOL    HW126709   0.808   7.104   0.574  0.0729 -1.1717  1.6553
 8633SOL    HW226710   0.685   7.074   0.491  0.5580 -0.8358  0.8026
 8634SOL     OW26711   2.523   7.676   0.249 -0.6778 -0.7715  0.0063
 8634SOL    HW126712   2.481   7.671   0.163 -0.4581 -0.5522 -0.1150
 8634SOL    HW226713   2.526   7.770   0.268 -3.1803 -0.8873  1.4657
 8635SOL     OW26714   6.299   4.100   1.611  0.0760  0.0715  0.1725
 8635SOL    HW126715   6.232   4.082   1.677 -1.5899 -0.4184 -1.5683
 8635SOL    HW226716   6.290   4.194   1.593 -1.6984 -0.3680 -1.5759
 8636SOL     OW26717   7.472   3.053   7.488  0.3564 -0.0746 -0.0748
 8636SOL    HW126718   7.472   3.003   7.406  2.5991  1.0797 -0.8698
 8636SOL    HW226719   7.384   3.090   7.494  0.1001 -0.3091 -1.9029
 8637SOL     OW26720   3.535   5.645   0.441  0.3035  0.0078 -0.1841
 8637SOL    HW126721   3.510   5.693   0.362  0.5634  0.2791 -0.1019
 8637SOL    HW226722   3.500   5.557   0.427 -1.5772  0.6319  0.3770
 8638SOL     OW26723   1.481   5.569   7.122 -0.3933 -0.4009 -0.5197
 8638SOL    HW126724   1.530   5.609   7.050  0.2421  1.2284  0.7533
 8638SOL    HW226725   1.541   5.505   7.160 -0.5019 -0.8050 -1.0135
 8639SOL     OW26726   3.065   7.734   0.403  0.3359  0.4201 -0.2567
 8639SOL    HW126727   3.048   7.669   0.471 -2.1691 -1.4398 -2.4572
 8639SOL    HW226728   3.003   7.805   0.421  2.1529  1.7069  1.3610
 8640SOL     OW26729   3.669   7.931   1.017  0.3773  0.3067 -0.3924
 8640SOL    HW126730   3.746   7.945   1.071  0.1075 -1.1086  0.4064
 8640SOL    HW226731   3.696   7.956   0.929  0.8638  2.5197  0.3356
 8641SOL     OW26732   5.966   2.480   1.614 -0.0147  0.1627 -0.5820
 8641SOL    HW126733   5.959   2.387   1.592  0.3326  0.0950 -0.4115
 8641SOL    HW226734   5.910   2.491   1.691 -1.1956  0.3885 -1.4479
 8642SOL     OW26735   6.247   7.747   2.741  0.4549  0.4553 -0.1366
 8642SOL    HW126736   6.206   7.786   2.664  0.8263  0.0261 -0.5546
 8642SOL    HW226737   6.181   7.686   2.775  0.4942  0.2489 -0.4269
 8643SOL     OW26738   2.923   4.556   2.475 -0.2059 -0.2824 -0.5304
 8643SOL    HW126739   2.923   4.463   2.453 -0.4809 -0.2012 -0.8807
 8643SOL    HW226740   2.889   4.560   2.564 -0.4588 -0.4961 -0.6170
 8644SOL     OW26741   0.409   2.303   6.277 -0.0067 -0.0552 -0.5235
 8644SOL    HW126742   0.421   2.227   6.221  1.4401  0.9321 -1.6417
 8644SOL    HW226743   0.495   2.315   6.319 -1.0045 -0.6863  1.8690
 8645SOL     OW26744   6.405   5.194   7.648  0.0570  0.3686 -0.8922
 8645SOL    HW126745   6.443   5.242   7.575  2.2243 -0.2496 -0.2716
 8645SOL    HW226746   6.349   5.257   7.692 -1.8445  0.5774 -3.4008
 8646SOL     OW26747   7.160   2.681   4.869  0.0911  0.6916  0.2008
 8646SOL    HW126748   7.242   2.632   4.859  0.1098  0.5280  1.0809
 8646SOL    HW226749   7.133   2.701   4.780 -0.7657 -2.3519 -0.3493
 8647SOL     OW26750   0.001   3.187   5.238 -0.2892  0.1784 -0.6083
 8647SOL    HW126751  -0.001   3.118   5.172  2.1466  1.0367 -1.7237
 8647SOL    HW226752   0.078   3.167   5.291 -0.2803  1.3320 -0.1528
 8648SOL     OW26753   2.672   6.953   2.711 -0.1777 -0.3077 -0.6098
 8648SOL    HW126754   2.611   6.904   2.656 -1.0949  0.4454 -0.2916
 8648SOL    HW226755   2.673   7.041   2.673 -0.9498  0.2704  0.6432
 8649SOL     OW26756   0.611   1.869   2.685 -0.0206  0.1194  0.5862
 8649SOL    HW126757   0.516   1.873   2.700 -0.6174  1.7352 -2.6914
 8649SOL    HW226758   0.639   1.960   2.686  1.0260 -0.1581 -0.6783
 8650SOL     OW26759   7.213   7.843   5.356 -0.0132 -0.4156  0.1480
 8650SOL    HW126760   7.294   7.871   5.397  1.2127 -0.1605 -2.2878
 8650SOL    HW226761   7.240   7.797   5.276 -2.2483 -0.6601 -0.5496
 8651SOL     OW26762   4.358   7.741   0.284 -0.1948 -0.2012 -0.1898
 8651SOL    HW126763   4.275   7.698   0.264  0.0153 -0.4997 -0.4303
 8651SOL    HW226764   4.420   7.703   0.222 -0.6880  2.8724 -2.7745
 8652SOL     OW26765   1.782   4.607   5.424  0.5246 -0.4101 -0.1550
 8652SOL    HW126766   1.802   4.692   5.385  0.5194 -1.1933 -1.9345
 8652SOL    HW226767   1.785   4.545   5.351 -1.0080 -1.7126  0.8212
 8653SOL     OW26768   2.338   5.011   0.494 -0.2153 -0.1312 -0.0864
 8653SOL    HW126769   2.314   4.988   0.405 -3.0484  1.8425  0.0626
 8653SOL    HW226770   2.382   5.095   0.487  0.9408 -0.6746  0.2962
 8654SOL     OW26771   5.750   6.849   7.308  0.2721 -1.1376  0.0431
 8654SOL    HW126772   5.795   6.934   7.313 -0.6413 -0.6690  0.4831
 8654SOL    HW226773   5.819   6.785   7.327  0.8896 -0.4780  0.1103
 8655SOL     OW26774   1.246   3.461   4.236 -0.2457 -0.1096  0.3078
 8655SOL    HW126775   1.194   3.531   4.276 -0.6301 -0.5079  0.5073
 8655SOL    HW226776   1.322   3.506   4.199 -0.0448  0.3138  1.2026
 8656SOL     OW26777   3.743   6.163   5.905 -0.3804 -0.2035 -0.5725
 8656SOL    HW126778   3.740   6.147   5.810  0.0063 -0.0920 -0.6030
 8656SOL    HW226779   3.705   6.250   5.915  0.7655  0.3341 -0.7586
 8657SOL     OW26780   4.979   6.280   0.265  0.0418 -0.0503 -0.2177
 8657SOL    HW126781   4.988   6.309   0.356  0.3713  0.7636 -0.5027
 8657SOL    HW226782   5.064   6.243   0.244  0.0863  0.1045 -0.3111
 8658SOL     OW26783   7.432   1.733   0.990  0.1797  0.4956  0.2027
 8658SOL    HW126784   7.389   1.682   1.059  1.5880  1.6942  2.0804
 8658SOL    HW226785   7.361   1.766   0.936 -1.3291  2.2360  3.0259
 8659SOL     OW26786   7.501   0.291   3.962 -0.4245 -0.1142  0.3537
 8659SOL    HW126787   7.467   0.309   4.050 -0.7757 -0.6409  0.3353
 8659SOL    HW226788   7.526   0.199   3.965  0.3915  0.0958  0.1585
 8660SOL     OW26789   2.142   4.379   3.398 -0.2458  0.3475  0.3097
 8660SOL    HW126790   2.229   4.380   3.358 -0.4886 -0.8361 -0.2864
 8660SOL    HW226791   2.149   4.438   3.473  0.3831  2.2203 -1.1439
 8661SOL     OW26792   4.039   7.046   1.308 -0.2300 -0.5388 -0.3600
 8661SOL    HW126793   3.944   7.037   1.309 -0.4352  1.2407  0.7458
 8661SOL    HW226794   4.071   6.971   1.358 -1.1893 -0.1652  0.8647
 8662SOL     OW26795   2.957   2.570   3.517 -0.6044  0.5391  0.0061
 8662SOL    HW126796   2.898   2.495   3.526  0.9385 -0.6435  0.8106
 8662SOL    HW226797   2.983   2.591   3.607  0.3756  0.8841 -0.3428
 8663SOL     OW26798   4.629   7.772   4.117  0.9448  0.0894 -0.6610
 8663SOL    HW126799   4.704   7.828   4.139  0.4574  1.1147 -1.5052
 8663SOL    HW226800   4.642   7.749   4.025  0.9764 -0.9612 -0.4072
 8664SOL     OW26801   3.064   5.334   4.273  0.0517  0.2221  0.2929
 8664SOL    HW126802   3.137   5.340   4.334  0.3019  1.2658 -0.0786
 8664SOL    HW226803   3.087   5.396   4.203 -0.2169 -0.9475 -0.8624
 8665SOL     OW26804   3.052   0.197   4.942 -0.2521 -1.0778  0.0474
 8665SOL    HW126805   2.962   0.178   4.915 -0.0501  1.0928 -2.6681
 8665SOL    HW226806   3.043   0.245   5.024 -1.6702 -0.0708 -0.6629
 8666SOL     OW26807   6.403   5.480   1.105 -0.3705  0.5293 -0.0497
 8666SOL    HW126808   6.312   5.457   1.090 -0.1204  0.4712 -1.6251
 8666SOL    HW226809   6.451   5.434   1.035  0.9085  0.2480  0.9662
 8667SOL     OW26810   4.767   7.166   1.366  0.4181  0.2857 -0.0562
 8667SOL    HW126811   4.757   7.260   1.348  2.1905  0.1173 -2.3345
 8667SOL    HW226812   4.680   7.138   1.397 -0.2205  2.5946  0.4402
 8668SOL     OW26813   3.587   0.514   4.334  0.0867  0.2521  0.4410
 8668SOL    HW126814   3.588   0.609   4.347 -3.1574  0.8766 -2.3719
 8668SOL    HW226815   3.633   0.500   4.252 -0.7835 -0.3722  0.0390
 8669SOL     OW26816   7.988   1.225   2.428  0.0448 -0.0393 -0.1431
 8669SOL    HW126817   8.024   1.276   2.500 -2.6040  1.6104  0.1726
 8669SOL    HW226818   7.975   1.138   2.465 -0.9185  0.6795  1.3243
 8670SOL     OW26819   4.749   1.148   1.935 -0.0505  0.7653 -0.3250
 8670SOL    HW126820   4.743   1.208   2.009  1.0975 -0.8556  1.1734
 8670SOL    HW226821   4.681   1.083   1.951  1.3306 -0.5734  0.2847
 8671SOL     OW26822   6.756   7.322   0.455 -0.0577  0.6418 -0.3618
 8671SOL    HW126823   6.702   7.308   0.533  2.5377  1.1082  1.6944
 8671SOL    HW226824   6.759   7.417   0.444  1.1372  0.7041  0.2540
 8672SOL     OW26825   3.407   3.438   7.483 -0.6175 -0.4463 -0.0425
 8672SOL    HW126826   3.360   3.355   7.492 -0.4304 -0.4320  1.2598
 8672SOL    HW226827   3.341   3.505   7.501 -0.7458 -0.2954 -1.0004
 8673SOL     OW26828   3.694   4.756   1.719  0.1404  0.3875  0.3650
 8673SOL    HW126829   3.661   4.801   1.797  1.9565  1.4600  0.5778
 8673SOL    HW226830   3.787   4.744   1.736  0.3810 -0.2571 -1.2401
 8674SOL     OW26831   4.314   5.920   3.514 -0.4068 -0.3828  0.4300
 8674SOL    HW126832   4.307   5.827   3.493  0.4957 -0.5445  0.8288
 8674SOL    HW226833   4.232   5.940   3.561 -2.7606  0.1105 -3.3935
 8675SOL     OW26834   5.892   6.981   2.671 -0.3050 -0.0557 -0.0148
 8675SOL    HW126835   5.940   7.052   2.628 -1.6656 -0.5871 -2.6040
 8675SOL    HW226836   5.959   6.917   2.695  0.5461  0.4076 -1.0951
 8676SOL     OW26837   0.758   4.702   5.681 -0.1914 -0.2296 -0.3846
 8676SOL    HW126838   0.711   4.628   5.719 -3.0811  0.6805 -1.8769
 8676SOL    HW226839   0.813   4.663   5.612  0.5640 -1.2281  0.7419
 8677SOL     OW26840   4.632   6.418   0.225 -0.1959  0.1980 -0.0208
 8677SOL    HW126841   4.649   6.370   0.306 -2.2203  0.7639  0.7916
 8677SOL    HW226842   4.598   6.352   0.165 -1.5273  0.2772  0.6003
 8678SOL     OW26843   6.376   6.897   5.464 -0.4604  0.1440 -0.3671
 8678SOL    HW126844   6.283   6.877   5.453 -0.7116  1.0368  0.0736
 8678SOL    HW226845   6.381   6.947   5.546  0.3224  0.6662 -0.7173
 8679SOL     OW26846   1.097   4.719   5.779 -0.1085  0.1873  0.7904
 8679SOL    HW126847   1.165   4.684   5.723  0.9372  0.5854  1.7822
 8679SOL    HW226848   1.047   4.779   5.723  0.3683 -0.0867  0.0727
 8680SOL     OW26849   4.554   4.448   6.542  0.3523 -0.1222  0.3328
 8680SOL    HW126850   4.515   4.371   6.583  0.4321 -0.6964 -0.6257
 8680SOL    HW226851   4.489   4.517   6.552  0.1840 -0.3810  1.0043
 8681SOL     OW26852   7.028   6.275   6.142 -0.5877  0.1028  0.0612
 8681SOL    HW126853   7.039   6.187   6.180  1.1307  1.0795  2.0142
 8681SOL    HW226854   7.064   6.267   6.054  2.7442 -0.4758  1.3069
 8682SOL     OW26855   2.128   6.901   6.323  0.3543  0.2264 -0.0687
 8682SOL    HW126856   2.130   6.980   6.378 -0.3419 -0.2262  0.6193
 8682SOL    HW226857   2.198   6.846   6.357 -0.1858 -0.1257  0.4820
 8683SOL     OW26858   0.427   5.888   4.968 -0.4735  0.0924  0.2545
 8683SOL    HW126859   0.354   5.912   5.024 -1.2472  1.5123 -1.2869
 8683SOL    HW226860   0.490   5.960   4.977  0.9256 -1.2323  1.7695
 8684SOL     OW26861   7.643   2.981   3.939 -0.2645  0.1844  0.3693
 8684SOL    HW126862   7.662   3.065   3.981 -0.3844  0.1469  0.4996
 8684SOL    HW226863   7.728   2.949   3.908 -0.1627  0.1649  0.6693
 8685SOL     OW26864   3.534   5.705   1.676  0.6152  0.2894 -0.0653
 8685SOL    HW126865   3.525   5.781   1.734 -0.6474 -0.1582  0.3596
 8685SOL    HW226866   3.543   5.631   1.736  2.7739  0.1665 -0.4724
 8686SOL     OW26867   3.302   0.492   4.276 -0.1486  0.0113 -0.7484
 8686SOL    HW126868   3.271   0.404   4.298 -0.8299  0.4488  0.0987
 8686SOL    HW226869   3.383   0.502   4.327 -1.1274  0.5987  0.7509
 8687SOL     OW26870   5.179   7.713   4.543  0.2244 -0.0915 -0.4426
 8687SOL    HW126871   5.180   7.712   4.447 -1.5639  2.4947 -0.5788
 8687SOL    HW226872   5.197   7.804   4.567  1.1700 -0.7800  1.7395
 8688SOL     OW26873   4.151   7.990   7.335  0.6837  0.2802 -0.3084
 8688SOL    HW126874   4.071   8.033   7.366  1.6050  0.8275  1.4226
 8688SOL    HW226875   4.137   7.897   7.354  0.2084  0.3005 -0.5644
 8689SOL     OW26876   1.587   5.278   1.104 -0.4924 -0.1069 -0.8532
 8689SOL    HW126877   1.564   5.187   1.081  2.1656 -0.6999 -1.4603
 8689SOL    HW226878   1.600   5.276   1.199 -0.5934 -0.3316 -0.8434
 8690SOL     OW26879   7.562   2.467   1.219  0.2891 -0.1290  0.4033
 8690SOL    HW126880   7.527   2.470   1.309  0.1511 -1.1715  0.3986
 8690SOL    HW226881   7.536   2.381   1.187  1.2587 -0.1811 -0.2694
 8691SOL     OW26882   6.683   4.554   7.195 -0.3244 -0.3679  0.1296
 8691SOL    HW126883   6.630   4.628   7.224  0.9830  0.1410  1.2995
 8691SOL    HW226884   6.740   4.590   7.127 -0.4213 -0.5610 -0.0576
 8692SOL     OW26885   7.407   7.771   7.533 -0.4347 -0.4260 -0.3861
 8692SOL    HW126886   7.485   7.809   7.574 -1.2276  0.4347  0.3717
 8692SOL    HW226887   7.412   7.800   7.442  0.1832 -0.4767 -0.3757
 8693SOL     OW26888   5.020   6.054   4.179  0.2656  0.9133 -0.0197
 8693SOL    HW126889   4.999   6.100   4.260  0.0690 -0.3205  0.6539
 8693SOL    HW226890   4.944   5.998   4.162  1.1815 -0.4539  0.1460
 8694SOL     OW26891   0.788   1.239   5.224 -0.2459  0.1639  0.3252
 8694SOL    HW126892   0.869   1.249   5.174 -1.0403  0.3536 -0.9464
 8694SOL    HW226893   0.726   1.298   5.182 -1.1740 -0.2763  1.0393
 8695SOL     OW26894   3.820   4.017   4.301  0.1039 -0.4072 -0.4080
 8695SOL    HW126895   3.888   4.056   4.246  0.6214 -1.0260 -0.2174
 8695SOL    HW226896   3.845   4.041   4.390  0.5908 -1.3901 -0.2642
 8696SOL     OW26897   5.566   2.464   2.802  0.0051 -0.8152  0.8815
 8696SOL    HW126898   5.657   2.437   2.798  0.3164  0.2516  0.4281
 8696SOL    HW226899   5.520   2.401   2.746  0.6917 -0.5084 -0.0586
 8697SOL     OW26900   5.665   6.035   2.394 -0.3183 -0.0328 -0.6166
 8697SOL    HW126901   5.757   6.027   2.422 -0.0444  3.4899 -0.0115
 8697SOL    HW226902   5.614   6.023   2.474 -0.0489  1.9724 -0.0894
 8698SOL     OW26903   1.874   7.982   2.513  0.0148  0.6158 -0.3156
 8698SOL    HW126904   1.920   7.928   2.448 -0.3797 -1.2113  0.8379
 8698SOL    HW226905   1.944   8.013   2.571 -0.0614 -1.6723  1.0934
 8699SOL     OW26906   0.902   0.877   0.288  0.3376 -0.5381 -0.5761
 8699SOL    HW126907   0.974   0.832   0.332  0.6605 -1.5147 -2.0254
 8699SOL    HW226908   0.828   0.867   0.348  0.9475 -1.1351  0.1003
 8700SOL     OW26909   5.561   0.723   6.223  0.4952 -0.3530  0.1287
 8700SOL    HW126910   5.627   0.748   6.158  0.3432 -2.8167 -1.0821
 8700SOL    HW226911   5.600   0.749   6.307  2.4372 -0.5691 -0.6434
 8701SOL     OW26912   7.292   6.589   0.209 -0.5256  0.1460 -0.4180
 8701SOL    HW126913   7.314   6.682   0.204  0.7997 -0.1027  0.3742
 8701SOL    HW226914   7.270   6.574   0.301 -0.4119 -0.3944 -0.4735
 8702SOL     OW26915   2.984   8.000   6.827 -0.1300 -0.2017  0.2748
 8702SOL    HW126916   2.931   7.921   6.829  0.7875 -0.8810 -1.0044
 8702SOL    HW226917   2.977   8.031   6.736  0.8778  0.2166  0.3231
 8703SOL     OW26918   6.657   6.226   2.283 -0.1200 -0.8017 -0.2946
 8703SOL    HW126919   6.711   6.301   2.309 -0.0935  0.2938 -3.2194
 8703SOL    HW226920   6.720   6.158   2.260 -0.0775 -0.7493 -0.3329
 8704SOL     OW26921   2.352   3.817   2.795  0.2224 -0.3542  0.3276
 8704SOL    HW126922   2.426   3.757   2.807  1.0076  0.8664  2.0052
 8704SOL    HW226923   2.390   3.893   2.752  0.4263  1.0440  2.8093
 8705SOL     OW26924   6.718   3.029   1.183  0.0450 -0.7121 -0.3676
 8705SOL    HW126925   6.686   3.114   1.214 -0.3657 -1.6084  1.8319
 8705SOL    HW226926   6.768   3.050   1.105  0.0074  1.5720  0.1447
 8706SOL     OW26927   7.141   4.706   5.937  0.2788 -0.4609 -0.0290
 8706SOL    HW126928   7.116   4.627   5.889  0.9457 -1.0032  0.5013
 8706SOL    HW226929   7.222   4.682   5.982  0.3797  0.4665  0.2955
 8707SOL     OW26930   1.265   7.552   1.897  0.5499 -0.7893 -0.2613
 8707SOL    HW126931   1.184   7.502   1.908  0.1129 -0.5163 -1.9217
 8707SOL    HW226932   1.237   7.644   1.906  0.5860 -0.6775 -1.2122
 8708SOL     OW26933   3.909   2.554   0.272  0.4613 -0.3189 -0.0794
 8708SOL    HW126934   3.837   2.532   0.213  0.6472 -0.2324 -0.3387
 8708SOL    HW226935   3.924   2.647   0.258  0.1461 -0.1729  0.5033
 8709SOL     OW26936   4.981   7.120   4.463  0.2083 -0.4969 -0.1957
 8709SOL    HW126937   4.949   7.193   4.516  1.2729 -0.3181  0.2095
 8709SOL    HW226938   4.977   7.044   4.521 -0.2374 -0.6334 -0.3996
 8710SOL     OW26939   0.696   0.913   7.660  0.0552  0.5329 -0.1073
 8710SOL    HW126940   0.649   0.918   7.743  2.3187 -0.5630  1.3512
 8710SOL    HW226941   0.644   0.853   7.607  0.2560 -1.4763  1.8157
 8711SOL     OW26942   6.184   3.288   2.787  0.5313 -0.3269  0.1367
 8711SOL    HW126943   6.145   3.292   2.699 -0.2985 -0.5084  0.4802
 8711SOL    HW226944   6.206   3.379   2.807  0.8270 -0.2995 -0.3052
 8712SOL     OW26945   1.680   5.762   1.156 -0.1543  0.2651 -0.0412
 8712SOL    HW126946   1.605   5.804   1.198 -0.8265 -1.4392  0.5655
 8712SOL    HW226947   1.676   5.671   1.185  0.8831 -0.3825 -1.7494
 8713SOL     OW26948   1.755   3.908   7.956 -0.2116  0.3472 -0.4618
 8713SOL    HW126949   1.802   3.960   7.890  1.3677 -0.2666  0.1387
 8713SOL    HW226950   1.739   3.970   8.027  3.6619 -0.3020  1.2468
 8714SOL     OW26951   5.150   3.152   0.435 -0.2430 -0.4043 -0.0348
 8714SOL    HW126952   5.124   3.061   0.422  0.1666 -1.0002  2.6318
 8714SOL    HW226953   5.239   3.146   0.471 -0.3351  1.0039  0.5043
 8715SOL     OW26954   5.719   4.155   7.619  0.1333  0.7850 -0.4724
 8715SOL    HW126955   5.682   4.242   7.633  0.3304  0.7478  0.3300
 8715SOL    HW226956   5.812   4.170   7.603 -0.0013  0.7881 -1.2895
 8716SOL     OW26957   2.938   4.174   4.445 -0.4180  0.5053  0.0904
 8716SOL    HW126958   2.883   4.122   4.387  0.7934 -1.0122  0.2460
 8716SOL    HW226959   3.010   4.116   4.469  1.3443  2.4473 -0.1979
 8717SOL     OW26960   7.185   5.197   6.922  0.2009  0.6451  0.7107
 8717SOL    HW126961   7.250   5.131   6.897 -1.0764 -1.2497  2.1155
 8717SOL    HW226962   7.113   5.184   6.859  0.5020  1.6794  0.1319
 8718SOL     OW26963   1.386   2.107   7.103  0.6930 -0.5953  0.0805
 8718SOL    HW126964   1.372   2.184   7.158 -1.1784 -0.8339  0.0203
 8718SOL    HW226965   1.475   2.117   7.069 -0.0992  2.5511 -1.4662
 8719SOL     OW26966   6.519   2.437   7.652 -0.0230 -0.1017 -0.0645
 8719SOL    HW126967   6.447   2.394   7.699 -0.5846  0.2863 -0.5413
 8719SOL    HW226968   6.598   2.413   7.700 -0.5538  0.1054  0.9386
 8720SOL     OW26969   6.908   6.084   7.131  0.6714  0.1460  0.5109
 8720SOL    HW126970   6.900   6.135   7.050  1.7967 -0.1152  0.2171
 8720SOL    HW226971   6.880   6.143   7.200 -0.0240  0.4690 -0.0367
 8721SOL     OW26972   7.410   7.326   2.178  0.1240 -0.2862 -1.1797
 8721SOL    HW126973   7.497   7.312   2.140  0.2856  0.8859 -1.2687
 8721SOL    HW226974   7.425   7.328   2.272  0.1040 -0.6698 -1.1680
 8722SOL     OW26975   1.036   5.769   1.765  0.8041  0.0957 -0.2001
 8722SOL    HW126976   0.971   5.748   1.833  1.2060  0.9602  0.4806
 8722SOL    HW226977   0.986   5.769   1.684  0.0441  0.2279  0.2492
 8723SOL     OW26978   5.929   3.813   0.239  0.5870 -0.3144  0.1991
 8723SOL    HW126979   5.959   3.851   0.322 -0.3650  0.0531  0.3865
 8723SOL    HW226980   5.834   3.822   0.242  0.3713 -2.1177 -0.0432
 8724SOL     OW26981   5.162   0.402   1.464 -0.2574  0.1234  0.4197
 8724SOL    HW126982   5.166   0.312   1.434  0.5132  0.5173 -0.7517
 8724SOL    HW226983   5.216   0.404   1.544  0.3935 -0.2907 -0.0029
 8725SOL     OW26984   7.151   1.849   6.978 -0.0450 -0.1223  0.0703
 8725SOL    HW126985   7.143   1.797   7.057  0.3678 -0.6880 -0.2550
 8725SOL    HW226986   7.061   1.877   6.959 -0.1720 -0.1536  0.6215
 8726SOL     OW26987   4.375   4.795   2.324 -0.1895 -0.5844 -0.3459
 8726SOL    HW126988   4.324   4.868   2.290 -0.4462 -1.2197 -1.3606
 8726SOL    HW226989   4.414   4.829   2.405  0.5406  1.0065 -1.3285
 8727SOL     OW26990   3.501   1.350   2.188  0.6054  0.3805 -0.1037
 8727SOL    HW126991   3.566   1.337   2.118  0.6583  2.2515 -0.4580
 8727SOL    HW226992   3.418   1.324   2.149  0.8045  0.2544 -0.4505
 8728SOL     OW26993   4.650   4.361   2.852 -0.2918 -0.1288 -0.3165
 8728SOL    HW126994   4.599   4.298   2.904  0.1160 -0.6879 -0.5849
 8728SOL    HW226995   4.740   4.329   2.858 -0.1829  0.0366 -1.0343
 8729SOL     OW26996   4.641   4.397   7.737 -0.5397 -0.2890  0.1049
 8729SOL    HW126997   4.728   4.432   7.758 -0.5775 -0.3529  0.3656
 8729SOL    HW226998   4.648   4.304   7.755 -0.7973 -0.2198  0.5571
 8730SOL     OW26999   7.493   5.827   6.680  0.0997 -0.2982  0.2230
 8730SOL    HW127000   7.442   5.771   6.623  0.1014 -0.6611  0.5710
 8730SOL    HW227001   7.475   5.794   6.768 -0.0781  0.3896  0.4537
 8731SOL     OW27002   4.548   0.162   2.877 -0.5609 -0.2411 -0.2036
 8731SOL    HW127003   4.470   0.116   2.907  0.1157  0.3994  2.8931
 8731SOL    HW227004   4.521   0.254   2.868 -0.2157 -0.0318  0.7936
 8732SOL     OW27005   0.762   6.696   2.688 -0.0623 -0.4226 -0.1709
 8732SOL    HW127006   0.787   6.614   2.731  0.2384 -0.1743  0.1360
 8732SOL    HW227007   0.796   6.764   2.746  0.4529 -0.0819 -0.8587
 8733SOL     OW27008   0.845   7.932   6.608  0.5243  0.3145  0.2583
 8733SOL    HW127009   0.771   7.897   6.657 -0.1706  0.6638 -0.5177
 8733SOL    HW227010   0.834   8.027   6.613  0.0301  0.3627 -1.1398
 8734SOL     OW27011   0.779   4.700   7.394  0.3534 -0.0524  0.6951
 8734SOL    HW127012   0.771   4.618   7.443 -0.8907  0.4959  1.4384
 8734SOL    HW227013   0.713   4.758   7.432 -1.6720 -0.0264 -2.4981
 8735SOL     OW27014   4.038   1.512   4.614  0.0981  0.0687  1.0720
 8735SOL    HW127015   3.987   1.530   4.535 -0.4426 -0.0920  1.3848
 8735SOL    HW227016   4.106   1.581   4.614 -0.7994  0.9759  1.2476
 8736SOL     OW27017   1.538   4.323   1.020  0.1460 -0.1634  0.2956
 8736SOL    HW127018   1.586   4.393   1.064  0.6663 -0.2193 -0.1777
 8736SOL    HW227019   1.452   4.361   1.002  0.3358  0.2644  0.2826
 8737SOL     OW27020   4.023   0.754   1.771 -0.1393  0.1205  0.0287
 8737SOL    HW127021   4.085   0.734   1.841  0.4034  0.8810 -0.2094
 8737SOL    HW227022   4.077   0.793   1.702 -0.4894 -1.5824 -1.2725
 8738SOL     OW27023   5.171   7.743   0.996 -0.3308  0.6329 -0.1979
 8738SOL    HW127024   5.167   7.834   1.025 -0.4600  0.6890 -0.3899
 8738SOL    HW227025   5.136   7.745   0.907 -0.0927  0.4355 -0.2961
 8739SOL     OW27026   0.807   0.220   6.621  0.0076  0.0130 -0.1068
 8739SOL    HW127027   0.844   0.264   6.545 -1.7025  0.8466 -0.5140
 8739SOL    HW227028   0.813   0.284   6.692  0.2195 -0.2066  0.0767
 8740SOL     OW27029   1.849   0.714   0.590 -0.4680  0.1847  0.0954
 8740SOL    HW127030   1.798   0.728   0.510 -1.1187 -1.1528  0.2468
 8740SOL    HW227031   1.784   0.690   0.656  0.0536  1.2897  1.0646
 8741SOL     OW27032   7.989   5.112   6.762 -0.0373  0.3267 -0.5974
 8741SOL    HW127033   7.970   5.021   6.785 -0.5363  0.3859 -0.7619
 8741SOL    HW227034   7.985   5.114   6.667  2.9000 -0.1130 -0.8072
 8742SOL     OW27035   0.455   4.093   7.443  0.0009  0.3221 -0.0897
 8742SOL    HW127036   0.483   4.091   7.352 -2.0137  0.3844 -0.7586
 8742SOL    HW227037   0.458   4.186   7.467 -0.2908  0.4067 -0.3762
 8743SOL     OW27038   1.478   4.754   5.953  1.0572  0.3975  0.0846
 8743SOL    HW127039   1.400   4.808   5.963  1.8828  1.5568  0.5585
 8743SOL    HW227040   1.450   4.679   5.900  0.0568  1.7223 -1.3437
 8744SOL     OW27041   7.555   0.241   1.830 -0.3482 -0.1110  0.2204
 8744SOL    HW127042   7.507   0.319   1.856  1.4670  0.8495  0.8909
 8744SOL    HW227043   7.624   0.274   1.772 -0.9828 -1.5419 -1.4166
 8745SOL     OW27044   0.127   3.348   3.245  0.2682 -0.2672  0.1669
 8745SOL    HW127045   0.161   3.423   3.295  1.8971 -0.0282 -1.2135
 8745SOL    HW227046   0.043   3.378   3.212 -0.0761  0.1645  1.3881
 8746SOL     OW27047   1.063   6.300   5.634  0.5361 -0.2440  0.0889
 8746SOL    HW127048   0.985   6.330   5.683 -0.7027 -1.6751 -0.9194
 8746SOL    HW227049   1.113   6.249   5.698 -0.7874 -1.6384  0.0560
 8747SOL     OW27050   3.197   7.354   5.262 -0.4650  0.3832  0.3567
 8747SOL    HW127051   3.248   7.331   5.340 -0.7645  1.4169  0.8912
 8747SOL    HW227052   3.160   7.271   5.232  1.5851 -0.4202 -0.1301
 8748SOL     OW27053   1.903   4.569   4.769  0.2217  0.3667  0.4254
 8748SOL    HW127054   1.959   4.505   4.811  1.8166  1.7174  0.4711
 8748SOL    HW227055   1.920   4.651   4.817 -1.8061  0.8326  0.4406
 8749SOL     OW27056   2.728   3.331   3.877 -0.4633 -0.3239  0.1106
 8749SOL    HW127057   2.705   3.356   3.966  1.3152 -0.7884  0.7497
 8749SOL    HW227058   2.701   3.239   3.870 -2.4452  0.2668 -0.5510
 8750SOL     OW27059   4.483   1.343   2.681 -0.0586  0.2634  0.5823
 8750SOL    HW127060   4.509   1.314   2.769  3.2363  0.8444 -0.0742
 8750SOL    HW227061   4.521   1.430   2.672  0.4455 -0.1281 -1.6996
 8751SOL     OW27062   7.686   3.248   7.459 -0.3290  0.5475  0.7591
 8751SOL    HW127063   7.757   3.193   7.491 -0.1782  1.1392  1.4800
 8751SOL    HW227064   7.613   3.188   7.445  0.5051 -0.1950 -0.7123
 8752SOL     OW27065   5.494   2.052   4.582 -0.2026  0.1480  0.0874
 8752SOL    HW127066   5.487   1.966   4.623 -0.8941  0.1885  0.0655
 8752SOL    HW227067   5.484   2.036   4.489 -2.0028  0.4128  0.1978
 8753SOL     OW27068   0.556   2.633   4.088  0.2693  0.4985  0.2028
 8753SOL    HW127069   0.478   2.655   4.038 -2.0812 -2.8178  2.0015
 8753SOL    HW227070   0.533   2.656   4.178  0.2757 -2.6475  1.1119
 8754SOL     OW27071   1.138   7.854   4.673  0.0544 -0.0922  0.3862
 8754SOL    HW127072   1.137   7.759   4.664 -0.9687 -0.2052  1.4309
 8754SOL    HW227073   1.134   7.887   4.583  2.3129 -0.9947 -0.0904
 8755SOL     OW27074   2.567   6.234   3.005  1.1092 -0.0003  0.1093
 8755SOL    HW127075   2.641   6.234   3.065  0.0406  0.7707  1.4636
 8755SOL    HW227076   2.567   6.322   2.967 -0.4077  0.7832  1.8104
 8756SOL     OW27077   0.038   6.185   5.583 -0.5316  0.2033  0.3786
 8756SOL    HW127078  -0.045   6.229   5.564 -0.1067  0.4291 -1.1546
 8756SOL    HW227079   0.053   6.129   5.507  0.4352 -0.2835  0.9100
 8757SOL     OW27080   5.295   5.947   0.293 -0.2464 -0.1960 -0.6108
 8757SOL    HW127081   5.355   5.927   0.221 -0.0008  1.0908 -0.7747
 8757SOL    HW227082   5.255   5.862   0.314  1.2158 -0.9900 -0.8545
 8758SOL     OW27083   6.994   5.465   6.830  0.1754  0.3125  1.1066
 8758SOL    HW127084   7.079   5.477   6.872  1.1706  1.3913 -1.0743
 8758SOL    HW227085   6.993   5.529   6.759 -1.7540 -0.8672 -0.0113
 8759SOL     OW27086   2.151   2.042   7.282  0.4127  0.3676 -0.0757
 8759SOL    HW127087   2.221   1.986   7.314 -0.8037  0.9887  4.2225
 8759SOL    HW227088   2.179   2.130   7.303 -0.9897  0.7425  0.2998
 8760SOL     OW27089   2.887   1.523   5.631  0.4635 -0.4969 -0.2455
 8760SOL    HW127090   2.930   1.440   5.610  1.1455  0.1692 -1.6298
 8760SOL    HW227091   2.934   1.588   5.578 -0.0557  0.7729  0.8171
 8761SOL     OW27092   2.388   4.513   5.720  0.0609 -0.2280 -0.0045
 8761SOL    HW127093   2.463   4.551   5.766  0.5776 -1.7620  0.5028
 8761SOL    HW227094   2.313   4.565   5.749  0.3416 -1.1573  2.7194
 8762SOL     OW27095   3.306   3.459   1.863 -0.9143 -0.3529  0.3173
 8762SOL    HW127096   3.237   3.526   1.858  0.8483  1.5331 -0.2209
 8762SOL    HW227097   3.282   3.395   1.797 -0.9819  1.4818 -1.5348
 8763SOL     OW27098   1.391   6.333   1.116 -1.0820 -0.2295 -0.0625
 8763SOL    HW127099   1.341   6.354   1.195 -0.7167 -0.8988  0.3637
 8763SOL    HW227100   1.326   6.335   1.045 -1.3999  0.4503  0.2384
 8764SOL     OW27101   4.465   5.937   1.445 -0.1548  0.4236  0.6412
 8764SOL    HW127102   4.455   5.934   1.350 -2.4869 -0.2337  0.8462
 8764SOL    HW227103   4.517   5.859   1.466  0.4457  0.6216 -0.1038
 8765SOL     OW27104   3.440   5.879   3.715  0.2463  0.1299 -0.1715
 8765SOL    HW127105   3.533   5.890   3.734  0.0810  4.1815 -0.8749
 8765SOL    HW227106   3.395   5.918   3.790 -0.8729 -0.3166 -0.5815
 8766SOL     OW27107   3.611   0.116   5.122  0.2536 -0.1850 -0.8975
 8766SOL    HW127108   3.647   0.100   5.210  2.1965 -2.6404 -2.0125
 8766SOL    HW227109   3.630   0.208   5.105  1.0400 -0.0035  0.7414
 8767SOL     OW27110   2.692   0.554   0.447 -0.2438  0.6507  0.3616
 8767SOL    HW127111   2.784   0.564   0.471  0.2176 -0.9439 -0.6163
 8767SOL    HW227112   2.674   0.461   0.457 -0.3956  0.0446 -3.8372
 8768SOL     OW27113   0.956   2.561   4.628 -0.2538 -0.6272  0.3279
 8768SOL    HW127114   0.902   2.488   4.659  0.7614 -1.7832 -0.5142
 8768SOL    HW227115   0.956   2.552   4.533 -0.0980  0.4820  0.2103
 8769SOL     OW27116   3.317   3.278   2.792  0.1016  1.1977  0.5569
 8769SOL    HW127117   3.345   3.212   2.728  0.2041  2.4338 -0.7352
 8769SOL    HW227118   3.246   3.237   2.841 -0.9354  0.6569 -1.3086
 8770SOL     OW27119   3.706   5.132   2.859  0.4259  0.4255  0.2264
 8770SOL    HW127120   3.751   5.197   2.806  0.3757  0.3732  0.1202
 8770SOL    HW227121   3.773   5.065   2.876  0.4787  0.5066  0.3384
 8771SOL     OW27122   3.088   2.028   2.939  0.1071  0.3344  0.1909
 8771SOL    HW127123   3.077   1.998   3.029 -2.3636 -0.7617 -0.4042
 8771SOL    HW227124   3.136   1.957   2.896  0.6029  0.5077  0.4528
 8772SOL     OW27125   5.533   7.688   3.258 -0.1166  0.7290  0.1419
 8772SOL    HW127126   5.439   7.692   3.273 -0.1733  1.4976 -0.3520
 8772SOL    HW227127   5.564   7.776   3.279  0.5207  0.4286  0.4820
 8773SOL     OW27128   3.638   5.752   7.045  0.3133 -0.4872 -0.0272
 8773SOL    HW127129   3.688   5.736   6.965 -0.4007  1.0228 -0.8202
 8773SOL    HW227130   3.667   5.839   7.075  1.5597 -1.5607  2.1579
 8774SOL     OW27131   6.661   3.900   5.140 -0.0551  0.1575 -0.3305
 8774SOL    HW127132   6.573   3.891   5.174 -0.3546  0.7421 -0.9228
 8774SOL    HW227133   6.662   3.846   5.061 -0.0863  0.6484 -0.6745
 8775SOL     OW27134   5.716   1.847   0.678  0.3021 -0.0517  0.7429
 8775SOL    HW127135   5.644   1.836   0.740 -0.4905  0.8180  0.0237
 8775SOL    HW227136   5.776   1.908   0.721  1.5812 -2.1607  2.1126
 8776SOL     OW27137   2.513   1.858   0.758  0.2171 -0.6173  0.0225
 8776SOL    HW127138   2.490   1.945   0.791 -0.0975 -0.5293 -0.4093
 8776SOL    HW227139   2.598   1.870   0.716 -0.7552 -0.0072 -1.9124
 8777SOL     OW27140   0.244   2.333   1.337  0.0752  0.1255  0.0648
 8777SOL    HW127141   0.323   2.328   1.284  0.5252 -2.3201  0.8403
 8777SOL    HW227142   0.229   2.427   1.349  2.3048  0.6679 -0.8751
 8778SOL     OW27143   3.202   6.020   6.993  0.7385 -0.4932 -0.1956
 8778SOL    HW127144   3.222   6.046   6.903  0.1702  0.9786  0.0740
 8778SOL    HW227145   3.246   5.936   7.004  0.5834 -0.8349 -1.9316
 8779SOL     OW27146   5.705   4.178   6.303 -0.4894 -0.6532  0.2797
 8779SOL    HW127147   5.618   4.215   6.287 -0.2983  0.5585  1.8434
 8779SOL    HW227148   5.691   4.083   6.299 -2.1185 -0.5175  1.5037
 8780SOL     OW27149   0.417   2.261   5.946  0.0365  0.3564  0.2975
 8780SOL    HW127150   0.442   2.205   6.020 -0.5392  0.6146  0.6934
 8780SOL    HW227151   0.327   2.235   5.926  0.0064  0.6610  0.0287
 8781SOL     OW27152   7.791   6.342   1.059 -0.3172 -0.8135  0.2899
 8781SOL    HW127153   7.729   6.287   1.107 -0.5960 -1.2996 -0.6084
 8781SOL    HW227154   7.863   6.283   1.036  2.1124  0.3423  3.9568
 8782SOL     OW27155   3.714   4.586   6.118  0.8429 -0.6983  0.6717
 8782SOL    HW127156   3.797   4.620   6.084 -0.0110  1.6252  0.7282
 8782SOL    HW227157   3.734   4.496   6.142  2.6886 -1.0174 -1.6437
 8783SOL     OW27158   1.021   7.547   6.924  0.6758 -0.0314  0.0657
 8783SOL    HW127159   0.982   7.496   6.995  0.7720  0.8805  0.7883
 8783SOL    HW227160   1.114   7.524   6.926  0.9963  1.2327  1.3482
 8784SOL     OW27161   4.358   0.924   6.762  0.1826 -0.3088 -0.4437
 8784SOL    HW127162   4.343   0.914   6.856 -1.4580  0.6708 -0.5678
 8784SOL    HW227163   4.274   0.903   6.722  1.0314 -1.3618 -1.7671
 8785SOL     OW27164   7.810   3.245   2.617 -0.0904  0.6002  0.3790
 8785SOL    HW127165   7.848   3.160   2.641 -0.2718  1.0597  2.5928
 8785SOL    HW227166   7.758   3.227   2.539  0.7414 -1.0839  0.1673
 8786SOL     OW27167   7.572   4.830   6.125 -0.5427  0.6922 -0.5539
 8786SOL    HW127168   7.583   4.922   6.098  0.0417  1.1068  0.9598
 8786SOL    HW227169   7.542   4.785   6.046 -0.0560  2.0332 -1.5481
 8787SOL     OW27170   6.795   2.873   5.288 -0.1508 -0.5484 -0.0332
 8787SOL    HW127171   6.803   2.840   5.378 -1.4208  0.9105  0.6594
 8787SOL    HW227172   6.874   2.926   5.276  1.2287 -2.6165 -0.6843
 8788SOL     OW27173   3.351   6.885   1.274  0.1667  0.0625 -0.3532
 8788SOL    HW127174   3.375   6.873   1.366  2.2273 -1.0873 -0.9627
 8788SOL    HW227175   3.374   6.802   1.233  0.3088  0.9223 -2.0841
 8789SOL     OW27176   5.886   0.409   1.825  0.4185  0.4606 -0.2599
 8789SOL    HW127177   5.865   0.499   1.849 -2.7671 -0.2827  0.2118
 8789SOL    HW227178   5.826   0.388   1.754  1.5641 -1.1004 -0.8234
 8790SOL     OW27179   0.503   2.623   0.751  0.2067 -0.0520  0.4310
 8790SOL    HW127180   0.588   2.596   0.785  0.0061  0.2864  1.2235
 8790SOL    HW227181   0.450   2.640   0.829 -1.0314 -1.5915 -0.0157
 8791SOL     OW27182   0.962   5.043   0.415 -0.0472  0.3788 -0.0599
 8791SOL    HW127183   1.046   5.030   0.371  1.0645  1.3951  1.6417
 8791SOL    HW227184   0.977   5.014   0.505 -1.7141  0.0308  0.1327
 8792SOL     OW27185   5.648   2.221   7.971 -0.2986  0.5188  0.0189
 8792SOL    HW127186   5.629   2.286   8.039 -0.9527  1.7951 -1.3261
 8792SOL    HW227187   5.728   2.251   7.929 -0.0599 -0.0945  0.0211
 8793SOL     OW27188   0.448   6.125   1.702  0.2822  0.1279 -0.1237
 8793SOL    HW127189   0.420   6.166   1.784  1.6061 -0.7662  0.8058
 8793SOL    HW227190   0.477   6.198   1.647  1.6603  0.5630  1.1339
 8794SOL     OW27191   1.421   6.636   7.109 -0.6324 -0.1598  0.2673
 8794SOL    HW127192   1.453   6.631   7.019  0.4051  2.2053  0.4208
 8794SOL    HW227193   1.352   6.702   7.107  1.5386  2.3863  1.6124
 8795SOL     OW27194   6.499   7.128   3.356 -0.3367 -0.9278 -0.3568
 8795SOL    HW127195   6.507   7.039   3.321  0.9314 -0.9273 -0.1070
 8795SOL    HW227196   6.555   7.128   3.433 -0.8934 -0.1051  0.0691
 8796SOL     OW27197   6.929   3.993   0.247  0.0402 -0.4084 -0.1609
 8796SOL    HW127198   7.015   4.024   0.220 -0.9222  1.1141 -1.6926
 8796SOL    HW227199   6.888   4.069   0.288 -1.2275 -0.5559 -1.0944
 8797SOL     OW27200   2.672   0.004   1.695  0.2351  0.3789  0.3697
 8797SOL    HW127201   2.607   0.066   1.662 -0.5387  0.6402  2.2896
 8797SOL    HW227202   2.631  -0.082   1.684  0.6230  0.3156 -0.7304
 8798SOL     OW27203   2.769   3.756   6.196 -0.1300 -0.1054 -0.5188
 8798SOL    HW127204   2.707   3.822   6.165  0.7713 -0.0739 -2.3549
 8798SOL    HW227205   2.822   3.802   6.261 -1.1935  0.2087  0.1555
 8799SOL     OW27206   4.404   2.213   2.884  0.4559 -0.1024 -0.3062
 8799SOL    HW127207   4.493   2.191   2.912 -0.5789 -1.9404  1.9915
 8799SOL    HW227208   4.362   2.246   2.964 -1.1208 -0.0358 -1.1305
 8800SOL     OW27209   3.677   2.633   1.379  0.0189 -0.3086  0.4981
 8800SOL    HW127210   3.697   2.677   1.461 -1.8766 -0.3701  1.0586
 8800SOL    HW227211   3.595   2.673   1.350  0.1851 -0.9159 -0.8961
 8801SOL     OW27212   2.078   1.350   5.440  0.1676 -0.2786  0.3719
 8801SOL    HW127213   2.160   1.395   5.463  0.0238  0.9269 -1.3292
 8801SOL    HW227214   2.106   1.276   5.386  0.0927  0.9008 -1.3373
 8802SOL     OW27215   4.880   1.544   7.126 -0.3510  0.1920  0.7078
 8802SOL    HW127216   4.825   1.622   7.134  3.3512  3.1001  0.2640
 8802SOL    HW227217   4.907   1.524   7.216 -1.1618 -0.5614  0.8020
 8803SOL     OW27218   6.204   4.949   1.222 -0.0488 -0.6885 -0.5093
 8803SOL    HW127219   6.130   4.992   1.266 -0.0848 -0.5676 -0.6879
 8803SOL    HW227220   6.208   4.990   1.136  0.4567 -0.4387 -0.3708
 8804SOL     OW27221   3.183   4.006   0.844  0.5402  0.8077  0.1145
 8804SOL    HW127222   3.172   4.025   0.937 -0.5380 -0.5201  0.2920
 8804SOL    HW227223   3.127   4.071   0.800  0.2374  0.7828  0.4545
 8805SOL     OW27224   7.511   1.201   0.238 -0.3833  0.1299  0.2106
 8805SOL    HW127225   7.510   1.108   0.217  0.6587  0.0452  0.4449
 8805SOL    HW227226   7.508   1.204   0.334 -1.3796  0.3776  0.1779
 8806SOL     OW27227   3.531   3.871   1.723  0.1805  0.0174  0.1650
 8806SOL    HW127228   3.622   3.839   1.725  0.0897 -0.2960 -0.3354
 8806SOL    HW227229   3.531   3.935   1.652  0.0326  0.0959  0.2362
 8807SOL     OW27230   2.263   7.029   7.057 -0.0415  0.1515  0.5875
 8807SOL    HW127231   2.232   6.998   7.142  1.6353 -0.1931  1.1036
 8807SOL    HW227232   2.184   7.063   7.014 -0.7916  1.1329  2.6141
 8808SOL     OW27233   1.060   0.283   2.069 -0.7599  0.0693  0.5956
 8808SOL    HW127234   1.052   0.298   1.974  0.1523 -0.2086  0.4655
 8808SOL    HW227235   1.096   0.365   2.103 -2.1992  0.6040  0.8889
 8809SOL     OW27236   5.745   2.336   6.065  0.1114  0.3377 -0.1380
 8809SOL    HW127237   5.746   2.243   6.043 -0.0313  0.3633 -0.2439
 8809SOL    HW227238   5.740   2.337   6.161 -0.9218  0.2464 -0.1877
 8810SOL     OW27239   2.874   2.824   3.479 -0.0146  0.1737  1.1095
 8810SOL    HW127240   2.952   2.872   3.450  1.7160 -2.2245  1.4838
 8810SOL    HW227241   2.899   2.732   3.473 -2.4671 -0.6520  2.3105
 8811SOL     OW27242   4.208   4.678   6.390 -0.1677  0.1032  0.4279
 8811SOL    HW127243   4.115   4.686   6.409 -0.4607 -1.1025 -0.3498
 8811SOL    HW227244   4.213   4.677   6.294  0.8321  1.8958  0.4157
 8812SOL     OW27245   7.846   7.954   6.232  0.4865 -0.4454 -0.0235
 8812SOL    HW127246   7.796   7.880   6.196 -0.8282  0.2438  0.3119
 8812SOL    HW227247   7.927   7.956   6.181 -0.4580 -0.7115 -1.6088
 8813SOL     OW27248   4.743   7.107   3.037 -0.0105 -0.1055  0.4253
 8813SOL    HW127249   4.825   7.089   2.993  0.8010  0.5524  1.6201
 8813SOL    HW227250   4.733   7.037   3.101 -1.6051 -1.5375 -1.2853
 8814SOL     OW27251   5.276   4.274   5.052  0.4859  0.1224  0.2346
 8814SOL    HW127252   5.367   4.245   5.064  0.4908 -1.2166 -2.3930
 8814SOL    HW227253   5.256   4.323   5.133  3.4476  0.3089  0.9862
 8815SOL     OW27254   0.934   2.133   7.077  0.0238  0.1774  0.4349
 8815SOL    HW127255   0.851   2.178   7.092 -0.9844 -2.0676  2.2506
 8815SOL    HW227256   0.927   2.053   7.129  3.1627 -0.3051  0.2939
 8816SOL     OW27257   1.659   4.819   2.166 -0.2436 -0.7962 -0.5939
 8816SOL    HW127258   1.692   4.813   2.077 -0.9955 -2.3519 -0.8083
 8816SOL    HW227259   1.675   4.733   2.204  0.4469 -0.0395  0.9405
 8817SOL     OW27260   5.621   1.546   5.561  0.6454  0.1050  0.4291
 8817SOL    HW127261   5.701   1.512   5.599  1.0324  0.8719  0.3075
 8817SOL    HW227262   5.645   1.631   5.524 -0.1619  0.2383  0.1770
 8818SOL     OW27263   7.471   2.883   3.182  0.7726  0.6673 -0.0727
 8818SOL    HW127264   7.564   2.871   3.198  0.5756  2.1118  2.7628
 8818SOL    HW227265   7.433   2.796   3.197  1.5757  0.2424 -0.4781
 8819SOL     OW27266   6.024   1.394   1.803  0.4478  0.3151 -0.2806
 8819SOL    HW127267   5.948   1.451   1.805  0.4895  0.3925  2.7807
 8819SOL    HW227268   6.072   1.421   1.725 -1.6842  1.5026 -1.2653
 8820SOL     OW27269   6.850   3.009   4.577  0.6361 -0.2506 -0.1338
 8820SOL    HW127270   6.917   3.075   4.596  0.2923 -0.2854  1.3083
 8820SOL    HW227271   6.865   2.940   4.642 -0.0187 -0.8424 -0.5967
 8821SOL     OW27272   4.084   7.583   3.327 -0.0145 -0.3437  0.1106
 8821SOL    HW127273   4.102   7.667   3.369 -0.6538  0.2796 -0.8379
 8821SOL    HW227274   4.123   7.590   3.240  0.1134 -1.1088  0.0975
 8822SOL     OW27275   4.062   0.074   6.222 -0.7403  0.8167 -0.6605
 8822SOL    HW127276   4.138   0.023   6.248 -2.3620 -0.3392  2.2565
 8822SOL    HW227277   4.056   0.144   6.288 -2.2357  0.8290 -0.7716
 8823SOL     OW27278   3.928   6.206   5.638 -0.5903  0.4712  0.0944
 8823SOL    HW127279   3.837   6.227   5.620 -0.4420  0.2738 -0.9707
 8823SOL    HW227280   3.955   6.268   5.705 -1.5396  0.4443  0.5048
 8824SOL     OW27281   6.114   3.476   6.381  1.0919  0.2999  0.0702
 8824SOL    HW127282   6.175   3.468   6.307  0.2693  1.7954 -0.8287
 8824SOL    HW227283   6.087   3.386   6.399  1.8693 -0.1676 -0.9696
 8825SOL     OW27284   1.869   1.208   7.450 -0.1308  0.4495  0.0188
 8825SOL    HW127285   1.822   1.291   7.435  1.5833  1.4722  0.0844
 8825SOL    HW227286   1.905   1.216   7.538 -1.1229 -1.0066  0.6017
 8826SOL     OW27287   2.505   3.202   3.393 -0.1507  0.1454  0.4575
 8826SOL    HW127288   2.484   3.295   3.404 -1.5497 -0.1743  0.7404
 8826SOL    HW227289   2.544   3.197   3.305  1.0097  1.1436  0.8908
 8827SOL     OW27290   7.269   3.252   4.375 -0.1395  0.2019  0.1914
 8827SOL    HW127291   7.316   3.168   4.374  0.7779  0.6984  0.2648
 8827SOL    HW227292   7.253   3.271   4.283  0.5220  0.4106  0.1144
 8828SOL     OW27293   5.766   0.869   7.415  0.3705  0.4832 -0.0602
 8828SOL    HW127294   5.818   0.789   7.407  1.6524  1.0815  1.7437
 8828SOL    HW227295   5.830   0.938   7.428 -0.7675  1.6964 -0.6760
 8829SOL     OW27296   3.496   2.945   3.675  0.4716  0.1915  0.0564
 8829SOL    HW127297   3.507   3.030   3.718 -0.9333 -0.0688  1.0111
 8829SOL    HW227298   3.490   2.965   3.582 -2.7164  1.5583  0.4034
 8830SOL     OW27299   0.088   6.756   1.904 -0.0525  0.5416 -0.0407
 8830SOL    HW127300   0.148   6.692   1.867 -1.3896 -0.8643  0.1241
 8830SOL    HW227301   0.003   6.712   1.905 -1.2555  2.6510 -0.8334
 8831SOL     OW27302   7.215   1.869   3.217 -0.7320  0.0650 -0.4069
 8831SOL    HW127303   7.288   1.830   3.263 -1.6969 -0.9852  0.2872
 8831SOL    HW227304   7.176   1.930   3.280 -0.3115  0.8244 -0.8657
 8832SOL     OW27305   5.338   3.923   4.684  0.0628  0.2125 -0.3562
 8832SOL    HW127306   5.423   3.881   4.698  0.1115  0.4476  0.0739
 8832SOL    HW227307   5.317   3.962   4.769 -1.4566 -1.6085  0.1624
 8833SOL     OW27308   7.381   7.694   5.680  0.0095  0.0356  0.2251
 8833SOL    HW127309   7.442   7.743   5.625  0.1401 -1.0883 -0.6742
 8833SOL    HW227310   7.323   7.761   5.717  0.7643  0.9521 -0.2166
 8834SOL     OW27311   0.690   3.113   1.170 -0.0933  0.3375 -0.3452
 8834SOL    HW127312   0.718   3.034   1.123  0.3278  1.7324 -2.5596
 8834SOL    HW227313   0.597   3.099   1.185 -0.2536 -0.1397 -1.6609
 8835SOL     OW27314   2.194   6.850   3.780  0.3478 -0.4919  0.1531
 8835SOL    HW127315   2.149   6.778   3.825 -3.6001 -0.4343 -3.1402
 8835SOL    HW227316   2.261   6.807   3.726 -2.3027 -2.0344 -2.1933
 8836SOL     OW27317   5.361   6.575   5.300  0.5299  0.7944 -1.0753
 8836SOL    HW127318   5.324   6.650   5.346  0.4748  0.4360 -0.5397
 8836SOL    HW227319   5.306   6.565   5.222 -0.2850  0.4795 -0.4629
 8837SOL     OW27320   2.796   0.905   1.595  0.8488  0.8185 -0.7240
 8837SOL    HW127321   2.736   0.937   1.527  0.3148 -0.3091 -0.8045
 8837SOL    HW227322   2.851   0.841   1.550  1.4056  1.0597 -0.3950
 8838SOL     OW27323   7.913   4.762   5.407  0.4268  1.0536 -0.4546
 8838SOL    HW127324   7.835   4.784   5.356 -0.1226  2.2270  0.8259
 8838SOL    HW227325   7.893   4.792   5.496  0.9261 -1.8479  0.7572
 8839SOL     OW27326   1.295   2.717   1.011 -0.2298  0.2822  0.2426
 8839SOL    HW127327   1.370   2.735   0.955 -0.1203  1.0399  0.6223
 8839SOL    HW227328   1.325   2.739   1.099 -0.4502 -0.7425  0.5940
 8840SOL     OW27329   6.302   2.302   2.359  0.6344  0.3778 -0.0820
 8840SOL    HW127330   6.361   2.357   2.307 -0.3160  1.5284  0.0311
 8840SOL    HW227331   6.240   2.268   2.295  0.8945 -0.1451 -0.0628
 8841SOL     OW27332   1.513   4.221   0.070  0.4043 -0.1362 -0.1949
 8841SOL    HW127333   1.572   4.159   0.113  0.1851 -0.8913 -0.9496
 8841SOL    HW227334   1.436   4.224   0.127  0.2977 -0.7893 -0.2888
 8842SOL     OW27335   5.050   4.494   6.148 -0.2005  0.8420  1.0122
 8842SOL    HW127336   4.996   4.474   6.225 -1.7276  1.4018  0.1326
 8842SOL    HW227337   5.007   4.570   6.108  0.7790  0.7948 -0.1980
 8843SOL     OW27338   5.498   5.509   7.388  0.1009 -0.0541  0.0241
 8843SOL    HW127339   5.592   5.520   7.373  0.1528  2.0858  1.4434
 8843SOL    HW227340   5.481   5.418   7.367  2.4510 -0.4505 -0.4721
 8844SOL     OW27341   4.190   5.994   3.214  0.1742 -0.1815  0.7104
 8844SOL    HW127342   4.137   5.944   3.275 -2.0674 -1.4596 -2.0521
 8844SOL    HW227343   4.142   5.991   3.131  2.6468  2.0170 -1.0027
 8845SOL     OW27344   0.043   6.532   7.160 -0.5060 -0.0437  0.2714
 8845SOL    HW127345   0.122   6.572   7.123  0.4748 -0.8800  1.3682
 8845SOL    HW227346  -0.027   6.557   7.100  0.8183 -0.4459 -1.5352
 8846SOL     OW27347   0.556   0.947   4.150  0.1456 -0.0902  0.2835
 8846SOL    HW127348   0.504   0.916   4.076 -2.1221 -1.6068  2.3464
 8846SOL    HW227349   0.646   0.921   4.130 -0.1335  0.7225 -2.4633
 8847SOL     OW27350   5.680   2.860   1.186 -0.4638 -0.4619  0.1410
 8847SOL    HW127351   5.666   2.945   1.227 -0.9288  0.2103 -1.3391
 8847SOL    HW227352   5.770   2.864   1.153 -0.2492 -0.8206  0.6728
 8848SOL     OW27353   1.154   2.825   5.299 -0.1571 -0.0108  0.6978
 8848SOL    HW127354   1.095   2.783   5.236 -0.2775  0.2899  0.6118
 8848SOL    HW227355   1.128   2.917   5.300 -1.5471 -0.3572  2.7427
 8849SOL     OW27356   1.610   5.901   7.127 -0.1126 -0.1873 -0.2277
 8849SOL    HW127357   1.569   5.918   7.043  2.4137  0.3330 -1.4522
 8849SOL    HW227358   1.673   5.972   7.139 -0.3318 -0.2896  2.0828
 8850SOL     OW27359   6.883   7.208   7.663 -0.2317 -0.0880  0.0137
 8850SOL    HW127360   6.977   7.189   7.668 -0.2468 -0.4677 -0.9932
 8850SOL    HW227361   6.860   7.239   7.751  0.6690 -0.7658  0.5005
 8851SOL     OW27362   3.557   5.195   4.696  0.1739 -0.8087  0.0779
 8851SOL    HW127363   3.491   5.130   4.718  0.1078 -0.5021  0.7844
 8851SOL    HW227364   3.575   5.180   4.603  0.3737 -2.0299  0.2950
 8852SOL     OW27365   5.736   6.196   3.374 -0.3954 -0.4044  0.1024
 8852SOL    HW127366   5.772   6.264   3.318 -4.2944  0.0303 -2.2182
 8852SOL    HW227367   5.792   6.120   3.358  0.5311  0.6095 -1.8514
 8853SOL     OW27368   1.414   3.626   3.073 -0.0680 -0.0027 -0.0530
 8853SOL    HW127369   1.380   3.537   3.072  1.1134 -0.4874  0.4865
 8853SOL    HW227370   1.336   3.682   3.072 -0.8126 -1.0258 -0.8146
 8854SOL     OW27371   4.677   5.524   1.105  0.0806  0.0331  0.0103
 8854SOL    HW127372   4.742   5.567   1.049 -0.1674  0.6338  0.1814
 8854SOL    HW227373   4.684   5.431   1.082  2.1358 -0.1552  1.1553
 8855SOL     OW27374   7.406   4.055   0.405 -0.4285  0.0113  0.4073
 8855SOL    HW127375   7.343   4.011   0.461  0.2634 -0.5863  0.7261
 8855SOL    HW227376   7.490   4.013   0.424 -0.1635 -0.2029 -1.0515
 8856SOL     OW27377   3.878   2.755   6.809  0.6864 -0.1624  0.0843
 8856SOL    HW127378   3.884   2.838   6.761  1.8525  0.1417  0.7240
 8856SOL    HW227379   3.953   2.756   6.868  0.3420 -1.3882  0.5682
 8857SOL     OW27380   1.278   7.835   5.316 -0.3341 -0.4178  0.4156
 8857SOL    HW127381   1.261   7.742   5.299 -0.8551 -0.3707  0.6520
 8857SOL    HW227382   1.350   7.835   5.379  0.6448 -0.6234 -0.6686
 8858SOL     OW27383   3.746   3.227   2.269 -0.1615  0.3825  0.0736
 8858SOL    HW127384   3.654   3.210   2.290  0.0965 -0.4723  0.5541
 8858SOL    HW227385   3.764   3.312   2.308 -0.7424  0.5605 -0.0286
 8859SOL     OW27386   1.092   2.465   2.013 -0.2148 -0.1498  0.2183
 8859SOL    HW127387   1.053   2.550   2.032 -0.3531 -0.4491  1.3568
 8859SOL    HW227388   1.155   2.482   1.944 -0.0754  0.9221  0.6001
 8860SOL     OW27389   4.464   3.091   6.998 -0.2163 -0.2181 -0.0040
 8860SOL    HW127390   4.516   3.171   7.004  0.3147 -0.5859  0.3674
 8860SOL    HW227391   4.523   3.022   7.027 -0.4858 -0.8273 -0.8828
 8861SOL     OW27392   5.889   2.160   4.389  0.4774  0.1792  0.2667
 8861SOL    HW127393   5.976   2.124   4.371 -0.0447 -0.8547 -0.2572
 8861SOL    HW227394   5.867   2.127   4.476  1.1390  1.5424  0.9969
 8862SOL     OW27395   6.666   7.549   2.692  0.4019 -0.3955  0.4466
 8862SOL    HW127396   6.588   7.527   2.744  0.1587 -0.6657 -0.0237
 8862SOL    HW227397   6.710   7.617   2.742  0.9660 -1.6691  1.7622
 8863SOL     OW27398   0.178   2.136   5.847  0.1571  0.1375 -0.3591
 8863SOL    HW127399   0.136   2.183   5.774 -2.9828  1.1482  1.9104
 8863SOL    HW227400   0.172   2.044   5.822 -1.0220  0.4473 -1.3333
 8864SOL     OW27401   2.124   1.167   1.932  0.0353 -0.8223  0.2459
 8864SOL    HW127402   2.072   1.107   1.878 -3.1352  0.4175  1.6785
 8864SOL    HW227403   2.125   1.249   1.883 -0.0375 -0.6163  0.5844
 8865SOL     OW27404   6.016   3.086   7.096  0.2165 -0.3803 -0.2590
 8865SOL    HW127405   5.942   3.027   7.086 -1.1911  1.2154  0.3559
 8865SOL    HW227406   6.081   3.053   7.033 -0.8749 -1.9753 -0.6219
 8866SOL     OW27407   3.861   6.792   5.949  0.3997  0.5256  0.0698
 8866SOL    HW127408   3.778   6.838   5.962  0.3195  0.6737 -0.8854
 8866SOL    HW227409   3.835   6.701   5.933  0.3251  0.7852 -1.4070
 8867SOL     OW27410   7.209   6.360   1.328  0.2007  0.8145 -0.0068
 8867SOL    HW127411   7.180   6.296   1.393 -1.7755  1.0488 -0.6068
 8867SOL    HW227412   7.142   6.429   1.330 -0.1162  0.6666 -2.5011
 8868SOL     OW27413   6.220   0.446   6.212 -0.5447 -0.3318  0.1375
 8868SOL    HW127414   6.272   0.374   6.177 -2.2454 -0.8179 -1.5408
 8868SOL    HW227415   6.136   0.407   6.234 -1.0629  0.8900  0.3972
 8869SOL     OW27416   5.807   4.731   4.952 -0.0203 -0.4420  0.5240
 8869SOL    HW127417   5.759   4.813   4.966  0.5849  0.2856 -1.3747
 8869SOL    HW227418   5.864   4.749   4.878  0.7521 -2.3412  0.6055
 8870SOL     OW27419   1.222   4.098   1.218  0.4981 -0.1217 -0.6935
 8870SOL    HW127420   1.220   4.135   1.130  0.1534 -1.1280 -1.1281
 8870SOL    HW227421   1.142   4.046   1.224  0.4333  0.0768  0.2817
 8871SOL     OW27422   0.529   3.761   4.552 -0.7177 -0.6381 -0.3043
 8871SOL    HW127423   0.467   3.717   4.496 -0.7172 -1.7975  0.5660
 8871SOL    HW227424   0.504   3.735   4.641 -2.7954  3.6685  0.6531
 8872SOL     OW27425   7.027   3.593   5.854  0.3795 -0.8966  0.0628
 8872SOL    HW127426   7.049   3.608   5.946  2.1242  0.1171 -0.4718
 8872SOL    HW227427   6.961   3.659   5.834  0.9878 -0.2162  0.2541
 8873SOL     OW27428   6.332   1.550   5.756 -0.1370  0.2729 -0.1483
 8873SOL    HW127429   6.367   1.629   5.714  2.0523 -0.2477  0.5734
 8873SOL    HW227430   6.410   1.503   5.788 -1.5216 -0.9496  1.6252
 8874SOL     OW27431   3.656   0.459   4.065 -0.2126 -0.1753 -0.2850
 8874SOL    HW127432   3.576   0.412   4.039  1.1487 -1.2167 -2.9396
 8874SOL    HW227433   3.723   0.391   4.071  0.8423  0.8886  0.3355
 8875SOL     OW27434   7.019   1.520   1.061 -0.1599 -0.1150 -0.1548
 8875SOL    HW127435   6.978   1.439   1.031 -0.6972  0.2008 -0.2803
 8875SOL    HW227436   7.011   1.517   1.157 -1.5026  0.4802 -0.2414
 8876SOL     OW27437   6.605   1.269   7.313 -0.1497 -0.0451  0.4100
 8876SOL    HW127438   6.674   1.220   7.269  0.7103  1.1793  0.3628
 8876SOL    HW227439   6.607   1.355   7.272 -1.2387  0.2304  0.8993
 8877SOL     OW27440   1.470   2.944   0.559 -0.1056 -0.0288 -0.1465
 8877SOL    HW127441   1.389   2.971   0.516 -0.4341  0.8169  0.9839
 8877SOL    HW227442   1.525   2.911   0.487 -1.2790 -0.2350 -0.9753
 8878SOL     OW27443   6.197   3.971   4.026 -0.5917  0.5049 -0.3713
 8878SOL    HW127444   6.165   3.890   4.064 -2.1539  1.2853  0.0906
 8878SOL    HW227445   6.275   3.994   4.077  0.7352 -1.3910 -1.4319
 8879SOL     OW27446   7.103   2.561   6.121 -0.3602 -0.2649  0.2698
 8879SOL    HW127447   7.057   2.637   6.156  0.6465 -0.0258  1.1178
 8879SOL    HW227448   7.179   2.550   6.179  1.6929  0.4827 -2.1170
 8880SOL     OW27449   5.846   7.918   2.473  0.2028 -0.1602 -0.0320
 8880SOL    HW127450   5.821   8.010   2.470  1.5019  0.2302 -2.7514
 8880SOL    HW227451   5.928   7.917   2.522 -0.7490 -0.2070  1.6272
 8881SOL     OW27452   2.110   3.697   3.169  0.0316  0.0082  0.2206
 8881SOL    HW127453   2.065   3.751   3.235 -0.5426 -0.2640  0.0560
 8881SOL    HW227454   2.197   3.683   3.205  0.2149  1.0989  0.2445
 8882SOL     OW27455   3.786   5.758   0.431 -0.5442  0.0688  0.2595
 8882SOL    HW127456   3.695   5.730   0.436  0.0902 -1.9173  1.9856
 8882SOL    HW227457   3.837   5.681   0.457  1.8023  0.4204 -2.7128
 8883SOL     OW27458   7.776   2.443   5.002  0.0617  0.1487 -0.2984
 8883SOL    HW127459   7.690   2.405   5.017 -0.2583  0.3518 -1.4526
 8883SOL    HW227460   7.783   2.514   5.065 -0.7742  0.3551 -0.4281
 8884SOL     OW27461   5.285   0.876   7.365  0.2150 -0.4580  0.3975
 8884SOL    HW127462   5.208   0.818   7.362 -0.2264  0.1316  0.2075
 8884SOL    HW227463   5.296   0.896   7.458 -0.0322 -0.3221  0.3990
 8885SOL     OW27464   4.478   5.605   5.720 -0.0769  0.5891  0.0491
 8885SOL    HW127465   4.456   5.542   5.789  1.4614 -0.2742 -0.1965
 8885SOL    HW227466   4.455   5.690   5.757 -1.0063 -0.0141  0.8954
 8886SOL     OW27467   1.333   4.138   7.545 -0.1757 -0.6528  0.3872
 8886SOL    HW127468   1.354   4.170   7.633  1.6914 -0.3214 -0.1228
 8886SOL    HW227469   1.411   4.088   7.519 -1.3479 -2.1358 -0.4614
 8887SOL     OW27470   1.390   4.656   1.164  0.7801 -0.7067 -0.0197
 8887SOL    HW127471   1.388   4.661   1.259 -1.8201 -1.2083  0.0124
 8887SOL    HW227472   1.478   4.625   1.144  1.7280  0.3740  2.1291
 8888SOL     OW27473   3.093   3.857   5.754  0.5702  0.0947 -0.0214
 8888SOL    HW127474   3.088   3.951   5.771 -0.0326 -0.1131  1.0215
 8888SOL    HW227475   3.140   3.821   5.829 -0.1627 -0.5707  0.1353
 8889SOL     OW27476   5.307   3.633   6.971  0.4795  0.1026 -0.7289
 8889SOL    HW127477   5.340   3.553   7.013  0.3128  1.6171  2.6231
 8889SOL    HW227478   5.386   3.678   6.942  0.8252  0.0961  0.1566
 8890SOL     OW27479   2.760   7.246   7.104  0.6349 -0.1114 -0.5095
 8890SOL    HW127480   2.842   7.213   7.141 -0.3336  0.2516  2.1752
 8890SOL    HW227481   2.740   7.324   7.156 -3.6295 -2.6173  2.2390
 8891SOL     OW27482   6.252   5.533   6.044  0.4566 -0.4114 -0.0869
 8891SOL    HW127483   6.290   5.452   6.012 -0.2244 -0.5703 -0.5239
 8891SOL    HW227484   6.303   5.555   6.122  3.0961  0.7516 -2.0000
 8892SOL     OW27485   2.073   0.661   0.747 -0.3496  0.0674  0.5916
 8892SOL    HW127486   1.987   0.657   0.705 -1.0536  2.3631  1.6623
 8892SOL    HW227487   2.089   0.754   0.759  1.6319 -0.3751  1.7891
 8893SOL     OW27488   5.003   5.764   5.322  0.5339  0.2681  0.0429
 8893SOL    HW127489   4.941   5.836   5.319  0.6772  0.3658 -1.2549
 8893SOL    HW227490   5.040   5.760   5.234  0.7830 -1.1713  0.1786
 8894SOL     OW27491   5.007   5.809   0.367  0.1068  0.5392  0.1664
 8894SOL    HW127492   4.946   5.739   0.390  1.2016 -0.5119  0.0041
 8894SOL    HW227493   5.077   5.802   0.432  0.2366  1.4957  0.1458
 8895SOL     OW27494   4.124   4.194   6.294  0.2492 -0.3912  0.8074
 8895SOL    HW127495   4.195   4.256   6.308 -0.7232  0.8710  0.3429
 8895SOL    HW227496   4.132   4.131   6.366  0.8979  0.6199  1.6459
 8896SOL     OW27497   2.258   6.007   0.344  0.0480 -0.2476  0.3873
 8896SOL    HW127498   2.189   6.031   0.405  0.7623  1.7179  0.4671
 8896SOL    HW227499   2.237   6.055   0.264  1.0826  0.0275  0.2733
 8897SOL     OW27500   5.355   5.792   7.758  0.6671 -0.3066 -0.4153
 8897SOL    HW127501   5.378   5.761   7.671  2.8823  1.0708 -0.4177
 8897SOL    HW227502   5.362   5.888   7.751 -0.7221 -0.0795  0.8783
 8898SOL     OW27503   1.749   4.851   5.053 -0.7983 -0.5393 -0.3510
 8898SOL    HW127504   1.819   4.915   5.067 -2.4318  1.1648  0.5850
 8898SOL    HW227505   1.746   4.801   5.134 -0.5896 -0.7134 -0.4488
 8899SOL     OW27506   4.303   5.784   6.089  0.1180 -0.8542  0.3170
 8899SOL    HW127507   4.298   5.868   6.135  1.1692 -0.0506 -0.9680
 8899SOL    HW227508   4.317   5.808   5.998 -0.1312 -2.4392 -0.1560
 8900SOL     OW27509   6.038   0.408   1.453 -0.7263  0.8282  0.0221
 8900SOL    HW127510   5.956   0.395   1.406  0.2214 -0.2055 -1.4379
 8900SOL    HW227511   6.049   0.329   1.505 -1.3077  1.5656  1.3093
 8901SOL     OW27512   1.633   1.718   7.954  0.0964 -0.9520  0.1581
 8901SOL    HW127513   1.698   1.678   7.897  0.9787  0.4769  0.1017
 8901SOL    HW227514   1.670   1.710   8.042  1.3381  1.4953 -0.0473
 8902SOL     OW27515   5.563   4.119   0.886 -0.6071 -0.4356 -0.0677
 8902SOL    HW127516   5.596   4.029   0.891  1.7276  0.4160  1.0725
 8902SOL    HW227517   5.605   4.156   0.809 -0.3962  0.0924  0.2939
 8903SOL     OW27518   4.582   5.275   4.211  0.3210  0.2443  0.0186
 8903SOL    HW127519   4.555   5.231   4.130  2.0082  0.0443 -0.4783
 8903SOL    HW227520   4.658   5.224   4.241  0.8604  1.4244  0.7030
 8904SOL     OW27521   6.767   2.720   7.748  0.0841  0.1542 -0.4988
 8904SOL    HW127522   6.770   2.809   7.714 -0.1311 -0.1157 -1.2533
 8904SOL    HW227523   6.753   2.665   7.671 -1.5536 -0.3897  0.1357
 8905SOL     OW27524   5.877   3.220   1.310 -0.0758 -0.5372 -0.4076
 8905SOL    HW127525   5.963   3.212   1.351 -0.9548  3.3865  2.8955
 8905SOL    HW227526   5.829   3.143   1.340  0.7086 -0.0141  2.4912
 8906SOL     OW27527   7.410   2.194   7.705  0.6439 -0.0294 -0.0017
 8906SOL    HW127528   7.432   2.115   7.753 -1.7941  0.4893  2.1997
 8906SOL    HW227529   7.485   2.252   7.719  1.2115 -0.9220  0.7828
 8907SOL     OW27530   0.435   1.995   4.557 -0.0453  0.3140 -0.8420
 8907SOL    HW127531   0.386   1.944   4.492 -1.4975 -0.0546  0.4826
 8907SOL    HW227532   0.456   2.077   4.512  1.7672 -1.1043 -2.7964
 8908SOL     OW27533   2.500   2.864   0.595 -0.7739 -0.3522  0.4179
 8908SOL    HW127534   2.529   2.798   0.532 -1.5513 -1.5237  1.2416
 8908SOL    HW227535   2.443   2.922   0.545 -0.8884 -0.9005 -0.1051
 8909SOL     OW27536   7.636   1.075   7.194  0.0806  0.1864  0.1251
 8909SOL    HW127537   7.695   1.114   7.130 -0.5851 -0.0108 -0.6254
 8909SOL    HW227538   7.662   0.983   7.196 -0.5331 -0.0151 -0.6078
 8910SOL     OW27539   7.666   1.972   3.903 -0.5720  0.1566 -0.0234
 8910SOL    HW127540   7.705   2.042   3.851 -0.2083 -0.6149 -0.8242
 8910SOL    HW227541   7.636   1.908   3.838  0.9994 -1.4316  0.7202
 8911SOL     OW27542   7.881   4.328   7.994 -0.0565 -0.1582 -0.0266
 8911SOL    HW127543   7.841   4.306   7.910 -0.6182  0.2639  0.1179
 8911SOL    HW227544   7.942   4.399   7.974 -2.2835  2.0016  0.2981
 8912SOL     OW27545   1.591   6.552   0.137  0.2328 -0.1335 -0.0502
 8912SOL    HW127546   1.595   6.521   0.046 -0.0972  0.9794 -0.4593
 8912SOL    HW227547   1.504   6.527   0.167 -0.7681  1.9537 -0.9979
 8913SOL     OW27548   7.980   2.380   6.639 -0.3813 -0.7023 -0.3194
 8913SOL    HW127549   8.026   2.336   6.567 -0.5338 -0.6972 -0.4199
 8913SOL    HW227550   7.964   2.310   6.703 -0.6734 -0.8067 -0.5046
 8914SOL     OW27551   2.153   4.013   3.039 -0.3777  0.2738 -0.5186
 8914SOL    HW127552   2.100   3.976   3.108 -0.0007 -1.0511 -0.9184
 8914SOL    HW227553   2.096   4.077   2.995 -0.2992  1.9270  1.6204
 8915SOL     OW27554   3.166   0.714   4.354  0.5785 -0.1889 -0.5706
 8915SOL    HW127555   3.239   0.652   4.354  0.3686 -0.4418 -0.0298
 8915SOL    HW227556   3.162   0.747   4.264 -0.6478 -2.5525 -1.4705
 8916SOL     OW27557   6.935   4.188   7.136  0.4852 -0.0566 -0.4375
 8916SOL    HW127558   6.933   4.137   7.054  0.4714 -0.8139  0.0214
 8916SOL    HW227559   6.982   4.132   7.198  3.0019  1.6634 -0.6411
 8917SOL     OW27560   4.741   4.671   6.982 -0.3306 -0.0272  0.3117
 8917SOL    HW127561   4.787   4.749   7.012 -1.0616 -0.5277  3.0061
 8917SOL    HW227562   4.703   4.696   6.898  2.3811  1.3104 -0.6511
 8918SOL     OW27563   1.344   2.827   1.277 -0.1195  0.6670 -0.4091
 8918SOL    HW127564   1.385   2.760   1.332 -0.6458 -0.4650 -1.3536
 8918SOL    HW227565   1.414   2.890   1.260  0.1426  0.8833  1.2687
 8919SOL     OW27566   6.546   6.366   7.135  0.1967  0.4554  0.0111
 8919SOL    HW127567   6.585   6.433   7.079  2.9840 -1.7250 -0.9542
 8919SOL    HW227568   6.618   6.338   7.192 -0.6233 -2.0606 -0.0569
 8920SOL     OW27569   7.952   6.432   3.192  0.3938 -0.4000 -0.6160
 8920SOL    HW127570   7.899   6.477   3.127  0.2511  0.1335 -0.1429
 8920SOL    HW227571   7.895   6.364   3.227 -0.7143  1.3671  1.2578
 8921SOL     OW27572   4.558   5.979   5.239  0.2314  0.4034 -0.2212
 8921SOL    HW127573   4.530   6.042   5.306 -0.1374 -0.9909  0.9975
 8921SOL    HW227574   4.510   5.899   5.260  1.2130 -0.5040 -1.2952
 8922SOL     OW27575   3.989   1.613   6.534  0.0634 -0.0641  0.5573
 8922SOL    HW127576   3.936   1.657   6.600  0.1979  1.6757 -0.4428
 8922SOL    HW227577   4.051   1.561   6.584  0.6002  1.7281  1.8408
 8923SOL     OW27578   0.546   6.377   3.415  0.2300 -0.0886  0.6661
 8923SOL    HW127579   0.488   6.418   3.351 -2.1349 -1.6701  1.6584
 8923SOL    HW227580   0.555   6.442   3.485  2.9463  1.7107 -1.1569
 8924SOL     OW27581   4.689   5.020   3.541  0.4035 -0.6218  0.0846
 8924SOL    HW127582   4.659   5.012   3.632 -1.7284  0.0216 -0.5095
 8924SOL    HW227583   4.737   5.103   3.539  2.8694 -1.8930  1.1531
 8925SOL     OW27584   6.618   5.261   7.180  0.1388  0.1586  0.2938
 8925SOL    HW127585   6.584   5.287   7.265 -1.2358 -1.9739  0.4824
 8925SOL    HW227586   6.544   5.218   7.137  1.4035 -0.7548 -1.0804
 8926SOL     OW27587   6.697   5.138   0.527  0.2830  0.2295  0.6567
 8926SOL    HW127588   6.730   5.081   0.458  0.2564  0.2374  0.6375
 8926SOL    HW227589   6.750   5.116   0.604  1.8653  1.8022  0.0839
 8927SOL     OW27590   1.373   0.464   7.338  0.4144 -0.2926 -0.0939
 8927SOL    HW127591   1.342   0.550   7.310  0.3425 -0.2531  0.1065
 8927SOL    HW227592   1.468   0.471   7.336  0.4195  0.0501  0.6939
 8928SOL     OW27593   0.387   5.077   3.051  0.3542  0.5784  0.3960
 8928SOL    HW127594   0.365   5.043   3.138 -1.0280 -1.2641 -0.5950
 8928SOL    HW227595   0.354   5.010   2.990  2.8985  0.9076 -1.5009
 8929SOL     OW27596   0.365   0.073   7.627  0.2521  0.3487  0.0948
 8929SOL    HW127597   0.306   0.116   7.688 -0.0373  0.6275 -0.3731
 8929SOL    HW227598   0.344   0.111   7.542  1.7372  1.1663  0.0437
 8930SOL     OW27599   4.491   3.201   1.252  0.5679  0.2328 -0.1951
 8930SOL    HW127600   4.429   3.228   1.183 -2.5283 -2.4027  1.2913
 8930SOL    HW227601   4.569   3.173   1.204 -0.0395  1.9244 -2.3289
 8931SOL     OW27602   2.963   2.008   3.629 -0.7891  0.3701  0.4717
 8931SOL    HW127603   2.905   2.016   3.554 -1.9074  0.2377  1.2992
 8931SOL    HW227604   2.935   2.077   3.689 -1.3324 -0.8369  1.6695
 8932SOL     OW27605   5.663   5.971   4.440  0.2556  0.1359  0.5126
 8932SOL    HW127606   5.752   5.976   4.474 -0.1091  0.2777  1.4773
 8932SOL    HW227607   5.616   6.043   4.482 -0.5710 -0.5656  0.8502
 8933SOL     OW27608   2.930   1.069   5.157 -0.0767  0.1417  0.3086
 8933SOL    HW127609   2.955   0.996   5.213 -0.0994 -0.9776 -1.0672
 8933SOL    HW227610   2.985   1.142   5.186  1.4905 -1.0100  0.3495
 8934SOL     OW27611   1.321   2.011   2.096  0.0733  0.6605  0.5418
 8934SOL    HW127612   1.331   2.107   2.090  0.3880  0.5938 -0.1927
 8934SOL    HW227613   1.410   1.979   2.105  0.1339  0.3485 -0.9174
 8935SOL     OW27614   5.226   3.224   6.502  0.3248 -0.2556 -0.1514
 8935SOL    HW127615   5.195   3.203   6.414 -0.4696 -0.6231  0.2073
 8935SOL    HW227616   5.191   3.311   6.519  1.8506  0.5319 -0.8154
 8936SOL     OW27617   2.769   0.357   1.123 -0.1515  0.1988 -0.6114
 8936SOL    HW127618   2.722   0.282   1.087 -0.3769 -0.2546  0.5642
 8936SOL    HW227619   2.813   0.322   1.201  1.0551  0.9232 -0.9478
 8937SOL     OW27620   0.918   2.342   1.269 -0.2128 -0.1640 -0.2413
 8937SOL    HW127621   0.945   2.347   1.361  1.4545 -1.8325 -0.5996
 8937SOL    HW227622   0.990   2.381   1.220 -1.3910  1.3628 -0.8640
 8938SOL     OW27623   6.543   4.158   4.890  0.0274  0.5979 -0.4339
 8938SOL    HW127624   6.571   4.140   4.800 -0.0114  0.6007 -0.4465
 8938SOL    HW227625   6.617   4.206   4.928 -0.0935  0.8850 -0.5640
 8939SOL     OW27626   1.956   4.176   1.751 -0.5254 -0.4915 -0.3087
 8939SOL    HW127627   1.868   4.143   1.733 -0.3109 -0.7913 -0.8236
 8939SOL    HW227628   2.006   4.100   1.780 -0.7872 -0.0745  1.3667
 8940SOL     OW27629   5.697   2.388   0.926  0.1074 -0.0723 -0.2184
 8940SOL    HW127630   5.778   2.396   0.977  0.6268 -0.7098 -0.9176
 8940SOL    HW227631   5.727   2.368   0.837 -0.8174 -0.1921 -0.5099
 8941SOL     OW27632   0.210   5.087   6.445 -0.1267 -0.4152 -0.0862
 8941SOL    HW127633   0.240   5.086   6.535 -1.6908  1.3157  0.5205
 8941SOL    HW227634   0.237   5.172   6.411 -1.6867 -0.0227 -0.4257
 8942SOL     OW27635   3.348   4.974   2.397 -0.2102 -0.1238 -0.0711
 8942SOL    HW127636   3.285   5.045   2.393 -1.5610 -1.2950 -0.4025
 8942SOL    HW227637   3.341   4.930   2.312  0.7911 -0.5063  0.0240
 8943SOL     OW27638   1.470   7.867   2.173  0.3133  0.5461 -0.1315
 8943SOL    HW127639   1.508   7.942   2.219 -0.3356  0.7515  0.0733
 8943SOL    HW227640   1.499   7.878   2.082  1.4090  0.2646  0.1650
 8944SOL     OW27641   4.512   7.226   5.044  0.6763 -0.2719 -0.2681
 8944SOL    HW127642   4.585   7.179   5.005  1.5056 -0.4910  1.4767
 8944SOL    HW227643   4.500   7.185   5.129  0.4328  1.6798  0.6806
 8945SOL     OW27644   5.322   1.148   2.774 -0.4926  0.5640 -0.2631
 8945SOL    HW127645   5.298   1.099   2.695 -0.1468  0.7407 -0.4768
 8945SOL    HW227646   5.295   1.090   2.846 -1.1288  0.5529 -0.5010
 8946SOL     OW27647   6.199   7.347   2.040  0.1212 -0.0916 -0.0099
 8946SOL    HW127648   6.130   7.363   1.976  0.7309 -0.6331 -0.8113
 8946SOL    HW227649   6.222   7.434   2.072 -0.2044  0.1825 -0.5029
 8947SOL     OW27650   3.070   4.542   4.013 -0.1678  0.1608 -0.2135
 8947SOL    HW127651   3.067   4.526   3.919 -1.8592  1.2707 -0.3953
 8947SOL    HW227652   3.061   4.455   4.052  2.2843 -0.5178 -1.0179
 8948SOL     OW27653   7.425   6.843   0.214  0.3868 -0.3660  0.2851
 8948SOL    HW127654   7.449   6.827   0.122 -0.3406  0.7210 -0.1234
 8948SOL    HW227655   7.508   6.861   0.258  0.5390  2.1799 -0.8455
 8949SOL     OW27656   5.633   5.425   2.754 -0.4677 -0.1408 -0.0552
 8949SOL    HW127657   5.543   5.458   2.760 -0.5658 -0.2011 -1.1417
 8949SOL    HW227658   5.627   5.336   2.791 -0.9503 -0.3169 -0.5407
 8950SOL     OW27659   1.682   3.330   1.144  0.2210 -0.7941  0.0696
 8950SOL    HW127660   1.659   3.241   1.172  0.0861 -1.0490 -0.8002
 8950SOL    HW227661   1.652   3.334   1.053 -1.2862  0.6875  0.5850
 8951SOL     OW27662   4.897   7.422   5.550 -0.5023 -0.2621 -0.3005
 8951SOL    HW127663   4.855   7.421   5.464 -2.1771  0.2175  0.4710
 8951SOL    HW227664   4.977   7.473   5.537 -0.5253 -0.5400 -1.6469
 8952SOL     OW27665   2.599   0.658   4.672  0.6371 -0.0284  0.2432
 8952SOL    HW127666   2.608   0.681   4.764  0.0351 -0.1147  0.3273
 8952SOL    HW227667   2.518   0.700   4.644  0.0132 -1.2488  0.1597
 8953SOL     OW27668   0.074   4.777   7.036  0.0186  0.5504  0.2136
 8953SOL    HW127669   0.053   4.803   6.946  0.3584 -1.0211 -0.3514
 8953SOL    HW227670   0.104   4.857   7.078 -1.7568  1.6701 -0.5700
 8954SOL     OW27671   5.279   5.837   1.417  0.2644 -0.1765  0.0068
 8954SOL    HW127672   5.259   5.775   1.347 -0.6334  0.3896 -0.2599
 8954SOL    HW227673   5.350   5.891   1.382 -0.3479  0.2633 -0.5775
 8955SOL     OW27674   2.583   7.365   2.047  0.2104  0.1368  0.0438
 8955SOL    HW127675   2.652   7.299   2.042 -0.1188 -0.2009 -0.1131
 8955SOL    HW227676   2.601   7.425   1.975 -1.0146 -1.2791 -1.5304
 8956SOL     OW27677   3.789   3.810   3.870  0.2052 -0.0661  0.1881
 8956SOL    HW127678   3.720   3.743   3.870  0.6612 -0.5580  0.9193
 8956SOL    HW227679   3.866   3.764   3.903  0.6550  0.7055  0.2310
 8957SOL     OW27680   7.458   5.031   7.132  0.2917 -0.4369 -0.7085
 8957SOL    HW127681   7.456   4.991   7.219  1.0637 -0.8773 -0.8813
 8957SOL    HW227682   7.431   5.122   7.146 -0.7680 -0.8044 -0.1940
 8958SOL     OW27683   4.513   7.044   6.313 -0.0613  0.3814 -0.2667
 8958SOL    HW127684   4.522   7.108   6.242 -0.5560  0.1680 -0.5222
 8958SOL    HW227685   4.600   7.004   6.320  0.1414  0.7979 -0.3745
 8959SOL     OW27686   2.260   5.194   3.939  0.1457 -0.0940  0.0690
 8959SOL    HW127687   2.225   5.140   4.010  2.1676 -3.1721 -1.0586
 8959SOL    HW227688   2.338   5.236   3.975 -0.3158  0.5067  0.3836
 8960SOL     OW27689   7.021   2.753   3.252  0.1869  0.5955 -0.0909
 8960SOL    HW127690   6.931   2.722   3.258 -0.0072  0.5284 -2.3069
 8960SOL    HW227691   7.017   2.844   3.280 -1.0785  1.2721 -2.1817
 8961SOL     OW27692   5.581   6.636   0.193 -0.6986 -0.0636 -0.7110
 8961SOL    HW127693   5.646   6.703   0.170 -0.6239  0.7379  1.5982
 8961SOL    HW227694   5.506   6.655   0.137 -0.8824  2.3458  0.2474
 8962SOL     OW27695   1.500   0.558   4.043 -0.5975 -0.0081 -0.1652
 8962SOL    HW127696   1.586   0.529   4.074  0.9386  3.6781 -0.5709
 8962SOL    HW227697   1.495   0.525   3.953  1.7867  2.1042 -1.1878
 8963SOL     OW27698   4.411   2.694   0.223 -0.1652 -0.0434 -0.4125
 8963SOL    HW127699   4.411   2.706   0.318  1.7399  0.8560 -0.4993
 8963SOL    HW227700   4.465   2.765   0.189  0.3803 -1.1772 -2.0519
 8964SOL     OW27701   5.478   0.299   1.357 -0.0968  1.1579 -0.2355
 8964SOL    HW127702   5.507   0.361   1.290  1.7011  1.1634  0.4924
 8964SOL    HW227703   5.550   0.237   1.364 -1.4196 -0.4290 -0.2048
 8965SOL     OW27704   0.911   7.842   2.907  0.6752 -0.5185  0.1978
 8965SOL    HW127705   0.870   7.926   2.885 -0.0716 -0.8323  0.3709
 8965SOL    HW227706   0.914   7.840   3.002  0.0807 -0.9708  0.2129
 8966SOL     OW27707   6.244   6.632   2.698 -0.6417  0.1362  0.4616
 8966SOL    HW127708   6.316   6.695   2.692 -0.8694  0.3342 -0.2291
 8966SOL    HW227709   6.278   6.552   2.658 -1.1045  0.5091 -0.7134
 8967SOL     OW27710   3.814   4.832   4.146 -0.6687  0.2180  0.0546
 8967SOL    HW127711   3.737   4.806   4.196 -1.6750  1.0075 -1.0151
 8967SOL    HW227712   3.843   4.752   4.102 -0.7546 -0.1196  0.6000
 8968SOL     OW27713   2.316   0.864   3.296  0.1630 -0.2122  0.0042
 8968SOL    HW127714   2.298   0.942   3.348  0.0079 -0.5088  0.4001
 8968SOL    HW227715   2.314   0.895   3.205 -1.8289 -0.1112  0.0363
 8969SOL     OW27716   0.401   0.882   6.769 -0.0349  0.6159 -0.0812
 8969SOL    HW127717   0.355   0.820   6.826 -0.2172  0.7797 -0.0492
 8969SOL    HW227718   0.472   0.831   6.729  0.3635  0.6033  0.6245
 8970SOL     OW27719   0.555   2.454   7.248  0.0816 -0.1050 -0.9557
 8970SOL    HW127720   0.462   2.440   7.264  0.3711 -0.1415  0.9606
 8970SOL    HW227721   0.571   2.544   7.276  0.9579 -0.7057  0.6324
 8971SOL     OW27722   6.965   5.713   6.667  0.1528 -0.4852  0.3177
 8971SOL    HW127723   6.901   5.699   6.598 -1.0673  0.2827  1.2454
 8971SOL    HW227724   7.006   5.796   6.645 -0.3587 -0.1535  0.5832
 8972SOL     OW27725   3.068   2.777   1.211  0.3458 -0.0456  0.3607
 8972SOL    HW127726   3.154   2.769   1.253  0.7291 -1.2600 -0.5963
 8972SOL    HW227727   3.048   2.689   1.180 -1.1072  0.2924  0.2690
 8973SOL     OW27728   6.412   0.241   5.271 -0.4402  0.5920  0.0264
 8973SOL    HW127729   6.478   0.310   5.278 -0.2616  0.3758  0.5538
 8973SOL    HW227730   6.432   0.182   5.344 -1.7827  1.0221  0.7711
 8974SOL     OW27731   1.759   0.877   1.738  0.4293  0.1427  0.0169
 8974SOL    HW127732   1.826   0.870   1.807  2.4291  2.0492 -1.5629
 8974SOL    HW227733   1.808   0.868   1.656 -1.9479 -2.6547 -1.2733
 8975SOL     OW27734   0.905   7.198   4.532  0.3933 -0.8212 -0.5559
 8975SOL    HW127735   0.938   7.110   4.549 -2.9528 -1.9820  0.7957
 8975SOL    HW227736   0.822   7.202   4.580  0.4361  3.1297 -0.5076
 8976SOL     OW27737   4.106   4.215   4.667 -0.2003 -0.0748 -0.0646
 8976SOL    HW127738   4.191   4.240   4.630  0.2423 -0.0520  0.9473
 8976SOL    HW227739   4.059   4.297   4.678  0.5257  0.1589  1.4827
 8977SOL     OW27740   0.206   2.782   0.803  0.4613 -0.0322  0.2580
 8977SOL    HW127741   0.143   2.715   0.829  0.7273 -0.2729  0.2856
 8977SOL    HW227742   0.248   2.746   0.725 -2.0755  1.7328 -2.1228
 8978SOL     OW27743   7.421   1.097   6.529  0.2005  0.0379  0.2776
 8978SOL    HW127744   7.343   1.151   6.541 -0.5976 -0.7700 -0.9509
 8978SOL    HW227745   7.398   1.013   6.569 -0.6408 -1.0730 -2.3094
 8979SOL     OW27746   7.586   2.354   6.894 -0.0814 -0.4182  0.3673
 8979SOL    HW127747   7.581   2.295   6.969 -2.9626  0.0533  0.6226
 8979SOL    HW227748   7.508   2.336   6.842  1.1927  0.1349 -1.9182
 8980SOL     OW27749   0.698   7.160   2.888  0.1384  0.4028  0.4716
 8980SOL    HW127750   0.641   7.211   2.946 -0.8951 -0.1124 -0.0620
 8980SOL    HW227751   0.652   7.077   2.876  0.9804 -0.0022 -0.0209
 8981SOL     OW27752   7.930   1.116   1.011  0.0341  0.0922 -0.5971
 8981SOL    HW127753   7.900   1.111   1.102  0.0268  0.8128 -0.5556
 8981SOL    HW227754   7.878   1.186   0.973  1.4340  1.1546 -0.6144
 8982SOL     OW27755   4.496   5.680   3.362  0.3131  0.6133 -0.4196
 8982SOL    HW127756   4.401   5.677   3.377  0.2918  1.5222 -0.3343
 8982SOL    HW227757   4.513   5.768   3.330  1.3018  0.9194  0.8411
 8983SOL     OW27758   5.157   3.602   1.040  0.0930  0.2759  0.1360
 8983SOL    HW127759   5.141   3.569   0.952  2.8951 -0.0685 -0.3143
 8983SOL    HW227760   5.171   3.523   1.093  0.7395  0.5325  0.3609
 8984SOL     OW27761   7.462   2.347   5.799 -0.4083 -0.0208  0.0301
 8984SOL    HW127762   7.456   2.439   5.771 -1.6618 -0.3320 -0.7901
 8984SOL    HW227763   7.460   2.351   5.895 -1.3957  0.7556 -0.0108
 8985SOL     OW27764   4.074   6.140   6.269 -0.1130 -0.2104  0.5390
 8985SOL    HW127765   3.979   6.151   6.261 -0.3285 -1.2835  1.4233
 8985SOL    HW227766   4.105   6.223   6.305 -0.8115 -0.1361  0.9738
 8986SOL     OW27767   6.745   1.198   0.380 -0.0352  0.9191  0.8097
 8986SOL    HW127768   6.819   1.219   0.438 -0.1074 -0.3766  1.3984
 8986SOL    HW227769   6.763   1.110   0.349 -0.8939  0.9387  0.2313
 8987SOL     OW27770   3.374   6.559   0.071  0.4891  0.4289 -0.0572
 8987SOL    HW127771   3.407   6.519   0.152  1.6104 -1.4077 -1.3621
 8987SOL    HW227772   3.432   6.634   0.057  0.1485  0.9018  0.9213
 8988SOL     OW27773   5.146   3.064   5.510  0.4577 -0.0125  0.1872
 8988SOL    HW127774   5.165   2.973   5.487 -0.9242 -0.3674  0.3720
 8988SOL    HW227775   5.205   3.083   5.583  0.7979 -0.7362  0.1087
 8989SOL     OW27776   4.754   5.101   3.055 -0.2319  0.0687  0.1551
 8989SOL    HW127777   4.836   5.054   3.064 -0.5639 -0.5553 -0.0499
 8989SOL    HW227778   4.772   5.171   2.992 -0.4753 -1.5036 -1.7203
 8990SOL     OW27779   7.529   1.472   5.359 -0.0269  0.1317  0.3612
 8990SOL    HW127780   7.517   1.566   5.371  2.1338  0.2862  1.9005
 8990SOL    HW227781   7.598   1.465   5.293  0.4336 -0.3311  0.8773
 8991SOL     OW27782   2.729   3.117   6.414 -0.0782  0.5494 -0.1737
 8991SOL    HW127783   2.702   3.028   6.393  0.2601  0.1911  0.8452
 8991SOL    HW227784   2.715   3.166   6.333  0.1789 -0.5275 -0.8965
 8992SOL     OW27785   3.948   5.940   5.588  0.0779  0.4466 -0.2122
 8992SOL    HW127786   3.888   5.904   5.523  1.4222 -0.2390 -1.1370
 8992SOL    HW227787   3.942   6.035   5.577  0.3959  0.3453 -1.4956
 8993SOL     OW27788   6.309   2.057   0.979 -0.4041  0.5134  0.6713
 8993SOL    HW127789   6.238   1.997   0.955 -1.3103  1.0364  1.9300
 8993SOL    HW227790   6.379   2.000   1.009 -0.3973 -0.0044 -0.2929
 8994SOL     OW27791   7.544   0.999   0.471 -0.0899  0.0319  0.3178
 8994SOL    HW127792   7.451   1.020   0.460 -0.3528 -0.9651  0.4639
 8994SOL    HW227793   7.565   0.944   0.396 -0.2297 -1.6027  1.4246
 8995SOL     OW27794   3.884   2.396   6.442 -0.4243  0.1651 -0.3086
 8995SOL    HW127795   3.910   2.341   6.369  0.1296  1.1724 -0.8970
 8995SOL    HW227796   3.931   2.361   6.518 -0.3149 -0.3418 -0.6112
 8996SOL     OW27797   2.129   0.837   2.794 -0.2316 -0.0723  0.6472
 8996SOL    HW127798   2.036   0.838   2.775  0.0455 -1.2848 -0.9186
 8996SOL    HW227799   2.160   0.924   2.768 -1.0067  0.6054  1.8648
 8997SOL     OW27800   1.601   5.841   2.066  0.0872  0.6338 -0.0075
 8997SOL    HW127801   1.649   5.773   2.115 -0.2857  1.3073  1.3567
 8997SOL    HW227802   1.569   5.900   2.134 -1.8787  0.7246 -0.9630
 8998SOL     OW27803   4.228   5.334   4.132  0.0514 -0.4314 -0.2784
 8998SOL    HW127804   4.182   5.303   4.210 -0.2980 -2.2943 -1.1549
 8998SOL    HW227805   4.293   5.266   4.115  0.9329  0.5451 -0.9429
 8999SOL     OW27806   4.173   6.378   2.492  0.1593  0.5355 -0.0655
 8999SOL    HW127807   4.176   6.286   2.517  1.1889 -0.0189 -1.9628
 8999SOL    HW227808   4.227   6.423   2.558 -0.4243 -0.1919  0.9227
 9000SOL     OW27809   0.760   2.200   3.874 -0.0836 -0.3044 -0.2323
 9000SOL    HW127810   0.834   2.244   3.915  0.9059 -1.3670 -0.8249
 9000SOL    HW227811   0.799   2.147   3.805 -1.5386  0.1764 -1.4804
 9001SOL     OW27812   1.004   3.897   1.926 -0.5323  0.2820  0.2516
 9001SOL    HW127813   0.938   3.870   1.863 -0.5395 -0.2920  0.4976
 9001SOL    HW227814   1.081   3.919   1.874 -0.4138 -0.5505  0.0635
 9002SOL     OW27815   0.975   1.374   4.663  0.7854  0.6327  0.4004
 9002SOL    HW127816   1.058   1.382   4.616  0.9320  0.7550  0.6692
 9002SOL    HW227817   0.939   1.290   4.637  0.9118  0.6556  0.1514
 9003SOL     OW27818   4.966   0.516   4.681 -0.0144 -0.4740 -0.2800
 9003SOL    HW127819   4.900   0.574   4.719 -0.8757 -1.3954 -0.3322
 9003SOL    HW227820   4.996   0.463   4.755  0.9193  0.1564 -0.1911
 9004SOL     OW27821   6.473   1.940   3.922  0.2214 -0.3633  0.4402
 9004SOL    HW127822   6.562   1.974   3.915 -0.3939  1.4160  0.9287
 9004SOL    HW227823   6.453   1.907   3.835  1.3097 -0.7150  0.3047
 9005SOL     OW27824   1.101   1.660   0.272  0.5673 -0.0727  0.1369
 9005SOL    HW127825   1.036   1.650   0.342 -1.8640 -1.4799 -2.1106
 9005SOL    HW227826   1.163   1.589   0.287  0.1327 -0.3104  0.8878
 9006SOL     OW27827   1.335   3.880   0.217  0.3022 -0.6207 -0.8574
 9006SOL    HW127828   1.333   3.896   0.122 -2.6017  3.0947 -0.4216
 9006SOL    HW227829   1.302   3.791   0.227 -1.0756 -0.4757 -3.3269
 9007SOL     OW27830   6.356   1.198   6.838 -0.0090 -0.0685  0.7860
 9007SOL    HW127831   6.397   1.185   6.923  1.5361 -1.9936 -0.1756
 9007SOL    HW227832   6.271   1.154   6.845  0.2273 -0.4580  1.2476
 9008SOL     OW27833   4.033   4.156   3.461 -0.4344  0.5136  0.1183
 9008SOL    HW127834   4.008   4.228   3.403 -0.1906  1.2997  0.9631
 9008SOL    HW227835   3.994   4.079   3.422 -0.9152  1.1445 -0.6744
 9009SOL     OW27836   7.331   1.708   1.870 -0.2650  0.1523  0.4627
 9009SOL    HW127837   7.263   1.766   1.904 -0.9614 -0.8301  0.8122
 9009SOL    HW227838   7.387   1.691   1.945  0.9755  1.7334 -0.0509
 9010SOL     OW27839   0.668   7.421   0.958 -0.0137 -0.0766  0.1953
 9010SOL    HW127840   0.618   7.495   0.992 -1.3359  0.5404 -2.7071
 9010SOL    HW227841   0.740   7.460   0.909 -0.6818 -0.6264 -1.3110
 9011SOL     OW27842   1.877   3.393   7.529 -0.0183  0.0808 -0.2019
 9011SOL    HW127843   1.920   3.401   7.613 -2.8205 -1.3568  1.5374
 9011SOL    HW227844   1.927   3.327   7.482  1.7830  1.1499  0.1342
 9012SOL     OW27845   1.405   6.838   2.294 -0.2671 -0.5871  0.1837
 9012SOL    HW127846   1.488   6.853   2.249 -1.1728 -1.4042 -1.8823
 9012SOL    HW227847   1.362   6.769   2.244 -1.9505 -0.6117  1.5565
 9013SOL     OW27848   6.285   1.755   6.070  0.0294 -0.2431 -0.1422
 9013SOL    HW127849   6.213   1.698   6.098 -0.2150 -1.1131 -2.2757
 9013SOL    HW227850   6.271   1.765   5.975  2.2865  0.1738 -0.4829
 9014SOL     OW27851   5.108   0.298   2.674  0.0545 -0.3882  0.4829
 9014SOL    HW127852   5.104   0.238   2.748  1.2996 -1.4888 -0.3075
 9014SOL    HW227853   5.104   0.385   2.714  0.2825 -0.9590  1.8048
 9015SOL     OW27854   6.297   7.154   4.891 -0.0653 -0.1350  0.2466
 9015SOL    HW127855   6.367   7.091   4.877  0.5348  0.6163 -0.2458
 9015SOL    HW227856   6.334   7.238   4.861 -0.9165  0.4056  0.6642
 9016SOL     OW27857   7.697   2.031   0.338  0.5905 -0.2589 -0.3118
 9016SOL    HW127858   7.616   2.082   0.343  1.1405  0.6751 -0.8195
 9016SOL    HW227859   7.706   1.992   0.425 -0.9305 -1.2260 -0.5358
 9017SOL     OW27860   7.631   3.645   1.562 -0.0541 -0.1566 -0.2383
 9017SOL    HW127861   7.568   3.717   1.551  0.0823  0.1192  0.6627
 9017SOL    HW227862   7.699   3.682   1.618  0.3135 -0.8140 -0.2428
 9018SOL     OW27863   0.747   6.522   0.534 -0.5305  1.0154  0.2508
 9018SOL    HW127864   0.791   6.528   0.449 -0.7993  0.6391  0.0814
 9018SOL    HW227865   0.791   6.587   0.588 -0.8625  1.8084 -0.3990
 9019SOL     OW27866   0.984   0.726   1.769 -0.6435 -0.4364  0.1181
 9019SOL    HW127867   0.975   0.645   1.819 -0.2519 -0.4971  0.0988
 9019SOL    HW227868   0.986   0.699   1.677 -1.9118 -0.2756  0.0304
 9020SOL     OW27869   7.903   4.341   0.601  0.4507  0.4182 -0.0620
 9020SOL    HW127870   7.945   4.312   0.682  1.2809  0.0117 -0.6115
 9020SOL    HW227871   7.975   4.344   0.537 -0.4022 -0.5755 -1.1135
 9021SOL     OW27872   2.774   4.863   2.874 -0.1234  0.2672 -0.0054
 9021SOL    HW127873   2.725   4.818   2.806 -0.4467  0.6359 -0.0190
 9021SOL    HW227874   2.713   4.928   2.909 -0.0215 -0.0495  0.7685
 9022SOL     OW27875   4.459   5.968   4.716  0.3787  0.2772  0.1428
 9022SOL    HW127876   4.422   5.994   4.800 -0.7944 -0.9451  0.0299
 9022SOL    HW227877   4.491   5.879   4.730 -0.9682 -0.4345 -1.0043
 9023SOL     OW27878   7.254   1.392   1.444 -0.4253 -0.0790 -0.2231
 9023SOL    HW127879   7.311   1.323   1.410 -0.8063 -0.5869  0.1526
 9023SOL    HW227880   7.299   1.422   1.523 -1.9268 -2.3629  1.6577
 9024SOL     OW27881   3.294   7.965   1.549  0.3226  0.7740 -0.3641
 9024SOL    HW127882   3.344   7.884   1.558  1.8185  1.4223 -2.0348
 9024SOL    HW227883   3.204   7.936   1.535  0.4498 -0.5021  1.2210
 9025SOL     OW27884   0.414   7.122   1.821  0.1672  0.0187 -0.8392
 9025SOL    HW127885   0.354   7.079   1.882  0.8917 -2.2009 -1.5931
 9025SOL    HW227886   0.367   7.123   1.738  0.4395  0.0094 -0.9946
 9026SOL     OW27887   7.208   2.434   6.368  0.2973 -0.4124  0.0976
 9026SOL    HW127888   7.277   2.367   6.369 -0.7862 -1.6212 -1.4257
 9026SOL    HW227889   7.131   2.389   6.335 -0.7106  1.4023 -0.1634
 9027SOL     OW27890   0.263   5.337   4.442 -0.5523 -0.9703  0.2137
 9027SOL    HW127891   0.223   5.326   4.355  0.5196  0.7633 -0.5494
 9027SOL    HW227892   0.347   5.292   4.436  0.1652  0.3568 -0.1745
 9028SOL     OW27893   5.309   5.429   4.678  0.2542  0.3565  0.1495
 9028SOL    HW127894   5.243   5.368   4.644 -0.3451  2.1044 -2.0411
 9028SOL    HW227895   5.258   5.503   4.710  0.9886 -0.1026  2.5412
 9029SOL     OW27896   1.512   0.114   4.893  0.1739  0.0817  0.2005
 9029SOL    HW127897   1.439   0.098   4.833 -0.0164  1.8438 -0.0953
 9029SOL    HW227898   1.590   0.099   4.840  0.0113  0.5115 -0.1672
 9030SOL     OW27899   6.546   0.893   3.013 -0.0803 -0.3897 -0.4528
 9030SOL    HW127900   6.608   0.878   3.084  0.8565 -0.3734 -1.2494
 9030SOL    HW227901   6.540   0.809   2.967 -1.8061 -0.8256  0.4873
 9031SOL     OW27902   4.531   5.543   4.294 -0.4037 -0.1831  0.1861
 9031SOL    HW127903   4.608   5.534   4.350 -0.6258 -0.7948  0.4027
 9031SOL    HW227904   4.505   5.453   4.274 -0.4980  0.0253 -0.6707
 9032SOL     OW27905   5.588   0.112   2.370  0.1577  0.4279 -0.6478
 9032SOL    HW127906   5.645   0.186   2.350  0.7680  0.3509  0.7596
 9032SOL    HW227907   5.582   0.111   2.465  0.3986 -1.5148 -0.6293
 9033SOL     OW27908   1.985   7.639   5.993  0.4811 -0.4146 -0.0491
 9033SOL    HW127909   1.960   7.587   5.916  0.6888  1.9765 -1.8418
 9033SOL    HW227910   2.076   7.615   6.009  0.3629 -1.1174 -0.3870
 9034SOL     OW27911   2.904   7.112   2.483  0.1203  0.2608 -0.1481
 9034SOL    HW127912   2.809   7.106   2.474  0.0655  0.1250  0.4913
 9034SOL    HW227913   2.934   7.137   2.395 -0.5233  0.5573 -0.2945
 9035SOL     OW27914   7.185   5.998   6.200 -0.3479 -0.6166  0.1318
 9035SOL    HW127915   7.130   5.974   6.125  1.0918  0.8533 -1.5017
 9035SOL    HW227916   7.186   5.920   6.256 -2.5188 -1.3153 -0.7043
 9036SOL     OW27917   7.536   3.685   6.189  0.9200  0.6747 -0.6729
 9036SOL    HW127918   7.590   3.639   6.125 -0.7805  0.6405 -2.1813
 9036SOL    HW227919   7.446   3.669   6.161  0.0050 -0.1281  2.3175
 9037SOL     OW27920   7.867   3.804   1.935 -0.5330 -0.0486  0.7942
 9037SOL    HW127921   7.808   3.874   1.962 -2.4522 -1.0204 -0.6050
 9037SOL    HW227922   7.811   3.726   1.931  0.4667 -0.7404 -1.9460
 9038SOL     OW27923   4.611   2.255   3.283  0.3663  0.0222 -0.0555
 9038SOL    HW127924   4.704   2.258   3.306  0.0074  2.6259  1.4195
 9038SOL    HW227925   4.609   2.216   3.195  2.7488 -0.7228  0.1516
 9039SOL     OW27926   7.180   2.160   0.570  0.1232 -0.1382  0.2717
 9039SOL    HW127927   7.142   2.141   0.655 -0.5083 -0.6394 -0.1170
 9039SOL    HW227928   7.267   2.119   0.572  0.8110  1.2791  1.2779
 9040SOL     OW27929   5.500   0.523   1.206 -0.3890 -0.0867  0.1368
 9040SOL    HW127930   5.410   0.502   1.233 -0.9138  0.9500 -0.7229
 9040SOL    HW227931   5.508   0.617   1.222  1.0550 -0.4101  1.5642
 9041SOL     OW27932   0.919   3.644   1.671  0.1148 -0.2398  0.1099
 9041SOL    HW127933   0.975   3.589   1.726  0.7839  0.6569  0.3517
 9041SOL    HW227934   0.967   3.653   1.589 -0.0716 -0.1555  0.0089
 9042SOL     OW27935   0.842   1.868   0.808  0.5018 -0.5113  0.2291
 9042SOL    HW127936   0.814   1.904   0.892  0.8902 -0.5612  0.3812
 9042SOL    HW227937   0.781   1.905   0.745  1.0579  0.6483  0.3466
 9043SOL     OW27938   5.449   3.594   0.006  0.4092 -0.1015  0.3005
 9043SOL    HW127939   5.395   3.624   0.079 -0.0383  0.3201 -0.1963
 9043SOL    HW227940   5.395   3.527  -0.037  0.3079  0.2621 -0.1485
 9044SOL     OW27941   7.937   1.318   5.645 -0.8398  0.3632 -0.5176
 9044SOL    HW127942   7.969   1.230   5.664 -2.4431 -0.4749 -1.4062
 9044SOL    HW227943   8.007   1.359   5.593 -0.4797 -0.7541 -0.9366
 9045SOL     OW27944   2.189   6.507   7.906  0.4374 -0.5660  0.2672
 9045SOL    HW127945   2.201   6.571   7.976 -1.5230  0.0194  0.1462
 9045SOL    HW227946   2.263   6.520   7.848  1.5154 -0.3011  1.6459
 9046SOL     OW27947   3.909   1.430   1.882 -0.3060  0.2258 -0.1753
 9046SOL    HW127948   3.974   1.371   1.919  0.6318 -0.7078 -3.0011
 9046SOL    HW227949   3.838   1.431   1.946  1.1056 -1.2782  1.5311
 9047SOL     OW27950   0.641   1.989   4.054  0.0237  0.3804 -0.7230
 9047SOL    HW127951   0.710   1.971   3.991 -1.1489  0.6789 -2.1412
 9047SOL    HW227952   0.561   1.999   4.001 -1.0315  0.4890  0.8110
 9048SOL     OW27953   4.452   2.596   3.276  0.3111  0.2152 -0.5151
 9048SOL    HW127954   4.396   2.671   3.260  0.3525  0.0467 -1.4824
 9048SOL    HW227955   4.510   2.624   3.347 -0.9190  0.4155  0.4517
 9049SOL     OW27956   4.600   4.445   3.956  0.3059 -0.0888 -0.2990
 9049SOL    HW127957   4.576   4.532   3.987 -1.3961 -1.0577  1.3351
 9049SOL    HW227958   4.691   4.454   3.926  0.9266  1.7596  1.8701
 9050SOL     OW27959   5.210   6.793   5.462 -0.1751  0.3917  0.4202
 9050SOL    HW127960   5.226   6.858   5.393 -1.4547  0.0094 -0.2827
 9050SOL    HW227961   5.118   6.805   5.485 -0.5605 -1.4069 -0.0128
 9051SOL     OW27962   6.379   5.028   0.122 -0.4852 -0.5109 -0.0482
 9051SOL    HW127963   6.345   4.939   0.120  1.2864 -1.2828 -3.2224
 9051SOL    HW227964   6.465   5.022   0.081 -0.8305  2.8388 -1.6255
 9052SOL     OW27965   2.970   2.519   1.156  0.2802 -0.4517  0.3105
 9052SOL    HW127966   2.929   2.466   1.088 -0.4024  0.9902 -0.4585
 9052SOL    HW227967   2.898   2.550   1.210  0.5411  0.4194  0.1883
 9053SOL     OW27968   6.744   5.063   5.328  0.2910 -0.0026  0.2815
 9053SOL    HW127969   6.702   5.139   5.367  1.1925  0.6197  0.0657
 9053SOL    HW227970   6.838   5.079   5.338  0.5029 -1.7652  1.5318
 9054SOL     OW27971   6.077   5.790   6.618  0.1547 -0.0061 -0.5102
 9054SOL    HW127972   6.170   5.794   6.596  0.0111  3.2592 -0.9324
 9054SOL    HW227973   6.076   5.761   6.709  1.3574 -2.4984 -1.1740
 9055SOL     OW27974   5.904   4.377   6.234 -0.6954  0.0795 -0.0835
 9055SOL    HW127975   5.841   4.311   6.262  0.0913  0.2707  2.4082
 9055SOL    HW227976   5.972   4.327   6.189 -0.8670 -0.6290  0.4154
 9056SOL     OW27977   3.003   5.406   5.321 -0.1301  0.1893 -0.0215
 9056SOL    HW127978   2.972   5.495   5.308 -0.2925  0.7189  3.0851
 9056SOL    HW227979   3.098   5.412   5.313 -0.0929  0.8120  0.7686
 9057SOL     OW27980   3.914   0.796   7.915  0.0590  0.0095 -0.4824
 9057SOL    HW127981   3.823   0.827   7.923 -0.0659 -0.4413 -0.1003
 9057SOL    HW227982   3.931   0.752   7.998  1.5459  2.4584  0.6141
 9058SOL     OW27983   2.642   2.589   7.839 -0.2974 -0.3312  0.0111
 9058SOL    HW127984   2.641   2.645   7.761 -0.1493 -0.5729 -0.1687
 9058SOL    HW227985   2.552   2.591   7.871  0.1324  1.7644  1.3000
 9059SOL     OW27986   2.720   6.375   4.206 -0.0513 -0.2118  0.5773
 9059SOL    HW127987   2.770   6.400   4.128 -0.1020  1.6632  1.1041
 9059SOL    HW227988   2.722   6.279   4.206  1.2442 -0.2230 -0.8856
 9060SOL     OW27989   0.354   3.021   0.343 -0.1881 -0.4622 -0.1955
 9060SOL    HW127990   0.347   3.025   0.438 -1.1518 -0.4215 -0.2520
 9060SOL    HW227991   0.406   3.098   0.319 -1.2948  0.4329  0.1911
 9061SOL     OW27992   4.737   6.781   3.769  0.0731  0.2424 -0.6352
 9061SOL    HW127993   4.688   6.700   3.761 -2.0272  0.8705  3.2960
 9061SOL    HW227994   4.670   6.850   3.774  1.6007  1.7856 -0.3096
 9062SOL     OW27995   4.838   3.079   4.519 -0.3784  0.5461  0.4244
 9062SOL    HW127996   4.767   3.101   4.459 -1.5415  0.5657  1.7497
 9062SOL    HW227997   4.823   3.134   4.596  0.1858 -0.5208  1.3409
 9063SOL     OW27998   2.963   1.597   2.133  0.2591  0.4358  0.0574
 9063SOL    HW127999   2.874   1.578   2.163 -0.1082  0.2447 -1.1198
 9063SOL    HW228000   2.976   1.539   2.058  0.1641  2.7211 -1.8516
 9064SOL     OW28001   6.000   7.660   3.222 -0.0248  0.3045 -0.1063
 9064SOL    HW128002   6.081   7.609   3.226 -0.7548 -0.8107  1.4883
 9064SOL    HW228003   5.957   7.631   3.142  1.2213  1.0652 -1.0845
 9065SOL     OW28004   2.795   4.770   2.164  0.1259  0.2413 -0.3472
 9065SOL    HW128005   2.803   4.802   2.254  0.9444 -0.9701  0.0474
 9065SOL    HW228006   2.703   4.782   2.142 -0.0877  0.5295  0.6742
 9066SOL     OW28007   4.671   6.665   5.540 -0.3759 -0.5424  0.4146
 9066SOL    HW128008   4.635   6.736   5.594  0.3072  0.0566  0.1047
 9066SOL    HW228009   4.745   6.632   5.591  0.1650 -0.0910 -0.0558
 9067SOL     OW28010   2.819   0.480   3.959  0.3917  0.1967  0.1204
 9067SOL    HW128011   2.828   0.512   3.869 -0.1642 -0.4870 -0.1812
 9067SOL    HW228012   2.735   0.514   3.988  1.7217  2.6729  1.3351
 9068SOL     OW28013   3.472   5.762   5.371 -0.3284 -0.0234 -0.0784
 9068SOL    HW128014   3.451   5.829   5.307  0.4840  1.5760  1.2620
 9068SOL    HW228015   3.410   5.777   5.443  3.3988  3.3272  2.9291
 9069SOL     OW28016   5.820   2.838   3.150 -0.0061 -0.0024  0.1953
 9069SOL    HW128017   5.873   2.885   3.215 -0.0941 -1.5698  1.4898
 9069SOL    HW228018   5.750   2.798   3.202  0.6626 -2.4029 -0.5843
 9070SOL     OW28019   1.489   5.065   0.888 -0.1069  0.2767  0.2877
 9070SOL    HW128020   1.455   5.146   0.849  0.8986  0.2119 -0.7974
 9070SOL    HW228021   1.415   5.028   0.936 -1.2497  0.6735 -1.0902
 9071SOL     OW28022   1.748   7.770   5.711  0.0573 -0.0282 -0.5585
 9071SOL    HW128023   1.811   7.698   5.702  2.5645  1.8856  0.2982
 9071SOL    HW228024   1.682   7.737   5.771  1.1948 -1.5884 -0.0893
 9072SOL     OW28025   7.446   1.260   7.304 -0.4859 -0.0730 -0.4795
 9072SOL    HW128026   7.415   1.222   7.386 -1.4135  2.0381  0.2103
 9072SOL    HW228027   7.527   1.212   7.285 -0.4799 -0.9145  1.4277
 9073SOL     OW28028   6.231   2.693   5.058  0.6955  0.0683  0.0089
 9073SOL    HW128029   6.219   2.768   5.116 -1.7710 -0.5055  0.3469
 9073SOL    HW228030   6.234   2.618   5.116 -0.2280 -0.3732 -0.4939
 9074SOL     OW28031   5.391   6.676   1.178 -0.1783 -0.2858 -0.2379
 9074SOL    HW128032   5.307   6.721   1.184  0.1612  0.6206 -1.6834
 9074SOL    HW228033   5.447   6.718   1.243 -1.3528 -2.2507  2.2130
 9075SOL     OW28034   1.858   7.146   3.610 -0.5446  0.3197  0.2518
 9075SOL    HW128035   1.836   7.064   3.566 -0.6719  1.1687 -1.3356
 9075SOL    HW228036   1.816   7.139   3.696 -0.9220 -1.0876 -0.0272
 9076SOL     OW28037   0.598   0.232   7.450 -0.1394 -0.2238  0.0991
 9076SOL    HW128038   0.560   0.207   7.535 -1.0420  1.2890  0.1880
 9076SOL    HW228039   0.523   0.264   7.400  0.6024  0.1617 -0.7793
 9077SOL     OW28040   4.558   0.063   4.278  0.5264 -0.6939 -0.0038
 9077SOL    HW128041   4.468   0.045   4.306 -0.2233 -0.1458 -1.9056
 9077SOL    HW228042   4.609   0.060   4.359 -1.4496  0.5165  1.3810
 9078SOL     OW28043   4.114   2.069   3.352 -0.2336  0.5330  0.2873
 9078SOL    HW128044   4.075   2.094   3.436 -0.9875  0.6769 -0.0906
 9078SOL    HW228045   4.190   2.016   3.375 -0.9826 -0.2312  1.0498
 9079SOL     OW28046   3.384   5.997   2.165  0.2828 -0.0480  0.6102
 9079SOL    HW128047   3.348   5.921   2.120 -0.0884  1.0856 -1.0884
 9079SOL    HW228048   3.475   5.973   2.184  0.5599 -0.4765 -1.0815
 9080SOL     OW28049   1.323   1.278   3.413  0.1408  0.0020  0.2198
 9080SOL    HW128050   1.410   1.316   3.414  0.6821 -1.1929  1.5403
 9080SOL    HW228051   1.293   1.281   3.504 -0.2241 -1.6757  0.1975
 9081SOL     OW28052   7.513   1.737   0.184 -0.1901 -0.2244 -0.2528
 9081SOL    HW128053   7.465   1.805   0.231 -0.9478 -0.9278  0.0175
 9081SOL    HW228054   7.458   1.718   0.107 -0.1148 -0.7020 -0.1920
 9082SOL     OW28055   4.513   7.603   7.541  0.0000 -0.2156  0.8546
 9082SOL    HW128056   4.435   7.647   7.574 -0.5580 -1.5219  1.3730
 9082SOL    HW228057   4.497   7.510   7.559  1.8811 -0.4665  1.3958
 9083SOL     OW28058   5.642   4.418   7.720  0.2393 -0.4643  0.1003
 9083SOL    HW128059   5.639   4.459   7.807  1.4018  0.6556 -0.3642
 9083SOL    HW228060   5.589   4.475   7.664 -0.7078 -1.3146  0.0970
 9084SOL     OW28061   5.987   5.134   7.546 -0.2108  0.1698  0.3233
 9084SOL    HW128062   6.007   5.169   7.459 -0.1042  0.6716  0.5505
 9084SOL    HW228063   5.975   5.040   7.531 -0.2142  0.2552 -0.2369
 9085SOL     OW28064   7.940   3.072   0.993 -0.4715  0.4925 -0.0437
 9085SOL    HW128065   8.032   3.096   0.988 -0.3583  0.1247  0.2345
 9085SOL    HW228066   7.936   2.984   0.957 -1.0525  1.2978 -2.0910
 9086SOL     OW28067   3.600   7.572   0.579 -0.0596 -0.0458  0.3887
 9086SOL    HW128068   3.633   7.661   0.596 -0.1893  0.3042 -1.0879
 9086SOL    HW228069   3.531   7.560   0.643 -0.7448  1.3297 -0.0487
 9087SOL     OW28070   6.185   1.063   4.621  0.2007  0.7627 -0.6223
 9087SOL    HW128071   6.101   1.037   4.584  0.3726  0.2629 -0.6695
 9087SOL    HW228072   6.191   1.014   4.703  0.8237  0.1264 -1.0299
 9088SOL     OW28073   2.521   1.127   0.735 -0.2052  0.3803 -0.2363
 9088SOL    HW128074   2.490   1.176   0.811  1.7953  1.2078  0.1108
 9088SOL    HW228075   2.493   1.178   0.659 -2.9820 -0.8965 -0.1765
 9089SOL     OW28076   3.950   6.133   4.429 -0.0409 -0.2676 -0.2835
 9089SOL    HW128077   4.039   6.165   4.445  0.3585 -1.2987 -0.3876
 9089SOL    HW228078   3.949   6.108   4.337 -0.9426  1.2658 -0.7155
 9090SOL     OW28079   4.342   1.723   3.925  0.8255 -0.3030  0.6035
 9090SOL    HW128080   4.301   1.639   3.947 -1.4744  0.3269 -0.9413
 9090SOL    HW228081   4.376   1.711   3.837 -0.1407  0.5427  0.0880
 9091SOL     OW28082   0.365   4.209   3.636 -0.0312  0.1743 -0.5343
 9091SOL    HW128083   0.442   4.255   3.603 -0.4024  0.5357 -0.9171
 9091SOL    HW228084   0.302   4.279   3.655 -0.0973 -0.0841  0.2207
 9092SOL     OW28085   6.386   5.690   2.781  0.1946 -0.6277 -0.2655
 9092SOL    HW128086   6.402   5.647   2.697 -0.7412 -0.1719 -0.6993
 9092SOL    HW228087   6.448   5.649   2.842  1.1392 -0.7020 -1.2520
 9093SOL     OW28088   4.012   3.409   2.491  0.3928  0.5807  0.8217
 9093SOL    HW128089   4.071   3.484   2.491  1.0311  0.0846  0.6658
 9093SOL    HW228090   3.927   3.446   2.464  1.3376  0.7553 -2.3244
 9094SOL     OW28091   2.935   6.921   7.881  0.1035 -0.4155 -0.0354
 9094SOL    HW128092   2.932   6.888   7.791  1.3087  2.3572 -1.2249
 9094SOL    HW228093   2.843   6.931   7.906 -0.2483 -1.0013 -1.0275
 9095SOL     OW28094   6.633   4.898   0.016  0.0368  0.2902  0.0668
 9095SOL    HW128095   6.609   4.979  -0.028 -0.3177 -0.0958 -0.4719
 9095SOL    HW228096   6.728   4.904   0.027 -0.1038  1.1951  0.9178
 9096SOL     OW28097   6.606   2.738   4.579  0.7330 -0.7826 -0.3218
 9096SOL    HW128098   6.576   2.737   4.488  1.0460  0.8258 -0.4840
 9096SOL    HW228099   6.539   2.691   4.628  0.5467 -1.6422 -1.3781
 9097SOL     OW28100   4.113   4.365   0.878 -0.1158  0.6844 -0.8522
 9097SOL    HW128101   4.160   4.313   0.814 -0.3302 -1.2646  0.4988
 9097SOL    HW228102   4.181   4.421   0.918  0.0679  1.6813 -2.4646
 9098SOL     OW28103   6.595   4.674   6.061  0.3315  0.2956  0.1900
 9098SOL    HW128104   6.545   4.693   5.981 -0.7898  0.0638  0.8241
 9098SOL    HW228105   6.567   4.587   6.087  1.3473  0.0112  0.3711
 9099SOL     OW28106   6.166   1.308   0.148 -0.0111 -0.0249  0.4567
 9099SOL    HW128107   6.123   1.350   0.222 -1.2236 -0.7170  0.1682
 9099SOL    HW228108   6.145   1.215   0.157 -1.0236  0.0055 -1.2843
 9100SOL     OW28109   2.096   1.425   3.076  0.1152 -0.0528 -0.4499
 9100SOL    HW128110   2.096   1.471   3.161  0.8323 -2.1704  0.7728
 9100SOL    HW228111   2.080   1.333   3.099  0.9834 -0.7783 -2.5588
 9101SOL     OW28112   1.549   0.733   0.679 -0.1077  0.2680 -0.3204
 9101SOL    HW128113   1.548   0.723   0.584 -1.3129 -0.6702 -0.2269
 9101SOL    HW228114   1.533   0.645   0.713  1.1941  0.4174  0.7826
 9102SOL     OW28115   5.760   0.994   6.770 -0.0694  0.6496  0.7108
 9102SOL    HW128116   5.756   1.026   6.681  1.3619  1.1142  0.7960
 9102SOL    HW228117   5.668   0.985   6.797 -0.6024 -1.3654 -1.4383
 9103SOL     OW28118   0.281   6.413   0.399 -0.4582  0.2059  0.6118
 9103SOL    HW128119   0.223   6.397   0.324  0.2777  0.8255 -0.1052
 9103SOL    HW228120   0.360   6.364   0.378  0.0626  1.0395  0.5897
 9104SOL     OW28121   6.197   2.079   6.851 -0.1016 -0.3047 -0.2477
 9104SOL    HW128122   6.159   2.090   6.764 -1.0841 -1.9608 -0.0694
 9104SOL    HW228123   6.164   2.154   6.901 -2.7877 -1.3624 -0.2672
 9105SOL     OW28124   4.550   5.926   1.978 -0.4663  0.2962 -0.2316
 9105SOL    HW128125   4.571   5.834   1.965 -1.1775 -0.0560  0.9057
 9105SOL    HW228126   4.502   5.928   2.061  0.5434  1.8307  0.3698
 9106SOL     OW28127   4.951   7.580   0.336 -0.5444 -0.0405  0.7581
 9106SOL    HW128128   4.916   7.492   0.333  0.2341 -0.3907  1.4148
 9106SOL    HW228129   4.945   7.606   0.428  0.2665  0.1413  0.7724
 9107SOL     OW28130   4.428   0.916   3.522  0.5828 -0.0129  0.7015
 9107SOL    HW128131   4.458   0.989   3.576 -0.9821  0.9503  0.3218
 9107SOL    HW228132   4.333   0.919   3.528  0.4036 -0.6255 -1.1292
 9108SOL     OW28133   1.686   5.404   3.376  0.2045  0.2227  0.3859
 9108SOL    HW128134   1.634   5.325   3.362 -0.0401  0.1741  1.4712
 9108SOL    HW228135   1.764   5.374   3.423 -0.3036  0.7337  1.5828
 9109SOL     OW28136   6.670   3.592   3.045 -0.7494 -0.3233 -0.0690
 9109SOL    HW128137   6.657   3.616   3.136 -0.2563 -0.8865  0.1584
 9109SOL    HW228138   6.690   3.498   3.048  2.0892  0.1856 -0.4838
 9110SOL     OW28139   1.121   3.256   5.070  0.3804  0.0802  0.4970
 9110SOL    HW128140   1.141   3.349   5.074  1.2842 -0.0664 -0.1815
 9110SOL    HW228141   1.170   3.224   4.994 -1.7685 -0.5020 -0.7555
 9111SOL     OW28142   3.206   6.841   7.867  0.0752  0.1312 -0.0572
 9111SOL    HW128143   3.249   6.862   7.949  0.4060  1.7415 -0.6031
 9111SOL    HW228144   3.118   6.878   7.876 -0.9409 -2.2892  0.6764
 9112SOL     OW28145   5.790   4.088   6.898  0.6398 -0.6680 -0.3602
 9112SOL    HW128146   5.855   4.098   6.829  1.3527  1.1608  0.5039
 9112SOL    HW228147   5.840   4.091   6.979 -0.1942 -2.6447  0.2889
 9113SOL     OW28148   1.128   4.865   2.624 -0.0281 -0.2850  0.1716
 9113SOL    HW128149   1.051   4.833   2.671 -1.7274  0.0327 -2.2073
 9113SOL    HW228150   1.200   4.851   2.685 -2.0438  0.2450  2.8942
 9114SOL     OW28151   0.463   0.431   5.053 -0.5345 -0.1175  0.1845
 9114SOL    HW128152   0.406   0.357   5.031  1.0207 -1.1601 -0.5305
 9114SOL    HW228153   0.531   0.430   4.985 -0.7149  2.2852 -0.1264
 9115SOL     OW28154   3.130   5.065   1.428  0.3525  0.3128 -0.2403
 9115SOL    HW128155   3.108   5.027   1.343  0.5430  0.0296 -0.1628
 9115SOL    HW228156   3.098   5.002   1.492  0.8841  0.1687 -0.1158
 9116SOL     OW28157   6.576   6.583   5.920 -0.2000  0.3691  0.6481
 9116SOL    HW128158   6.590   6.673   5.893  0.6054  0.4485  1.2826
 9116SOL    HW228159   6.493   6.583   5.967 -0.3750  0.7095  0.3356
 9117SOL     OW28160   7.152   6.698   1.202 -0.1922  0.0573  0.1268
 9117SOL    HW128161   7.145   6.643   1.280  0.7066  0.4893  0.5337
 9117SOL    HW228162   7.246   6.708   1.189 -0.3237 -0.4112 -1.3179
 9118SOL     OW28163   5.760   3.045   0.616  0.2409 -0.3762  0.2765
 9118SOL    HW128164   5.841   3.043   0.565  0.1159  0.9869 -0.0140
 9118SOL    HW228165   5.785   3.083   0.700  0.3886 -2.3603  1.1908
 9119SOL     OW28166   1.596   3.054   2.353  0.5825  0.0721 -0.0941
 9119SOL    HW128167   1.540   3.029   2.427 -0.5021  0.8572 -0.6259
 9119SOL    HW228168   1.597   3.150   2.355  0.3515  0.1063 -1.2313
 9120SOL     OW28169   4.818   1.541   6.842 -0.2614 -0.3148 -0.5053
 9120SOL    HW128170   4.834   1.495   6.925 -0.0092  0.1336 -0.2999
 9120SOL    HW228171   4.806   1.633   6.867  4.4446  0.7648 -1.2673
 9121SOL     OW28172   7.670   5.078   3.494 -0.6422  0.2855  0.0559
 9121SOL    HW128173   7.662   5.004   3.554 -0.6364  1.6334  1.7747
 9121SOL    HW228174   7.728   5.047   3.425  0.2601 -0.9563  1.3247
 9122SOL     OW28175   4.284   1.480   5.366 -0.0173  0.0686  0.2042
 9122SOL    HW128176   4.266   1.399   5.319 -1.0333  0.3950 -0.0018
 9122SOL    HW228177   4.359   1.518   5.321 -0.3203 -0.1408 -0.4858
 9123SOL     OW28178   4.714   5.412   4.942 -0.1605 -0.1862 -0.1004
 9123SOL    HW128179   4.636   5.412   4.886 -0.5887 -0.2150  0.4894
 9123SOL    HW228180   4.705   5.491   4.995  1.7917  1.5396 -2.1725
 9124SOL     OW28181   7.489   5.504   7.689 -0.3625 -0.3503 -0.0657
 9124SOL    HW128182   7.453   5.419   7.715  1.2040 -0.8165  0.7591
 9124SOL    HW228183   7.567   5.482   7.638  0.1333  0.5795  0.2700
 9125SOL     OW28184   7.829   0.282   0.897  0.3495 -0.7950 -0.6619
 9125SOL    HW128185   7.772   0.206   0.905 -0.0496 -0.4748 -0.4628
 9125SOL    HW228186   7.803   0.340   0.968  1.3197 -0.9000 -0.1986
 9126SOL     OW28187   2.370   5.752   1.301  0.4457 -0.2207 -0.5476
 9126SOL    HW128188   2.458   5.791   1.297  0.0164  0.8085 -0.3175
 9126SOL    HW228189   2.345   5.740   1.209  0.7744 -0.3922 -0.6164
 9127SOL     OW28190   5.799   3.204   7.836 -0.3828  0.8301  0.0501
 9127SOL    HW128191   5.848   3.195   7.754 -1.5255 -2.0402 -0.4586
 9127SOL    HW228192   5.840   3.141   7.895 -0.9583  1.2980  0.9662
 9128SOL     OW28193   4.585   1.653   7.836  0.7380 -0.0940  0.0087
 9128SOL    HW128194   4.606   1.746   7.831 -1.5505  0.4398 -0.6281
 9128SOL    HW228195   4.636   1.612   7.766 -0.1023  1.0852 -1.3341
 9129SOL     OW28196   2.150   6.825   2.161  0.0323 -0.5293 -0.0226
 9129SOL    HW128197   2.206   6.878   2.218  0.0392 -0.6112  0.0477
 9129SOL    HW228198   2.200   6.744   2.147  0.2862 -0.2713 -0.6231
 9130SOL     OW28199   0.720   1.171   6.752 -0.5091  0.3726 -0.2046
 9130SOL    HW128200   0.698   1.262   6.732 -1.0779  0.1368 -0.7101
 9130SOL    HW228201   0.746   1.134   6.668  3.5637  1.0386  0.5683
 9131SOL     OW28202   0.678   3.591   7.799 -0.0230 -0.0641  0.5108
 9131SOL    HW128203   0.752   3.534   7.777 -1.3178 -1.9672  0.8287
 9131SOL    HW228204   0.635   3.608   7.715  0.3786  0.5009  0.4122
 9132SOL     OW28205   7.271   0.543   0.219  0.0833 -0.0254 -0.1679
 9132SOL    HW128206   7.250   0.450   0.211  0.5076 -0.0096 -2.0285
 9132SOL    HW228207   7.188   0.584   0.242 -0.3216 -0.7593 -0.2854
 9133SOL     OW28208   3.805   5.792   6.519 -0.5204 -0.0387  0.2461
 9133SOL    HW128209   3.827   5.701   6.500 -1.0175 -0.6167  2.2000
 9133SOL    HW228210   3.729   5.810   6.463 -0.0045 -0.5924 -0.6540
 9134SOL     OW28211   2.538   5.319   5.237  0.4390 -0.6447  0.2141
 9134SOL    HW128212   2.549   5.390   5.300  1.1392  0.1617 -0.7735
 9134SOL    HW228213   2.542   5.362   5.151 -0.3465 -1.7255 -0.3919
 9135SOL     OW28214   6.385   3.868   5.632  0.3256 -0.3468 -0.3347
 9135SOL    HW128215   6.346   3.944   5.589 -0.3295 -0.6581 -0.2927
 9135SOL    HW228216   6.473   3.861   5.593  0.3606  0.3759 -0.3955
 9136SOL     OW28217   0.972   0.470   0.468  0.9943  0.9169  0.2009
 9136SOL    HW128218   0.895   0.501   0.420  2.8470  2.3783 -2.0518
 9136SOL    HW228219   0.990   0.384   0.431  1.0022  0.9871  0.0421
 9137SOL     OW28220   2.461   1.016   0.417 -0.3794  0.7035 -0.3225
 9137SOL    HW128221   2.471   0.992   0.325  0.4283  3.7834 -1.1277
 9137SOL    HW228222   2.545   1.055   0.442  0.0553 -1.5408  2.3189
 9138SOL     OW28223   2.095   4.237   3.744  0.1938 -0.2771 -0.1815
 9138SOL    HW128224   2.173   4.197   3.705 -1.2158 -1.6907 -1.6816
 9138SOL    HW228225   2.022   4.181   3.717 -1.5329  1.6972  0.0760
 9139SOL     OW28226   5.776   5.336   4.477 -0.0597  0.2722 -0.1468
 9139SOL    HW128227   5.683   5.353   4.493 -0.6390 -1.4240 -1.3960
 9139SOL    HW228228   5.808   5.415   4.433  0.0768  2.4282  3.3796
 9140SOL     OW28229   5.820   0.645   0.577 -0.0913 -0.0486  0.1094
 9140SOL    HW128230   5.785   0.666   0.490 -0.3148  0.6903  0.3714
 9140SOL    HW228231   5.781   0.711   0.635  1.5092  0.6256  0.4556
 9141SOL     OW28232   5.475   5.918   6.434 -0.1044  0.0019  0.4903
 9141SOL    HW128233   5.503   5.894   6.522  0.8135 -0.1344  0.1652
 9141SOL    HW228234   5.543   5.977   6.402  0.2781 -1.0220 -0.6407
 9142SOL     OW28235   7.267   2.418   7.164  0.0359 -0.3972 -0.7169
 9142SOL    HW128236   7.262   2.334   7.119 -2.9262 -1.1991  0.8837
 9142SOL    HW228237   7.185   2.425   7.212  1.2880  2.2298  1.3181
 9143SOL     OW28238   7.873   2.205   7.398 -0.2271  0.1593 -0.0975
 9143SOL    HW128239   7.929   2.127   7.406 -0.4970 -0.0103  0.1113
 9143SOL    HW228240   7.934   2.278   7.409 -0.0877 -0.0282  0.3967
 9144SOL     OW28241   6.828   0.747   7.029 -0.6898  0.6464 -0.2324
 9144SOL    HW128242   6.738   0.727   7.003  0.0465 -0.3874 -2.2223
 9144SOL    HW228243   6.881   0.681   6.985  0.9451  0.1457  2.2726
 9145SOL     OW28244   2.192   2.340   2.469  0.6560  0.2129 -0.0650
 9145SOL    HW128245   2.132   2.272   2.501  1.0937  0.6214  1.7281
 9145SOL    HW228246   2.252   2.293   2.411  0.3352 -0.7294  0.3472
 9146SOL     OW28247   6.246   7.656   0.435  0.5782 -0.4002 -0.3021
 9146SOL    HW128248   6.231   7.721   0.366 -0.5188 -1.8158 -1.4643
 9146SOL    HW228249   6.332   7.677   0.470  0.9760  0.6272 -1.8218
 9147SOL     OW28250   3.438   4.465   6.090  0.3054  0.3063 -0.3923
 9147SOL    HW128251   3.507   4.529   6.073 -0.2994  0.9251 -0.5299
 9147SOL    HW228252   3.482   4.380   6.081  1.2563  0.6936  0.3906
 9148SOL     OW28253   1.634   3.642   5.212 -0.0844 -0.4675 -0.2629
 9148SOL    HW128254   1.676   3.720   5.249  0.1691  0.0389 -1.5569
 9148SOL    HW228255   1.707   3.588   5.184 -0.2612 -1.2034  0.6454
 9149SOL     OW28256   6.957   4.429   2.505  0.7272 -0.4667 -0.1423
 9149SOL    HW128257   6.944   4.417   2.599 -1.4591  1.8320 -0.0329
 9149SOL    HW228258   6.888   4.376   2.464  0.0720  0.4697 -0.2886
 9150SOL     OW28259   4.054   3.651   7.704  0.1239  0.3764  0.5697
 9150SOL    HW128260   3.971   3.653   7.657  0.2927  0.1978  0.2635
 9150SOL    HW228261   4.041   3.710   7.779 -0.0882  0.7963  0.2042
 9151SOL     OW28262   3.850   6.992   4.684 -0.7017  0.1222  0.0426
 9151SOL    HW128263   3.889   6.906   4.677 -0.0578  0.4112  0.0450
 9151SOL    HW228264   3.793   6.987   4.761  0.6441  0.2068  1.0730
 9152SOL     OW28265   6.224   0.869   1.855  0.2173 -0.6401 -0.4541
 9152SOL    HW128266   6.200   0.853   1.946  2.6266 -0.1025  0.3350
 9152SOL    HW228267   6.182   0.952   1.833  0.3303 -0.3304  0.4660
 9153SOL     OW28268   6.397   4.168   5.123 -0.3596 -0.3109 -0.2535
 9153SOL    HW128269   6.434   4.152   5.036 -1.2770 -0.6826 -0.5983
 9153SOL    HW228270   6.434   4.098   5.177  0.6775  0.2702 -0.1867
 9154SOL     OW28271   4.960   7.734   5.992 -0.2111  0.0314  0.7909
 9154SOL    HW128272   4.873   7.698   5.973 -0.0826  0.3206 -0.4714
 9154SOL    HW228273   4.943   7.814   6.042 -0.5826 -0.8040  2.0247
 9155SOL     OW28274   7.842   6.437   0.137 -0.2469 -0.4159 -0.3881
 9155SOL    HW128275   7.874   6.462   0.224  0.7430  0.3093 -0.9382
 9155SOL    HW228276   7.760   6.485   0.127  0.4573  0.8029 -0.4956
 9156SOL     OW28277   0.607   3.071   6.217 -0.2649  0.2494  0.5055
 9156SOL    HW128278   0.538   3.116   6.267  0.3242  2.1850 -0.3564
 9156SOL    HW228279   0.642   3.007   6.279 -1.4439  0.6375  1.6369
 9157SOL     OW28280   6.672   2.988   5.660 -0.4419 -0.0722 -0.2755
 9157SOL    HW128281   6.669   3.061   5.598 -2.4549 -0.1933 -0.4056
 9157SOL    HW228282   6.676   3.030   5.746 -0.3557  0.1549 -0.3889
 9158SOL     OW28283   5.328   6.727   6.672 -0.3039  0.3120  0.5258
 9158SOL    HW128284   5.381   6.759   6.745 -0.8643  1.4284  0.4691
 9158SOL    HW228285   5.346   6.633   6.668  3.1157  0.8511 -0.6278
 9159SOL     OW28286   1.893   7.944   4.113  0.3262  0.2700  0.0526
 9159SOL    HW128287   1.868   7.961   4.204  0.0900 -0.1750  0.0762
 9159SOL    HW228288   1.934   7.858   4.116  2.6279  1.3062  0.1474
 9160SOL     OW28289   3.505   6.462   5.097  0.5674 -1.0620  0.2821
 9160SOL    HW128290   3.438   6.410   5.052  0.1661  0.0641 -0.4575
 9160SOL    HW228291   3.456   6.521   5.154  0.8488  0.2545 -0.7765
 9161SOL     OW28292   6.280   7.980   2.063 -0.0090  0.2967  0.2083
 9161SOL    HW128293   6.295   7.947   1.974 -1.4465  0.1628 -0.0217
 9161SOL    HW228294   6.367   7.990   2.100  0.5856 -0.7012 -0.8387
 9162SOL     OW28295   6.749   5.398   1.996 -0.1918 -0.1268  0.2537
 9162SOL    HW128296   6.691   5.419   2.068 -2.5548  0.6339 -1.7333
 9162SOL    HW228297   6.731   5.307   1.975 -1.2598  0.2837 -0.7721
 9163SOL     OW28298   5.668   1.337   0.823 -0.6508 -0.1926  0.2976
 9163SOL    HW128299   5.596   1.374   0.773 -0.0420 -0.1756 -0.5959
 9163SOL    HW228300   5.626   1.297   0.899 -1.5984 -0.1680 -0.1926
 9164SOL     OW28301   7.523   5.589   0.924 -0.3544  0.1801  0.1009
 9164SOL    HW128302   7.449   5.637   0.885 -0.2496 -0.1430 -0.4971
 9164SOL    HW228303   7.487   5.553   1.005 -0.3413  1.5647  0.7550
 9165SOL     OW28304   0.152   3.716   6.209 -0.1907  0.3014  0.2620
 9165SOL    HW128305   0.219   3.783   6.197 -1.7326  1.7179 -0.9843
 9165SOL    HW228306   0.097   3.749   6.280 -1.5537  0.9490 -1.0286
 9166SOL     OW28307   6.181   5.336   4.048 -0.3709 -0.1623 -0.3940
 9166SOL    HW128308   6.272   5.324   4.077 -0.0015  0.1890 -1.3413
 9166SOL    HW228309   6.146   5.248   4.042 -0.1739 -0.2889  0.2234
 9167SOL     OW28310   0.313   7.061   4.886  0.1582  0.6829 -0.1197
 9167SOL    HW128311   0.375   7.107   4.830  1.1108  0.2938  0.5830
 9167SOL    HW228312   0.341   7.083   4.975  1.2095 -1.8751  0.2797
 9168SOL     OW28313   6.229   4.394   7.303  0.3298  0.2742  0.0072
 9168SOL    HW128314   6.239   4.381   7.209  3.4950 -0.1660  0.2925
 9168SOL    HW228315   6.210   4.488   7.312  0.3473  0.3895 -1.0552
 9169SOL     OW28316   5.410   5.818   4.736 -0.4961 -0.0386 -0.6695
 9169SOL    HW128317   5.335   5.759   4.739  0.2910 -1.0525  0.5666
 9169SOL    HW228318   5.486   5.761   4.726  0.1178  0.9970 -2.4404
 9170SOL     OW28319   1.181   6.921   3.332 -0.0102  0.3431  0.6068
 9170SOL    HW128320   1.154   6.982   3.401  0.1167  0.9348  0.1326
 9170SOL    HW228321   1.142   6.956   3.252  0.6696  0.2124  0.2127
 9171SOL     OW28322   4.074   4.006   5.044  0.1182  0.3603  0.0985
 9171SOL    HW128323   4.132   3.948   4.996  1.8469  0.4940  1.8894
 9171SOL    HW228324   4.082   3.978   5.135 -3.5602 -0.3421  0.3545
 9172SOL     OW28325   6.436   5.906   4.450 -0.5873  0.0909  0.0151
 9172SOL    HW128326   6.386   5.892   4.369  0.4412 -1.2704 -0.4313
 9172SOL    HW228327   6.436   6.001   4.463 -1.6326  0.2513 -1.0205
 9173SOL     OW28328   5.519   5.491   3.639  0.1739  0.4737  0.1600
 9173SOL    HW128329   5.438   5.540   3.651 -0.2657 -0.8839  4.4838
 9173SOL    HW228330   5.490   5.400   3.632  1.2522  0.2303 -1.6796
 9174SOL     OW28331   4.579   4.581   5.400  0.6205  0.1403  0.1461
 9174SOL    HW128332   4.593   4.602   5.493 -0.0186 -0.7999  0.4654
 9174SOL    HW228333   4.638   4.640   5.353 -0.4500  2.0192  1.0423
 9175SOL     OW28334   6.946   6.630   7.614  0.4258  0.1507 -0.0223
 9175SOL    HW128335   6.866   6.588   7.583  0.7146 -0.0438 -0.5048
 9175SOL    HW228336   6.971   6.688   7.543  0.8299  0.0613  0.0484
 9176SOL     OW28337   2.692   5.752   4.771  0.4299  0.3659  0.1249
 9176SOL    HW128338   2.597   5.744   4.772  0.4682 -0.0898  0.6351
 9176SOL    HW228339   2.721   5.685   4.710  0.3673  1.3266 -1.0042
 9177SOL     OW28340   7.664   6.489   1.830  0.5318  0.7556 -0.0379
 9177SOL    HW128341   7.723   6.434   1.779  0.8723 -0.2624  1.4004
 9177SOL    HW228342   7.577   6.466   1.799  0.7489  0.3253 -0.3400
 9178SOL     OW28343   1.926   5.621   0.313  0.4028 -0.5774  0.2182
 9178SOL    HW128344   1.842   5.575   0.303  1.0630 -2.0486  1.1369
 9178SOL    HW228345   1.982   5.583   0.245  1.5410 -2.6358  2.1744
 9179SOL     OW28346   0.674   1.948   3.388 -0.4993 -0.4589  0.0295
 9179SOL    HW128347   0.669   1.993   3.303 -0.4956  1.1442  0.8425
 9179SOL    HW228348   0.690   1.856   3.365 -1.9277 -0.3356 -1.7443
 9180SOL     OW28349   4.853   5.352   4.620  0.5114 -0.5352  0.0112
 9180SOL    HW128350   4.847   5.409   4.697  0.0880  1.1588 -1.2017
 9180SOL    HW228351   4.875   5.412   4.548 -2.2846 -1.4952 -1.7938
 9181SOL     OW28352   2.546   7.358   6.429  0.6156 -0.1980 -0.5314
 9181SOL    HW128353   2.505   7.293   6.372  1.3908 -0.0449 -1.2930
 9181SOL    HW228354   2.611   7.309   6.479 -0.3112 -0.3990  0.5092
 9182SOL     OW28355   7.216   4.852   1.834 -0.0588 -0.1013  0.1568
 9182SOL    HW128356   7.251   4.798   1.763  0.4275 -0.0571  0.3582
 9182SOL    HW228357   7.256   4.938   1.821  1.6063 -0.6021  1.6148
 9183SOL     OW28358   6.135   1.773   3.700 -0.2030 -0.1683 -0.5780
 9183SOL    HW128359   6.204   1.839   3.715 -1.6287  1.0150  1.2130
 9183SOL    HW228360   6.176   1.690   3.721  0.8168  0.4591 -0.0065
 9184SOL     OW28361   7.574   6.072   3.286 -0.1518 -0.3259  0.2080
 9184SOL    HW128362   7.585   6.081   3.381 -1.5980 -0.7891  0.4455
 9184SOL    HW228363   7.489   6.111   3.268  0.5395  0.6691 -1.0704
 9185SOL     OW28364   0.405   4.177   6.131  0.4060  0.1670 -0.6601
 9185SOL    HW128365   0.312   4.196   6.122 -0.1525 -1.5849  0.8545
 9185SOL    HW228366   0.445   4.262   6.153 -1.3099  0.4562  1.6835
 9186SOL     OW28367   3.756   6.504   5.934  0.2633 -0.1347 -0.0018
 9186SOL    HW128368   3.669   6.483   5.901  0.6315 -0.5265 -0.7182
 9186SOL    HW228369   3.754   6.476   6.026  0.3194 -2.1314 -0.5650
 9187SOL     OW28370   5.456   5.751   4.212  0.4077  0.0670 -0.0501
 9187SOL    HW128371   5.459   5.847   4.206  0.5267  0.0169 -0.9215
 9187SOL    HW228372   5.506   5.731   4.291 -1.4428  0.8243  1.3951
 9188SOL     OW28373   7.518   1.035   0.870  0.3379 -0.1468 -0.3108
 9188SOL    HW128374   7.587   1.001   0.813  1.5061  1.1344  0.2935
 9188SOL    HW228375   7.492   1.118   0.830 -0.1648 -0.1478  0.0027
 9189SOL     OW28376   3.945   2.793   3.750 -0.2199 -0.0118 -0.4056
 9189SOL    HW128377   3.863   2.799   3.700 -1.0254  3.2223  1.0354
 9189SOL    HW228378   3.984   2.710   3.722 -1.5231  0.6174 -4.9058
 9190SOL     OW28379   3.445   5.600   0.114 -0.3764  0.0661 -0.3088
 9190SOL    HW128380   3.454   5.583   0.020 -0.8412 -0.9006 -0.1825
 9190SOL    HW228381   3.509   5.542   0.156 -0.2504  0.4113 -0.0144
 9191SOL     OW28382   5.345   1.775   2.674  0.0001  0.1529 -0.2699
 9191SOL    HW128383   5.268   1.731   2.710 -0.5395  1.9579  0.9127
 9191SOL    HW228384   5.409   1.705   2.662 -1.1707 -1.1081  0.5517
 9192SOL     OW28385   2.726   4.404   4.859  0.6754  0.0080 -0.5998
 9192SOL    HW128386   2.811   4.435   4.891  0.5492 -0.0781 -0.1751
 9192SOL    HW228387   2.663   4.439   4.922  0.6737 -2.6468  1.0228
 9193SOL     OW28388   0.973   6.518   0.187 -0.0109 -0.0521 -0.3570
 9193SOL    HW128389   0.955   6.611   0.193 -1.9964 -0.2859 -1.6255
 9193SOL    HW228390   1.003   6.505   0.097  0.5562 -0.5947 -0.1004
 9194SOL     OW28391   1.349   1.648   7.543 -0.0100  0.0738  0.3770
 9194SOL    HW128392   1.375   1.686   7.627  2.6405  0.4911 -0.5400
 9194SOL    HW228393   1.372   1.555   7.550  1.7932  0.4176 -0.3904
 9195SOL     OW28394   2.577   6.620   0.497  0.2454  0.1522  0.1010
 9195SOL    HW128395   2.482   6.612   0.510  0.2455  0.3802  0.2566
 9195SOL    HW228396   2.603   6.537   0.457 -0.1097  0.3036 -0.4628
 9196SOL     OW28397   6.149   6.559   5.649 -0.3840 -0.0982 -0.0215
 9196SOL    HW128398   6.174   6.533   5.737 -2.2515 -2.5956 -0.0945
 9196SOL    HW228399   6.224   6.536   5.594  0.0253 -0.4069  0.6561
 9197SOL     OW28400   7.541   1.376   6.902  0.1668 -0.0285  0.4826
 9197SOL    HW128401   7.574   1.312   6.838  1.0121  0.3254  0.5487
 9197SOL    HW228402   7.515   1.451   6.850  1.3897  0.4866  0.5653
 9198SOL     OW28403   0.145   4.019   1.810 -0.0606 -0.3530 -0.0427
 9198SOL    HW128404   0.197   4.086   1.854 -2.3569  1.2234  0.4563
 9198SOL    HW228405   0.125   3.955   1.878  0.3412 -0.4375  0.0013
 9199SOL     OW28406   4.213   5.838   7.017  0.0546 -0.4946  0.2943
 9199SOL    HW128407   4.296   5.881   6.996  1.8486 -3.8254 -0.0597
 9199SOL    HW228408   4.226   5.800   7.104 -0.4490 -2.4119 -0.4175
 9200SOL     OW28409   3.169   6.047   1.289  0.7452  0.3241 -0.3175
 9200SOL    HW128410   3.090   6.055   1.236  0.2472  0.0743  0.3866
 9200SOL    HW228411   3.219   6.126   1.269  0.5196  0.2770 -1.0887
 9201SOL     OW28412   2.583   2.190   3.802 -0.4438  1.2088  0.2889
 9201SOL    HW128413   2.557   2.105   3.838 -1.2187  1.5103  0.4599
 9201SOL    HW228414   2.507   2.247   3.817  0.3192  2.1146  0.7669
 9202SOL     OW28415   4.689   0.075   4.040 -0.3109 -0.0239  0.1353
 9202SOL    HW128416   4.762   0.121   4.082  0.9187 -1.3610 -0.4634
 9202SOL    HW228417   4.644   0.032   4.112  0.5694 -0.6308  0.3472
 9203SOL     OW28418   5.710   4.033   4.408 -0.5678 -0.7467  0.1923
 9203SOL    HW128419   5.795   4.051   4.369 -0.4506 -0.7859  0.4294
 9203SOL    HW228420   5.700   3.938   4.402 -1.2562 -0.6024 -1.2040
 9204SOL     OW28421   5.642   0.373   6.314 -0.0200  0.1394  0.9815
 9204SOL    HW128422   5.669   0.421   6.393 -0.4255 -0.0940  1.2624
 9204SOL    HW228423   5.703   0.403   6.246  0.8698 -0.2831  1.5797
 9205SOL     OW28424   6.125   2.838   1.839  0.2671 -0.2755 -0.1912
 9205SOL    HW128425   6.066   2.860   1.912 -0.4490  0.1467 -0.8848
 9205SOL    HW228426   6.081   2.873   1.762 -0.3682 -3.0620 -1.2082
 9206SOL     OW28427   7.695   6.536   6.621 -0.1717 -0.1953 -0.1616
 9206SOL    HW128428   7.676   6.518   6.529 -1.2223 -0.0843  0.0238
 9206SOL    HW228429   7.638   6.477   6.670 -1.9575  1.8597  0.4303
 9207SOL     OW28430   2.889   3.676   5.696 -0.0688  0.3245  0.1452
 9207SOL    HW128431   2.866   3.664   5.788 -1.4507  2.2884  0.1151
 9207SOL    HW228432   2.950   3.750   5.696  0.3791 -0.0299 -0.4959
 9208SOL     OW28433   3.122   5.864   4.550 -0.3256 -0.5264  0.7797
 9208SOL    HW128434   3.077   5.928   4.605 -0.5565 -0.3724  0.4157
 9208SOL    HW228435   3.209   5.901   4.536 -1.2892  1.0908 -1.6744
 9209SOL     OW28436   7.658   3.390   2.345 -0.6648 -0.6129 -0.6415
 9209SOL    HW128437   7.664   3.337   2.265 -0.9717  2.3352 -2.7549
 9209SOL    HW228438   7.580   3.357   2.390 -1.3295 -1.3919 -2.2939
 9210SOL     OW28439   5.730   1.698   6.598 -0.3343  0.0804 -0.3092
 9210SOL    HW128440   5.725   1.689   6.693  2.8715 -0.1422 -0.0574
 9210SOL    HW228441   5.660   1.761   6.576  0.8765  2.7471  2.6379
 9211SOL     OW28442   3.047   3.586   1.501 -0.0302  0.1833 -0.0819
 9211SOL    HW128443   3.055   3.652   1.569 -1.4995  3.1205 -2.5093
 9211SOL    HW228444   2.958   3.551   1.512 -0.6276  1.3470 -0.9541
 9212SOL     OW28445   2.454   6.496   3.243  0.2738 -0.0560  0.2172
 9212SOL    HW128446   2.493   6.486   3.156 -0.3404  0.8277 -0.1783
 9212SOL    HW228447   2.420   6.409   3.264  1.0521 -0.4522 -0.1077
 9213SOL     OW28448   1.980   7.463   0.338  0.5223  0.2693 -0.4879
 9213SOL    HW128449   1.938   7.535   0.386 -0.3509 -0.2423 -0.4568
 9213SOL    HW228450   2.050   7.433   0.397  1.6047  1.7639 -0.9513
 9214SOL     OW28451   0.294   3.598   5.709 -0.2150 -0.3759 -0.2412
 9214SOL    HW128452   0.259   3.659   5.644 -0.8379 -0.6438 -0.1697
 9214SOL    HW228453   0.290   3.646   5.791  0.2374 -0.1618 -0.3425
 9215SOL     OW28454   3.707   7.857   6.734 -0.0014 -0.3887 -0.1066
 9215SOL    HW128455   3.772   7.894   6.793  0.5198 -0.0227 -0.8961
 9215SOL    HW228456   3.741   7.874   6.646 -0.0662 -2.1926 -0.5081
 9216SOL     OW28457   5.676   0.453   4.173  0.1183 -0.1367  0.2658
 9216SOL    HW128458   5.768   0.481   4.175  0.5909 -1.2647 -2.1353
 9216SOL    HW228459   5.658   0.425   4.262  2.3472 -0.5952  0.6430
 9217SOL     OW28460   6.149   4.828   5.377 -0.1033  0.6166 -0.1413
 9217SOL    HW128461   6.200   4.893   5.425  1.5702 -1.9788  1.9185
 9217SOL    HW228462   6.191   4.744   5.399 -2.9554 -1.3187 -1.4791
 9218SOL     OW28463   4.226   6.650   0.878  0.4739  0.4382 -0.1427
 9218SOL    HW128464   4.243   6.721   0.939  1.6471  0.5687 -0.5941
 9218SOL    HW228465   4.278   6.671   0.801 -1.0657  0.3390 -1.2614
 9219SOL     OW28466   7.321   5.333   5.365 -0.3401 -1.0770  0.8339
 9219SOL    HW128467   7.394   5.287   5.407  0.4713 -1.5354 -0.9732
 9219SOL    HW228468   7.313   5.292   5.279 -0.4056  1.3190 -0.3926
 9220SOL     OW28469   5.492   2.837   2.161  0.4893  0.2472  0.1203
 9220SOL    HW128470   5.553   2.898   2.203 -1.6535  0.9198  2.4880
 9220SOL    HW228471   5.468   2.775   2.230 -0.2881 -0.9912 -1.1938
 9221SOL     OW28472   7.180   3.624   2.883  0.4133 -0.6336 -0.1201
 9221SOL    HW128473   7.147   3.713   2.890  2.1931  0.0273  0.6129
 9221SOL    HW228474   7.113   3.569   2.924  0.2467  0.6267  1.3845
 9222SOL     OW28475   6.787   3.555   7.050  0.0848 -0.2243 -0.5977
 9222SOL    HW128476   6.805   3.463   7.068  0.6952  0.1303  0.7408
 9222SOL    HW228477   6.826   3.602   7.123  0.2467  1.1505 -1.5215
 9223SOL     OW28478   0.854   3.594   7.354  0.1156 -0.1047 -0.0527
 9223SOL    HW128479   0.817   3.506   7.360  0.9095 -0.4460 -0.1475
 9223SOL    HW228480   0.947   3.581   7.338  0.2884  0.7524  0.1891
 9224SOL     OW28481   2.858   3.129   3.609  0.6550  0.0765  0.2563
 9224SOL    HW128482   2.911   3.156   3.683  1.9223 -0.0432 -0.5799
 9224SOL    HW228483   2.768   3.146   3.636  1.0000 -1.0798  2.2597
 9225SOL     OW28484   3.011   5.402   2.659  0.1398 -0.2834 -0.2425
 9225SOL    HW128485   2.930   5.445   2.633  0.6105 -0.2685 -1.7755
 9225SOL    HW228486   3.043   5.360   2.579 -0.1324 -3.2839  1.0776
 9226SOL     OW28487   0.628   5.546   2.097  0.1990 -0.0701 -0.3087
 9226SOL    HW128488   0.554   5.516   2.044  0.6214 -1.4826 -0.1421
 9226SOL    HW228489   0.666   5.618   2.047 -0.2167 -0.4915 -1.2593
 9227SOL     OW28490   1.940   6.361   1.588 -1.1307 -0.2595  0.1818
 9227SOL    HW128491   1.990   6.328   1.513 -1.5735 -4.0814  1.3750
 9227SOL    HW228492   1.851   6.373   1.554 -0.8169  0.3846 -0.4347
 9228SOL     OW28493   0.746   5.916   4.520 -0.0524  0.0291  0.4592
 9228SOL    HW128494   0.726   5.842   4.463  0.6376  1.1964 -1.4114
 9228SOL    HW228495   0.668   5.971   4.516  1.3772  2.2053 -2.9720
 9229SOL     OW28496   7.381   6.694   6.725  0.1339 -0.0122 -0.4830
 9229SOL    HW128497   7.387   6.645   6.643 -0.4195  0.1421 -0.6181
 9229SOL    HW228498   7.339   6.777   6.700 -0.0377  0.0333 -0.0418
 9230SOL     OW28499   6.287   7.877   2.970  0.5864 -0.0811  0.0038
 9230SOL    HW128500   6.282   7.819   2.894 -2.2416 -2.1961  1.6137
 9230SOL    HW228501   6.329   7.823   3.038  0.7443  0.8755  0.6760
 9231SOL     OW28502   6.888   2.283   0.138  0.1230  0.2304  0.3894
 9231SOL    HW128503   6.911   2.322   0.223  0.6296  0.3284  0.2108
 9231SOL    HW228504   6.806   2.326   0.113 -0.4501 -0.3564  1.1963
 9232SOL     OW28505   2.301   0.014   2.857  0.0711 -0.8286 -0.1737
 9232SOL    HW128506   2.350  -0.039   2.920 -1.1982 -2.5726 -0.5602
 9232SOL    HW228507   2.271   0.090   2.906  2.2204 -0.2421  0.3269
 9233SOL     OW28508   3.190   1.306   6.916  0.0712 -0.1797  0.3091
 9233SOL    HW128509   3.249   1.248   6.867  1.1834 -0.8535  2.2924
 9233SOL    HW228510   3.249   1.364   6.965 -0.8795 -0.5565  1.9921
 9234SOL     OW28511   5.213   6.178   0.194 -0.1353  0.3054  0.1141
 9234SOL    HW128512   5.164   6.163   0.113 -1.4313  1.5747  0.6043
 9234SOL    HW228513   5.220   6.091   0.234 -1.6685  0.0066 -0.1803
 9235SOL     OW28514   2.922   0.422   3.593 -0.6114  0.2349 -0.1152
 9235SOL    HW128515   2.873   0.389   3.517  1.2249 -1.1524 -0.7657
 9235SOL    HW228516   2.857   0.471   3.643 -2.1948  0.1121 -1.9122
 9236SOL     OW28517   3.560   7.279   3.194  0.4368  0.2186  0.5202
 9236SOL    HW128518   3.505   7.268   3.271 -0.3425  0.5347  0.0238
 9236SOL    HW228519   3.531   7.209   3.135  0.3576  0.5631  0.1445
 9237SOL     OW28520   0.698   7.325   1.245 -0.3900 -0.2641 -0.2532
 9237SOL    HW128521   0.685   7.314   1.150 -1.6074  2.1019 -0.4356
 9237SOL    HW228522   0.609   7.323   1.281  0.1113 -2.1783  1.0439
 9238SOL     OW28523   4.228   8.001   0.276 -0.2440 -0.1891  0.4595
 9238SOL    HW128524   4.202   8.006   0.184  0.8123 -0.6499  0.1172
 9238SOL    HW228525   4.295   7.932   0.278  0.1762  0.2360  1.4685
 9239SOL     OW28526   4.979   3.962   3.822 -0.3841  0.4496  0.1915
 9239SOL    HW128527   4.995   3.918   3.739 -0.8347 -0.7734  0.7278
 9239SOL    HW228528   4.919   3.904   3.869  0.6589  0.5872  1.7768
 9240SOL     OW28529   0.855   1.644   5.683  0.1561  0.2844 -0.1526
 9240SOL    HW128530   0.806   1.643   5.601  0.5448  0.2204 -0.3852
 9240SOL    HW228531   0.933   1.696   5.664 -0.8221  2.1776  0.8145
 9241SOL     OW28532   5.793   2.659   5.711 -0.8577 -0.4512  0.0863
 9241SOL    HW128533   5.814   2.620   5.796 -0.9683 -0.9395 -0.1079
 9241SOL    HW228534   5.846   2.610   5.648  0.4808  0.9647  0.0269
 9242SOL     OW28535   3.934   7.631   2.228  0.5629  0.2794  0.4485
 9242SOL    HW128536   3.918   7.715   2.270 -0.0283 -0.4283  1.6716
 9242SOL    HW228537   3.959   7.654   2.138 -0.8899  1.7122  0.3605
 9243SOL     OW28538   1.106   2.040   5.720 -0.0736  0.4841  0.1203
 9243SOL    HW128539   1.036   2.080   5.773 -1.8203  0.7821 -2.2198
 9243SOL    HW228540   1.144   2.114   5.672 -1.5013 -0.1987 -2.2218
 9244SOL     OW28541   1.225   0.327   5.959 -0.0364  0.5925  0.1521
 9244SOL    HW128542   1.219   0.420   5.937  1.1980  0.7438  0.3907
 9244SOL    HW228543   1.208   0.323   6.053 -2.4144  0.2764 -0.2246
 9245SOL     OW28544   3.224   0.957   6.616  0.1152 -0.2121 -0.1589
 9245SOL    HW128545   3.135   0.933   6.644 -0.2731  0.5104 -0.7413
 9245SOL    HW228546   3.230   0.924   6.526 -0.5641  2.0730 -1.1280
 9246SOL     OW28547   5.632   2.610   5.333  0.2134  0.3708  0.0456
 9246SOL    HW128548   5.566   2.650   5.277 -0.8176 -0.5702  0.5574
 9246SOL    HW228549   5.597   2.618   5.422  0.2001 -1.1818  0.2062
 9247SOL     OW28550   2.835   7.211   2.063 -0.3948 -0.9427  0.0276
 9247SOL    HW128551   2.838   7.186   1.971  0.7034  0.8404 -0.4782
 9247SOL    HW228552   2.924   7.197   2.094 -0.6902 -1.2578  0.7409
 9248SOL     OW28553   1.043   0.575   3.655  0.8823  0.0005  0.0021
 9248SOL    HW128554   1.098   0.535   3.588 -0.4190 -2.1239  0.1047
 9248SOL    HW228555   1.102   0.591   3.728  1.5613 -1.4112 -0.2016
 9249SOL     OW28556   1.572   6.611   0.975  0.9842 -0.1138 -0.1103
 9249SOL    HW128557   1.572   6.517   0.959  1.2602 -0.1757  0.2184
 9249SOL    HW228558   1.639   6.646   0.916  0.2506 -0.0000 -0.8772
 9250SOL     OW28559   7.469   2.796   6.999 -0.4773  0.1214 -0.2408
 9250SOL    HW128560   7.517   2.735   6.943 -1.9144 -0.7901 -0.5184
 9250SOL    HW228561   7.458   2.875   6.946 -0.7731 -0.2927 -0.8010
 9251SOL     OW28562   2.705   7.519   0.066 -0.4359 -0.0304 -0.1488
 9251SOL    HW128563   2.700   7.442   0.122  1.1403  0.6322  0.9898
 9251SOL    HW228564   2.696   7.593   0.126 -0.8141  0.6821 -1.0601
 9252SOL     OW28565   4.825   5.643   1.766  0.3281 -0.1613 -0.2117
 9252SOL    HW128566   4.856   5.695   1.691  0.1908 -0.4631 -0.4763
 9252SOL    HW228567   4.904   5.600   1.799  0.4858  0.3867  0.1500
 9253SOL     OW28568   4.022   2.805   1.289 -0.4805 -0.0526 -0.0655
 9253SOL    HW128569   4.007   2.825   1.197 -1.5852 -0.2810  0.0474
 9253SOL    HW228570   4.090   2.867   1.317  0.2634 -0.3563 -1.1609
 9254SOL     OW28571   4.017   6.699   2.201 -0.3089  0.3869 -0.1292
 9254SOL    HW128572   4.100   6.730   2.236 -0.7879  0.4512  0.9817
 9254SOL    HW228573   3.977   6.777   2.161 -0.1203  0.4943 -0.1052
 9255SOL     OW28574   5.635   4.765   6.363  0.4119 -0.2523 -0.4312
 9255SOL    HW128575   5.546   4.784   6.394  1.4101  2.2107  1.2830
 9255SOL    HW228576   5.654   4.678   6.398  0.3367  1.1237  3.5565
 9256SOL     OW28577   4.972   7.294   0.405  0.0131  0.3254  0.1256
 9256SOL    HW128578   5.064   7.305   0.429  0.3619 -2.3086  0.2884
 9256SOL    HW228579   4.927   7.284   0.489  0.1966 -2.0583  0.0017
 9257SOL     OW28580   4.523   3.997   2.435 -0.3498  0.5095  0.3808
 9257SOL    HW128581   4.485   3.925   2.485  0.0721 -0.0262 -0.0501
 9257SOL    HW228582   4.617   3.983   2.442 -0.2631  1.1450  0.4680
 9258SOL     OW28583   5.055   0.285   3.192 -0.1505 -0.8901 -0.0327
 9258SOL    HW128584   5.135   0.239   3.166  0.3412 -0.0779  0.0308
 9258SOL    HW228585   5.084   0.373   3.215 -1.2494 -0.1337 -1.4027
 9259SOL     OW28586   6.385   5.158   5.664  0.3129  0.0077  0.4396
 9259SOL    HW128587   6.463   5.142   5.716  0.5998 -1.7167 -0.4394
 9259SOL    HW228588   6.370   5.076   5.617 -0.1921  1.3140 -1.8383
 9260SOL     OW28589   3.878   6.401   4.772 -0.9761 -0.5741  0.2290
 9260SOL    HW128590   3.825   6.478   4.794  0.5423  0.6937 -0.3618
 9260SOL    HW228591   3.934   6.431   4.700  0.8481 -1.7065  1.1219
 9261SOL     OW28592   2.743   4.138   0.808  0.5115  0.0302  0.8052
 9261SOL    HW128593   2.698   4.179   0.734 -0.0791 -0.7450  0.7210
 9261SOL    HW228594   2.725   4.045   0.799  0.7028 -0.1144  1.7535
 9262SOL     OW28595   1.466   4.513   7.666  0.5285 -0.4661  0.0589
 9262SOL    HW128596   1.526   4.477   7.732  0.6421 -1.3308 -0.4895
 9262SOL    HW228597   1.515   4.505   7.583 -0.4282 -1.4076 -0.4318
 9263SOL     OW28598   5.101   6.737   2.147  0.5575 -0.3448  0.0818
 9263SOL    HW128599   5.168   6.805   2.141  1.4791 -1.2887 -0.7562
 9263SOL    HW228600   5.148   6.656   2.128 -0.8542 -1.0178 -0.6718
 9264SOL     OW28601   5.016   1.535   7.392 -0.2574  0.2475  0.4828
 9264SOL    HW128602   5.036   1.473   7.462  0.3212  0.1869  0.2644
 9264SOL    HW228603   5.082   1.519   7.325 -0.0611  1.1338  0.4467
 9265SOL     OW28604   7.815   5.879   5.448  0.0727 -0.0304 -0.1380
 9265SOL    HW128605   7.739   5.878   5.389 -0.8005 -0.0113  0.9637
 9265SOL    HW228606   7.778   5.901   5.534  1.2274 -0.7772  0.5629
 9266SOL     OW28607   6.611   4.435   2.720 -0.2208 -0.9013  0.2133
 9266SOL    HW128608   6.614   4.529   2.701  2.2422 -0.8218  0.6145
 9266SOL    HW228609   6.532   4.404   2.677 -0.7114  1.2283 -0.5409
 9267SOL     OW28610   5.029   3.603   4.975 -0.1145 -0.1647 -0.0336
 9267SOL    HW128611   4.948   3.631   5.017  0.6631  0.1066  1.3691
 9267SOL    HW228612   5.001   3.546   4.904 -1.5912  1.1415 -0.5617
 9268SOL     OW28613   5.808   6.388   6.944 -0.5427 -0.2960  0.0354
 9268SOL    HW128614   5.826   6.362   6.853  0.4985  1.6163 -0.3521
 9268SOL    HW228615   5.890   6.371   6.990 -0.9667 -0.9435  0.5712
 9269SOL     OW28616   6.795   1.751   4.025 -0.0126 -0.5445  0.0648
 9269SOL    HW128617   6.781   1.844   4.006  0.3293 -0.7294 -1.2172
 9269SOL    HW228618   6.823   1.749   4.116  1.3690  0.7734 -0.2809
 9270SOL     OW28619   4.929   4.747   5.549  0.2839  0.0496  0.1350
 9270SOL    HW128620   4.963   4.735   5.460  1.5278 -0.7175  0.6801
 9270SOL    HW228621   4.890   4.834   5.549 -0.0675 -0.0888 -1.2605
 9271SOL     OW28622   4.837   0.397   5.900 -0.3399  0.0569  0.0755
 9271SOL    HW128623   4.896   0.425   5.970  0.0896  0.2907 -0.3746
 9271SOL    HW228624   4.885   0.330   5.852 -0.3624  0.3681 -0.3961
 9272SOL     OW28625   1.429   4.382   5.586  0.4729  0.4554  0.2354
 9272SOL    HW128626   1.365   4.341   5.529  2.3458 -2.9607  0.3093
 9272SOL    HW228627   1.466   4.454   5.534  0.5459 -1.1291 -2.0237
 9273SOL     OW28628   0.142   7.728   6.294 -0.5100  0.0193  0.3288
 9273SOL    HW128629   0.138   7.647   6.344  0.1233  0.5536  1.2765
 9273SOL    HW228630   0.236   7.744   6.282 -0.6488  0.2105 -0.5160
 9274SOL     OW28631   5.126   0.518   0.155  0.2903 -0.2010  0.4923
 9274SOL    HW128632   5.195   0.473   0.105 -0.5637 -1.5204  0.4467
 9274SOL    HW228633   5.073   0.562   0.088  0.7619  0.3623  0.4831
 9275SOL     OW28634   6.004   7.130   6.895  0.4304 -0.0584  0.6425
 9275SOL    HW128635   5.955   7.211   6.910  1.4186  0.4038  1.5098
 9275SOL    HW228636   5.971   7.069   6.961  1.7858  0.6202  1.9996
 9276SOL     OW28637   0.078   0.986   3.962 -0.2946  0.1397 -0.0095
 9276SOL    HW128638   0.128   1.067   3.975 -0.1948  0.0102  0.4430
 9276SOL    HW228639   0.081   0.971   3.868 -0.6380  0.8668 -0.1498
 9277SOL     OW28640   0.557   7.050   3.501  0.0966 -0.7911  0.5502
 9277SOL    HW128641   0.564   7.119   3.567 -2.5054  0.3975 -0.3233
 9277SOL    HW228642   0.498   6.986   3.540 -0.1842 -0.8680 -0.0100
 9278SOL     OW28643   1.098   6.300   0.267  0.1680  0.0197 -0.5288
 9278SOL    HW128644   1.080   6.388   0.235  0.5359  0.4899  0.5113
 9278SOL    HW228645   1.162   6.313   0.336 -0.9096 -0.9181  0.6799
 9279SOL     OW28646   4.224   4.895   7.747  0.0763  0.1325  0.1004
 9279SOL    HW128647   4.315   4.923   7.751 -0.3368  1.4524  0.7031
 9279SOL    HW228648   4.206   4.884   7.654  0.7073  0.3322 -0.0502
 9280SOL     OW28649   3.159   0.010   3.184 -0.4756 -0.2566 -0.7434
 9280SOL    HW128650   3.117   0.087   3.223 -0.6948 -0.4027 -0.6879
 9280SOL    HW228651   3.147  -0.059   3.250 -2.2066 -0.9244 -1.6885
 9281SOL     OW28652   5.317   1.531   0.037 -0.1835  0.2204  0.0380
 9281SOL    HW128653   5.381   1.506   0.103 -0.7272 -3.1416 -0.5672
 9281SOL    HW228654   5.240   1.559   0.088 -0.6425 -2.4477  0.9560
 9282SOL     OW28655   1.797   0.878   2.594 -0.4767 -0.1609  0.5800
 9282SOL    HW128656   1.838   0.927   2.522  0.5278  0.0122  1.2367
 9282SOL    HW228657   1.788   0.943   2.664  0.5570 -0.8075  1.3452
 9283SOL     OW28658   7.840   1.907   2.649  0.2749 -0.0744  0.0719
 9283SOL    HW128659   7.854   1.889   2.556 -0.9885 -0.1194 -0.1240
 9283SOL    HW228660   7.877   1.994   2.663 -1.1363  0.7291 -0.9064
 9284SOL     OW28661   5.504   4.738   5.514 -0.7627  0.0916  0.9668
 9284SOL    HW128662   5.507   4.734   5.418  1.3608 -0.2064  0.9940
 9284SOL    HW228663   5.420   4.698   5.537 -2.2717  1.9585 -0.7936
 9285SOL     OW28664   7.630   7.946   4.321 -0.5167 -0.4904  0.0470
 9285SOL    HW128665   7.719   7.939   4.357 -1.0109  0.1345  1.4815
 9285SOL    HW228666   7.627   8.034   4.284 -0.6283 -0.3959  0.2783
 9286SOL     OW28667   7.703   3.217   5.229 -0.2077  0.0275 -0.2809
 9286SOL    HW128668   7.665   3.214   5.317 -0.2602 -1.5142 -0.3187
 9286SOL    HW228669   7.777   3.156   5.233 -0.2777 -0.1474 -1.3341
 9287SOL     OW28670   1.040   4.298   1.879 -0.8503  0.2427  0.1246
 9287SOL    HW128671   1.100   4.366   1.911  0.5983 -1.1153  0.4739
 9287SOL    HW228672   1.054   4.296   1.785  0.8073 -1.0062  0.3367
 9288SOL     OW28673   0.704   7.879   0.270  0.2460  0.5749 -0.7374
 9288SOL    HW128674   0.660   7.925   0.198  1.3036  0.5901 -1.3853
 9288SOL    HW228675   0.729   7.948   0.331 -2.8692  0.3886  0.9774
 9289SOL     OW28676   7.231   0.936   3.333  0.1891 -0.0076  0.1749
 9289SOL    HW128677   7.300   1.003   3.328  0.7428 -0.4189  1.7448
 9289SOL    HW228678   7.248   0.891   3.416 -0.9855 -1.2175 -0.2205
 9290SOL     OW28679   4.643   1.470   6.622 -0.0935  0.2023  0.4326
 9290SOL    HW128680   4.681   1.530   6.558 -0.4367 -0.1191 -0.0853
 9290SOL    HW228681   4.640   1.520   6.704 -0.1917  0.8172  0.0556
 9291SOL     OW28682   5.574   7.107   0.728  0.0060 -0.2638 -0.0815
 9291SOL    HW128683   5.576   7.134   0.636 -0.0335 -2.3859 -0.7708
 9291SOL    HW228684   5.664   7.083   0.748  0.0989  0.6051  0.6006
 9292SOL     OW28685   0.628   4.141   1.032 -0.1062  0.0094 -0.7607
 9292SOL    HW128686   0.542   4.159   0.995  0.0106 -1.0680 -1.6431
 9292SOL    HW228687   0.681   4.113   0.957  0.7168 -0.3210 -0.0824
 9293SOL     OW28688   6.046   0.008   1.523 -0.3363 -0.2800 -0.0517
 9293SOL    HW128689   6.003  -0.077   1.538 -0.3568 -0.2644 -0.0211
 9293SOL    HW228690   5.978   0.072   1.542 -0.2626 -0.2521  0.1248
 9294SOL     OW28691   2.172   5.780   4.819 -0.5724  0.2529 -0.6282
 9294SOL    HW128692   2.099   5.719   4.812 -0.5039  0.1727 -0.6419
 9294SOL    HW228693   2.134   5.858   4.861 -0.4125 -0.2121  0.4070
 9295SOL     OW28694   4.620   7.650   2.098 -0.6679 -0.1094 -0.1873
 9295SOL    HW128695   4.556   7.648   2.027  0.9351  0.9473 -1.7223
 9295SOL    HW228696   4.612   7.737   2.136 -0.2706 -0.0375 -0.2640
 9296SOL     OW28697   0.711   4.650   4.518 -0.2064  0.1924  0.3439
 9296SOL    HW128698   0.627   4.685   4.486  0.8869  0.5729 -2.3595
 9296SOL    HW228699   0.700   4.555   4.515  0.4276  0.1035 -3.2638
 9297SOL     OW28700   6.811   4.525   8.003  0.0463  0.2384  0.0624
 9297SOL    HW128701   6.875   4.525   8.075 -0.7032  0.6385  0.7535
 9297SOL    HW228702   6.821   4.440   7.962  2.1555  0.8776 -0.8988
 9298SOL     OW28703   4.519   4.221   4.104  0.5659 -0.4154 -0.1036
 9298SOL    HW128704   4.456   4.179   4.046  0.7936 -0.3295 -0.4112
 9298SOL    HW228705   4.559   4.291   4.052  3.8273 -2.9300 -1.3125
 9299SOL     OW28706   6.731   0.846   2.377 -0.5429 -0.5635  0.4421
 9299SOL    HW128707   6.752   0.922   2.431  0.4377 -1.5932  1.5482
 9299SOL    HW228708   6.639   0.827   2.397 -1.2670  1.1432 -0.9253
 9300SOL     OW28709   4.262   2.555   0.998  0.7062  0.4943 -0.6127
 9300SOL    HW128710   4.212   2.550   0.917 -0.2038  0.7377 -0.0780
 9300SOL    HW228711   4.352   2.573   0.971  0.7082 -0.9126 -1.6518
 9301SOL     OW28712   2.702   1.350   4.011  0.4593  0.6720 -0.0097
 9301SOL    HW128713   2.722   1.418   3.947  1.5639 -0.3492 -0.8135
 9301SOL    HW228714   2.607   1.342   4.010  0.1973  2.9732  0.9689
 9302SOL     OW28715   6.998   7.392   6.489 -0.5044  0.0953  0.2195
 9302SOL    HW128716   7.042   7.383   6.573  1.3568 -2.3858 -0.8929
 9302SOL    HW228717   6.947   7.311   6.480  0.1643 -0.1823 -1.4434
 9303SOL     OW28718   3.707   7.889   4.760  0.3612 -0.1256 -0.3046
 9303SOL    HW128719   3.782   7.879   4.818  0.5323 -0.7773 -0.6321
 9303SOL    HW228720   3.638   7.926   4.815  0.7854  0.0628  0.1016
 9304SOL     OW28721   5.257   4.751   3.076  0.0118 -0.6053  0.0006
 9304SOL    HW128722   5.298   4.672   3.041 -0.0797 -0.1280 -1.2373
 9304SOL    HW228723   5.304   4.823   3.035  1.4570  0.0816  2.6345
 9305SOL     OW28724   1.160   4.881   2.144  0.1209  0.1887 -0.1381
 9305SOL    HW128725   1.103   4.829   2.201  0.4955 -2.4344 -1.9420
 9305SOL    HW228726   1.235   4.824   2.128  1.0701  1.7363 -1.4454
 9306SOL     OW28727   5.802   7.027   5.916 -0.3696 -0.0668 -0.7810
 9306SOL    HW128728   5.788   6.981   5.998 -0.8093  0.3724 -0.6087
 9306SOL    HW228729   5.842   6.961   5.858  0.5949 -0.1821 -0.0047
 9307SOL     OW28730   1.257   6.098   0.651  0.4758 -0.0728 -0.3516
 9307SOL    HW128731   1.188   6.041   0.686  1.5243  0.4583  2.9370
 9307SOL    HW228732   1.339   6.054   0.675  1.2998  0.9986 -1.0841
 9308SOL     OW28733   0.917   5.553   7.870  0.8467 -0.3457 -0.1039
 9308SOL    HW128734   0.931   5.599   7.787 -1.9250  2.0230  0.6089
 9308SOL    HW228735   0.865   5.476   7.846  0.2415  0.2077 -0.6092
 9309SOL     OW28736   5.295   3.639   5.079 -0.0003  0.3388 -0.3028
 9309SOL    HW128737   5.307   3.724   5.122 -1.4178  0.5081 -0.2019
 9309SOL    HW228738   5.204   3.640   5.049  0.2153 -0.8103 -1.0520
 9310SOL     OW28739   3.260   1.424   5.762 -0.4066  0.0180  0.0550
 9310SOL    HW128740   3.265   1.511   5.723  0.7000  0.2148  0.5955
 9310SOL    HW228741   3.177   1.387   5.730  0.9331 -0.3005 -3.4210
 9311SOL     OW28742   5.979   3.208   0.459  0.9611 -0.4618  0.4693
 9311SOL    HW128743   5.933   3.168   0.385 -1.1216 -0.3660  1.6278
 9311SOL    HW228744   6.014   3.134   0.508  2.1767 -0.5337 -0.4806
 9312SOL     OW28745   7.449   1.337   0.773 -0.5535 -0.1712  0.1981
 9312SOL    HW128746   7.457   1.338   0.869 -1.1061 -1.1568  0.2682
 9312SOL    HW228747   7.427   1.427   0.750  0.4623  0.2720  0.9128
 9313SOL     OW28748   6.165   6.582   2.058 -0.0970  0.1262 -0.2342
 9313SOL    HW128749   6.123   6.498   2.075 -0.8127  0.7098  1.0354
 9313SOL    HW228750   6.219   6.598   2.136 -1.3685  1.6517  0.3833
 9314SOL     OW28751   1.583   0.524   5.805  0.7270  0.1904  0.1663
 9314SOL    HW128752   1.623   0.601   5.765  3.3728  0.3392  2.7858
 9314SOL    HW228753   1.635   0.450   5.774  0.4557 -0.1249  0.4428
 9315SOL     OW28754   4.320   5.766   2.549 -0.2770 -0.2442 -0.2334
 9315SOL    HW128755   4.326   5.824   2.625 -1.4230  0.4873 -0.6693
 9315SOL    HW228756   4.411   5.751   2.524  0.1403 -0.7790  1.4646
 9316SOL     OW28757   1.378   0.330   1.987 -0.6769 -0.5303 -0.0997
 9316SOL    HW128758   1.365   0.372   2.072  1.1843  0.3763 -0.2107
 9316SOL    HW228759   1.412   0.400   1.931  0.7657 -1.7430 -0.8053
 9317SOL     OW28760   3.806   5.607   5.613  0.1087  0.5719  0.3292
 9317SOL    HW128761   3.714   5.584   5.626 -0.6428  3.4231  0.6910
 9317SOL    HW228762   3.820   5.595   5.519 -0.7624  0.5472  0.1916
 9318SOL     OW28763   7.141   6.719   2.285 -0.4082  0.1966 -0.0649
 9318SOL    HW128764   7.164   6.677   2.369 -0.4596 -1.3076 -0.7675
 9318SOL    HW228765   7.197   6.675   2.221 -0.0191  1.6713 -0.7765
 9319SOL     OW28766   7.769   3.244   4.964  0.5743 -0.2970  0.3435
 9319SOL    HW128767   7.749   3.236   5.058 -0.1134 -1.5710  0.1121
 9319SOL    HW228768   7.801   3.333   4.954 -0.3683  0.2177  1.6227
 9320SOL     OW28769   4.947   0.124   7.925 -0.2589 -0.5015  0.4994
 9320SOL    HW128770   5.042   0.127   7.920 -0.2581 -0.4291  0.5454
 9320SOL    HW228771   4.918   0.207   7.887 -0.2224  0.3690  2.2518
 9321SOL     OW28772   2.271   6.579   4.106 -0.0266  0.0171  0.5572
 9321SOL    HW128773   2.199   6.565   4.167 -0.1583  2.6438  1.1476
 9321SOL    HW228774   2.229   6.613   4.027  0.3402 -1.3495 -0.2641
 9322SOL     OW28775   3.283   3.125   1.926 -0.3826 -0.5993 -0.4709
 9322SOL    HW128776   3.311   3.171   1.847  0.9808  0.2223  0.4442
 9322SOL    HW228777   3.352   3.144   1.990 -0.4140 -2.9148  0.3283
 9323SOL     OW28778   4.755   0.017   3.773 -0.0634  0.1346  0.3243
 9323SOL    HW128779   4.736   0.014   3.867  1.6563 -1.6325  0.6641
 9323SOL    HW228780   4.834   0.071   3.766 -1.0842  1.6226 -0.3300
 9324SOL     OW28781   0.369   7.696   7.266  0.2561  0.3358  0.0566
 9324SOL    HW128782   0.379   7.653   7.181 -0.7948 -0.4182  0.2832
 9324SOL    HW228783   0.395   7.786   7.251 -1.5306  0.6504 -1.5227
 9325SOL     OW28784   3.512   1.407   0.773 -0.9519 -0.0480  0.2353
 9325SOL    HW128785   3.485   1.382   0.685 -0.2206 -1.3872  0.3653
 9325SOL    HW228786   3.538   1.325   0.815  0.1650  0.7557  1.1912
 9326SOL     OW28787   1.374   0.258   7.181 -0.5301 -0.3444 -0.2249
 9326SOL    HW128788   1.356   0.342   7.224 -0.9607 -1.4562  1.8994
 9326SOL    HW228789   1.424   0.208   7.246 -1.4724 -2.2256 -0.8782
 9327SOL     OW28790   3.415   6.410   3.541  0.1752 -0.6258 -0.0045
 9327SOL    HW128791   3.502   6.414   3.502  0.3857  0.3735  0.5417
 9327SOL    HW228792   3.360   6.466   3.486  0.4589  0.7308  1.0599
 9328SOL     OW28793   5.507   1.272   5.288 -0.0377  0.1352  0.7518
 9328SOL    HW128794   5.578   1.335   5.282  0.0984 -0.0249  0.6758
 9328SOL    HW228795   5.538   1.196   5.239 -0.5870  0.3727  0.0138
 9329SOL     OW28796   4.020   4.578   2.701  0.1195 -0.6596 -0.0362
 9329SOL    HW128797   4.040   4.655   2.647  0.9141 -1.1046 -0.4053
 9329SOL    HW228798   3.974   4.613   2.776  1.4441  0.3455  0.3597
 9330SOL     OW28799   0.526   4.321   0.611  0.0785 -0.4579  0.4183
 9330SOL    HW128800   0.478   4.402   0.631  0.9191  0.2296 -0.2379
 9330SOL    HW228801   0.496   4.258   0.676 -1.1152  0.1757  0.5127
 9331SOL     OW28802   5.412   4.002   7.186  0.0680  0.5949  0.4175
 9331SOL    HW128803   5.479   4.039   7.244  0.4252 -1.0935  1.1501
 9331SOL    HW228804   5.462   3.952   7.121 -0.4099  0.8092 -0.1200
 9332SOL     OW28805   2.008   3.250   2.888 -0.2020 -0.3882 -0.6456
 9332SOL    HW128806   2.087   3.226   2.936  0.8947 -1.4335 -2.8187
 9332SOL    HW228807   1.959   3.305   2.949  1.6931 -0.5546  1.1533
 9333SOL     OW28808   0.018   1.268   6.362 -0.0712  0.0089  0.3949
 9333SOL    HW128809  -0.027   1.209   6.422 -1.4249  1.3983  0.8215
 9333SOL    HW228810   0.085   1.311   6.416  0.6867 -0.8472  0.1643
 9334SOL     OW28811   4.960   3.279   1.950 -0.3825 -0.4883 -0.4337
 9334SOL    HW128812   5.042   3.328   1.945 -1.0505  0.8732  0.9774
 9334SOL    HW228813   4.894   3.342   1.920 -1.3054 -0.3351  1.7763
 9335SOL     OW28814   0.763   3.398   3.910 -0.4597 -1.0102  0.1005
 9335SOL    HW128815   0.738   3.433   3.825 -1.7730  0.1046  0.9026
 9335SOL    HW228816   0.840   3.449   3.935 -1.3923  0.2477  0.5323
 9336SOL     OW28817   5.154   2.695   3.648  0.4718  0.1701 -0.4001
 9336SOL    HW128818   5.191   2.633   3.584 -0.4442 -2.4284  1.3937
 9336SOL    HW228819   5.220   2.701   3.716 -0.1056 -0.1549  0.2016
 9337SOL     OW28820   4.298   6.923   6.157  0.1948 -0.4854 -1.1531
 9337SOL    HW128821   4.341   6.996   6.202 -0.8973 -0.2240 -0.4951
 9337SOL    HW228822   4.287   6.856   6.226 -1.6965  0.0022 -0.9319
 9338SOL     OW28823   4.539   6.199   0.089 -0.5339 -1.1937 -0.2679
 9338SOL    HW128824   4.455   6.210   0.133  0.0150 -3.5705  1.5663
 9338SOL    HW228825   4.519   6.203  -0.004 -2.0456  2.0305  0.0485
 9339SOL     OW28826   7.731   1.664   4.192 -0.0574 -0.2899 -0.0103
 9339SOL    HW128827   7.727   1.760   4.201 -0.0707 -0.0648 -2.0252
 9339SOL    HW228828   7.642   1.635   4.212 -0.2684  0.1987 -0.2212
 9340SOL     OW28829   4.781   7.696   7.537 -0.5119 -0.3336  0.1317
 9340SOL    HW128830   4.688   7.675   7.527 -0.4605  0.0971 -1.5044
 9340SOL    HW228831   4.817   7.687   7.449  1.3227 -1.9211  0.9851
 9341SOL     OW28832   4.397   3.075   2.347  0.5059  0.2064 -0.0695
 9341SOL    HW128833   4.316   3.098   2.302  0.1640 -0.5866  0.1103
 9341SOL    HW228834   4.370   3.007   2.410  1.1179  0.6960  0.7364
 9342SOL     OW28835   1.113   4.030   7.800 -0.4396 -0.5776  0.2677
 9342SOL    HW128836   1.179   4.100   7.801 -0.8189 -0.2175  0.8443
 9342SOL    HW228837   1.059   4.047   7.877 -1.3193 -0.7642 -0.2941
 9343SOL     OW28838   1.528   3.246   0.884  0.0714  0.6318 -0.2768
 9343SOL    HW128839   1.483   3.176   0.836  2.4513 -2.5536  1.7540
 9343SOL    HW228840   1.620   3.221   0.882  1.1369  3.9951  0.2862
 9344SOL     OW28841   7.634   4.598   5.187 -0.9309  1.0232  0.1103
 9344SOL    HW128842   7.596   4.512   5.206 -1.1367  1.2398  0.7023
 9344SOL    HW228843   7.607   4.653   5.261  1.2249  0.9664  1.0160
 9345SOL     OW28844   1.547   5.542   0.182  0.8227 -0.5468  0.6236
 9345SOL    HW128845   1.631   5.502   0.201 -0.0053 -1.1140  3.6816
 9345SOL    HW228846   1.562   5.636   0.191  0.9656 -0.6938  2.3298
 9346SOL     OW28847   3.896   6.787   7.071 -0.0261 -0.0188  0.6960
 9346SOL    HW128848   3.964   6.770   7.136 -1.6870 -0.3657  2.4362
 9346SOL    HW228849   3.838   6.712   7.078  0.6838 -1.0006 -2.5682
 9347SOL     OW28850   1.292   7.416   1.571 -0.4496  0.3028 -0.4824
 9347SOL    HW128851   1.367   7.455   1.527 -0.9619  3.1567  0.9015
 9347SOL    HW228852   1.330   7.367   1.644  0.1209  0.5621 -0.6013
 9348SOL     OW28853   7.637   0.688   3.997  0.1543  0.0195 -0.0447
 9348SOL    HW128854   7.669   0.606   3.960 -0.1516  0.2162 -0.7581
 9348SOL    HW228855   7.716   0.739   4.014  0.4318 -0.8773  1.5319
 9349SOL     OW28856   4.939   1.847   1.504 -0.1609 -0.5333  0.3712
 9349SOL    HW128857   4.975   1.926   1.464 -0.7020 -0.0607  0.7939
 9349SOL    HW228858   4.844   1.856   1.495 -0.2492 -0.9003  0.8544
 9350SOL     OW28859   6.817   1.656   5.796  0.2020  0.1905 -0.6997
 9350SOL    HW128860   6.723   1.662   5.784  0.1284  0.7789  0.0590
 9350SOL    HW228861   6.850   1.620   5.713 -0.6512  0.2531 -1.0758
 9351SOL     OW28862   1.434   3.363   4.621  0.2429 -0.1172 -0.3899
 9351SOL    HW128863   1.479   3.357   4.536  0.2104 -0.6408 -0.3731
 9351SOL    HW228864   1.502   3.344   4.685  0.2346  0.1350 -0.3087
 9352SOL     OW28865   6.999   7.008   3.930 -0.0880  0.1741  0.2725
 9352SOL    HW128866   7.052   7.087   3.939  0.0444  0.3521 -1.6784
 9352SOL    HW228867   7.061   6.941   3.903 -0.3978 -0.3318  0.7908
 9353SOL     OW28868   5.334   7.699   7.641  0.1434 -0.1562 -0.6167
 9353SOL    HW128869   5.350   7.729   7.551 -0.5436 -1.2612 -1.1138
 9353SOL    HW228870   5.325   7.604   7.634 -0.4644 -0.2004  0.5452
 9354SOL     OW28871   3.385   6.472   0.709  0.7070 -0.0306 -0.3675
 9354SOL    HW128872   3.311   6.512   0.664  0.3433 -0.9945 -0.6604
 9354SOL    HW228873   3.455   6.537   0.703  0.5809 -0.0055 -2.0783
 9355SOL     OW28874   3.427   7.439   1.117 -0.1954 -0.3182 -0.3037
 9355SOL    HW128875   3.367   7.421   1.045 -1.5175 -0.3978  0.7887
 9355SOL    HW228876   3.479   7.513   1.086 -0.1566 -0.8711 -1.6570
 9356SOL     OW28877   7.293   7.429   7.433 -0.1403  0.1566  0.0305
 9356SOL    HW128878   7.287   7.518   7.398  0.6925 -0.0316 -0.6120
 9356SOL    HW228879   7.204   7.394   7.426  0.1112 -0.1750 -2.7425
 9357SOL     OW28880   7.184   3.156   0.998  0.3117  0.1926  1.1288
 9357SOL    HW128881   7.110   3.133   1.055 -1.5786  0.1457 -1.2066
 9357SOL    HW228882   7.207   3.074   0.954  1.9849  0.1484  1.9964
 9358SOL     OW28883   2.505   4.262   7.518  0.2894  0.2775 -0.0058
 9358SOL    HW128884   2.584   4.296   7.562  1.5240 -0.7697 -1.3047
 9358SOL    HW228885   2.518   4.285   7.426 -0.7716 -0.2046 -0.2846
 9359SOL     OW28886   2.915   0.856   2.005  0.2638 -0.0960  0.2428
 9359SOL    HW128887   2.846   0.805   1.963  0.8282 -0.8238  0.1738
 9359SOL    HW228888   2.908   0.835   2.098 -0.0384  0.3635  0.3279
 9360SOL     OW28889   2.353   2.385   6.809 -0.1828 -0.5126 -0.0716
 9360SOL    HW128890   2.363   2.432   6.891 -2.1355  0.2570 -0.2329
 9360SOL    HW228891   2.439   2.391   6.767  1.0346 -1.4718  2.1488
 9361SOL     OW28892   6.113   1.099   2.241  0.0169  0.0236 -0.0364
 9361SOL    HW128893   6.200   1.071   2.212 -0.0848  1.7143 -2.2600
 9361SOL    HW228894   6.128   1.179   2.290 -0.3358  1.4469 -2.1207
 9362SOL     OW28895   4.418   7.388   7.684  0.3368  0.1483 -0.3853
 9362SOL    HW128896   4.363   7.347   7.618 -0.5219  0.1725  0.2930
 9362SOL    HW228897   4.486   7.323   7.704  0.0731 -0.2069 -0.6457
 9363SOL     OW28898   2.828   7.589   7.829  0.3855 -0.2865  0.5225
 9363SOL    HW128899   2.799   7.677   7.805 -0.8841 -1.1019 -1.1651
 9363SOL    HW228900   2.792   7.574   7.916  1.5880  1.2417  1.3389
 9364SOL     OW28901   4.650   2.789   5.803 -0.5600  0.0354 -0.1063
 9364SOL    HW128902   4.745   2.805   5.800 -0.2864 -1.0976  1.4134
 9364SOL    HW228903   4.613   2.861   5.752  1.0347  1.2408  0.3208
 9365SOL     OW28904   2.104   0.946   5.437  0.3874 -0.0103  0.4505
 9365SOL    HW128905   2.133   0.859   5.412  2.0377  0.6094  0.0757
 9365SOL    HW228906   2.153   1.005   5.380 -1.2955  1.1527  0.1404
 9366SOL     OW28907   1.212   6.942   6.253  0.8209  0.5301 -0.1297
 9366SOL    HW128908   1.307   6.942   6.244  0.7693  2.1759 -1.1785
 9366SOL    HW228909   1.196   6.979   6.340  1.1339 -0.2004  0.2446
 9367SOL     OW28910   3.563   0.698   7.293  0.0004 -0.0822  0.0502
 9367SOL    HW128911   3.548   0.767   7.357  0.2348 -1.0304  1.1714
 9367SOL    HW228912   3.480   0.650   7.290  0.0822 -0.2120 -0.1503
 9368SOL     OW28913   2.474   4.357   0.285 -0.1812  0.3782 -0.2051
 9368SOL    HW128914   2.446   4.285   0.228 -2.0879 -0.3259  1.4963
 9368SOL    HW228915   2.527   4.413   0.228  1.5372 -2.4237 -1.5370
 9369SOL     OW28916   7.365   3.529   4.198 -0.3817 -0.1798 -0.0054
 9369SOL    HW128917   7.391   3.547   4.108  0.5595 -0.5817  0.1668
 9369SOL    HW228918   7.402   3.602   4.249  1.5361 -1.3644  0.4010
 9370SOL     OW28919   1.083   1.762   7.002  0.3934 -0.4118 -0.3626
 9370SOL    HW128920   1.170   1.791   6.973 -0.2141  0.5861 -1.2691
 9370SOL    HW228921   1.026   1.780   6.927 -0.6107 -0.9921  0.2509
 9371SOL     OW28922   2.305   7.901   6.487 -0.2484  0.0543 -0.3075
 9371SOL    HW128923   2.250   7.955   6.545  0.4793 -0.2948  0.7369
 9371SOL    HW228924   2.242   7.846   6.439 -1.0176  1.8480 -1.4705
 9372SOL     OW28925   5.706   1.740   6.859  0.7936 -0.0024 -0.1318
 9372SOL    HW128926   5.704   1.833   6.881 -0.9970  0.1112 -0.6366
 9372SOL    HW228927   5.627   1.704   6.900  0.2465 -0.8267 -1.8460
 9373SOL     OW28928   7.851   1.791   3.725  0.5158  0.3668  0.4938
 9373SOL    HW128929   7.870   1.778   3.818  0.5161  0.7692  0.5506
 9373SOL    HW228930   7.757   1.771   3.716  0.3392  1.0703  0.7241
 9374SOL     OW28931   7.838   1.497   5.472  0.1281  0.3687  0.2569
 9374SOL    HW128932   7.857   1.446   5.550 -3.2335 -2.5697 -0.5531
 9374SOL    HW228933   7.911   1.480   5.413  0.5556 -1.0653  1.1646
 9375SOL     OW28934   0.925   2.152   7.870  0.0766  0.4644  0.2112
 9375SOL    HW128935   0.992   2.133   7.804 -0.0630  0.0938  0.1751
 9375SOL    HW228936   0.913   2.069   7.916 -1.7392 -0.0047 -1.0361
 9376SOL     OW28937   1.490   4.138   1.324 -0.0294 -0.6054  0.0246
 9376SOL    HW128938   1.410   4.091   1.302  0.4970 -2.1900  1.3198
 9376SOL    HW228939   1.464   4.199   1.394 -0.2860 -0.4482 -0.2078
 9377SOL     OW28940   7.958   6.702   6.432 -0.5326  0.3376 -0.3627
 9377SOL    HW128941   7.976   6.611   6.454  0.9659  0.9225  1.0804
 9377SOL    HW228942   8.014   6.721   6.357 -0.8320  0.0821 -0.6518
 9378SOL     OW28943   0.839   6.071   5.992  0.0305 -0.2104  0.1034
 9378SOL    HW128944   0.858   6.156   6.031 -2.3151  0.2995  0.3004
 9378SOL    HW228945   0.845   6.009   6.064  1.0731 -0.1291  0.1002
 9379SOL     OW28946   1.325   0.145   5.440  0.3623 -0.0319 -0.4234
 9379SOL    HW128947   1.328   0.180   5.529  0.5931 -0.3929 -0.2833
 9379SOL    HW228948   1.232   0.144   5.417  0.2980  0.0113 -0.1656
 9380SOL     OW28949   0.864   6.343   1.915  0.3717 -0.6908 -0.1217
 9380SOL    HW128950   0.930   6.298   1.864  0.0123 -0.7628 -0.5279
 9380SOL    HW228951   0.806   6.273   1.947  1.2265 -0.7759  1.3360
 9381SOL     OW28952   2.246   7.636   2.190  0.1709  0.4511  0.1772
 9381SOL    HW128953   2.277   7.704   2.250  1.3039  1.0283 -1.0056
 9381SOL    HW228954   2.323   7.614   2.138  0.2135 -2.7048  1.3591
 9382SOL     OW28955   2.231   6.261   2.922 -0.1915 -0.1499  0.2842
 9382SOL    HW128956   2.276   6.208   2.988 -0.2509  0.3557  0.7331
 9382SOL    HW228957   2.300   6.282   2.858  0.1274  0.3041  0.7714
 9383SOL     OW28958   4.342   7.604   3.964  0.2635 -0.1347 -0.2143
 9383SOL    HW128959   4.384   7.579   4.047 -0.7720 -2.2083 -0.2454
 9383SOL    HW228960   4.373   7.693   3.948  1.9871 -0.3504  1.4382
 9384SOL     OW28961   2.126   6.002   0.757  0.1017  0.6074 -0.1339
 9384SOL    HW128962   2.068   5.959   0.820  0.0480 -0.3701 -0.8160
 9384SOL    HW228963   2.196   5.939   0.742  0.3207  0.9839 -0.7419
 9385SOL     OW28964   1.242   2.260   3.970  0.3270 -0.0373 -0.3280
 9385SOL    HW128965   1.266   2.200   4.041 -1.3417  1.1946  1.3980
 9385SOL    HW228966   1.310   2.328   3.972  0.1068  0.1788  0.3811
 9386SOL     OW28967   7.074   7.987   0.809 -0.1097  0.4653 -0.5283
 9386SOL    HW128968   7.166   7.979   0.784 -0.2970 -0.1093 -1.0639
 9386SOL    HW228969   7.071   7.955   0.900  0.1015 -0.2362 -0.7603
 9387SOL     OW28970   4.630   4.576   0.134 -0.0958 -0.0276  0.5737
 9387SOL    HW128971   4.619   4.481   0.141  0.5134 -0.1136  0.3549
 9387SOL    HW228972   4.639   4.605   0.225 -0.5495 -0.1398  0.6605
 9388SOL     OW28973   0.703   6.705   3.600 -0.2803  0.2431 -0.1780
 9388SOL    HW128974   0.724   6.758   3.523 -0.8888  0.3407 -0.2765
 9388SOL    HW228975   0.608   6.703   3.603 -0.2775  0.7313  0.8948
 9389SOL     OW28976   0.146   7.214   4.101  0.4318 -0.1414 -0.3743
 9389SOL    HW128977   0.200   7.194   4.177 -3.8640 -1.7037  2.6830
 9389SOL    HW228978   0.136   7.309   4.103  0.4302 -0.1498  1.0240
 9390SOL     OW28979   3.886   0.401   7.827  0.1914  0.1586 -0.1878
 9390SOL    HW128980   3.822   0.386   7.896  0.8765 -0.7483  0.2622
 9390SOL    HW228981   3.956   0.451   7.869  1.1853 -1.4382  0.1139
 9391SOL     OW28982   0.542   5.489   5.630 -0.4190  0.2295  0.1881
 9391SOL    HW128983   0.503   5.406   5.603  1.0601 -0.7218  0.8575
 9391SOL    HW228984   0.562   5.534   5.548 -2.9311  0.8089 -0.1823
 9392SOL     OW28985   1.026   4.087   5.125  0.3952  0.3822  0.0740
 9392SOL    HW128986   0.995   4.144   5.055  1.4737  1.9310  0.7988
 9392SOL    HW228987   0.949   4.036   5.151 -0.6712  1.6857 -0.4390
 9393SOL     OW28988   7.412   2.665   6.133  0.6138  0.0976 -0.1022
 9393SOL    HW128989   7.384   2.738   6.078 -1.5107 -0.2494  0.4349
 9393SOL    HW228990   7.497   2.639   6.097  0.3905  1.4028 -1.6807
 9394SOL     OW28991   4.271   3.946   3.047 -0.2999 -0.4095 -0.2309
 9394SOL    HW128992   4.267   3.958   3.142  1.9833  1.9369 -0.3187
 9394SOL    HW228993   4.197   3.889   3.027 -1.2612 -0.4240  2.8547
 9395SOL     OW28994   2.000   1.024   5.054 -0.5152  0.1958  0.1144
 9395SOL    HW128995   1.920   1.014   5.106  0.8309  0.2320  2.3267
 9395SOL    HW228996   2.004   0.944   5.002 -0.7590 -0.9854  1.8094
 9396SOL     OW28997   7.715   2.017   1.641 -0.0472  0.4493  0.4008
 9396SOL    HW128998   7.740   1.927   1.619 -1.7817 -0.3539  1.4431
 9396SOL    HW228999   7.705   2.060   1.557 -2.2735 -1.2949 -0.3369
 9397SOL     OW29000   2.571   1.926   3.913  0.5543  0.1996  0.2831
 9397SOL    HW129001   2.644   1.887   3.865  1.5713 -0.3832  2.1600
 9397SOL    HW229002   2.494   1.880   3.882  1.1604 -0.0891 -0.8302
 9398SOL     OW29003   2.410   4.847   3.196 -0.1437  0.0167 -0.3607
 9398SOL    HW129004   2.391   4.882   3.283  0.9996  1.9637 -0.8413
 9398SOL    HW229005   2.368   4.908   3.135  0.3705 -0.4674 -1.2260
 9399SOL     OW29006   0.838   0.900   6.655  0.2333 -0.7309 -0.5376
 9399SOL    HW129007   0.898   0.832   6.687  0.5409 -0.0422  0.4045
 9399SOL    HW229008   0.855   0.975   6.712 -0.0401  0.1682 -1.6010
 9400SOL     OW29009   4.061   0.068   2.885 -0.3226  0.4344 -0.2415
 9400SOL    HW129010   4.012   0.049   2.965 -1.6297 -1.1299 -1.3570
 9400SOL    HW229011   4.020   0.147   2.850 -0.5647  0.4052 -0.0209
 9401SOL     OW29012   4.411   0.566   3.100  0.3299 -0.0090 -0.2402
 9401SOL    HW129013   4.381   0.656   3.085 -0.3299  0.0422  1.2077
 9401SOL    HW229014   4.359   0.513   3.040 -1.4086  0.2902  0.9171
 9402SOL     OW29015   1.265   2.868   3.631 -0.1559 -0.3457  0.3103
 9402SOL    HW129016   1.201   2.823   3.687 -0.7995 -0.3836 -0.4367
 9402SOL    HW229017   1.350   2.848   3.670 -0.6050 -0.0827  1.4801
 9403SOL     OW29018   6.366   4.279   1.062  0.0307 -0.4739 -0.1357
 9403SOL    HW129019   6.383   4.318   1.148 -0.6371  1.7150 -0.9296
 9403SOL    HW229020   6.385   4.186   1.074  3.3090  0.2438  1.4570
 9404SOL     OW29021   4.229   6.797   2.348  0.2819 -0.4588 -0.3671
 9404SOL    HW129022   4.301   6.745   2.383  1.1583 -0.0824 -1.5174
 9404SOL    HW229023   4.269   6.847   2.276 -0.6932  1.2251  0.2077
 9405SOL     OW29024   1.224   5.883   2.071  0.4473 -0.0868 -0.1181
 9405SOL    HW129025   1.228   5.939   2.148  0.6116 -0.9419  0.5208
 9405SOL    HW229026   1.139   5.901   2.032  0.4987  0.5960  0.0748
 9406SOL     OW29027   6.929   2.054   7.527  0.2213  0.3721  0.2378
 9406SOL    HW129028   6.944   1.999   7.450 -0.3658 -1.7663  1.5460
 9406SOL    HW229029   7.010   2.105   7.536  0.7797 -0.2188 -1.0909
 9407SOL     OW29030   7.934   5.740   6.377 -0.2094  0.2017 -0.2289
 9407SOL    HW129031   7.953   5.706   6.290  1.0288  0.5053 -0.0958
 9407SOL    HW229032   8.010   5.715   6.430 -1.7390 -1.5801  1.2544
 9408SOL     OW29033   3.953   7.233   6.146  0.4109  0.5583  0.2482
 9408SOL    HW129034   3.956   7.137   6.155  2.4346  0.3357 -1.9758
 9408SOL    HW229035   3.899   7.248   6.068  1.6913  1.0733 -0.5758
 9409SOL     OW29036   1.808   4.916   3.876  0.3136  0.2941  0.2871
 9409SOL    HW129037   1.880   4.881   3.928  0.8752  2.5063  1.1345
 9409SOL    HW229038   1.814   4.871   3.792  0.6410 -1.9081  1.4172
 9410SOL     OW29039   1.372   4.641   4.222  0.1896 -0.0818  0.3635
 9410SOL    HW129040   1.326   4.559   4.238 -0.1409 -0.0680 -0.4746
 9410SOL    HW229041   1.311   4.709   4.252 -1.6574  0.1093 -3.3153
 9411SOL     OW29042   0.072   4.031   5.948  0.0590  0.3243  0.3071
 9411SOL    HW129043   0.029   3.970   6.008 -1.9811  1.0125 -0.3547
 9411SOL    HW229044   0.114   4.096   6.005  0.9964 -0.8496  0.9903
 9412SOL     OW29045   7.444   6.021   5.175 -0.1972  0.3107  0.5062
 9412SOL    HW129046   7.449   6.072   5.094  1.7032  0.5683  0.7345
 9412SOL    HW229047   7.364   5.970   5.167 -0.3015  0.7102 -1.3094
 9413SOL     OW29048   3.467   5.204   7.997 -0.0692 -0.3443 -0.3615
 9413SOL    HW129049   3.509   5.280   8.039 -0.0106 -0.8041  0.4249
 9413SOL    HW229050   3.373   5.218   8.011 -0.2097  0.6237 -2.0181
 9414SOL     OW29051   2.418   5.908   0.891 -0.5632  0.4144  0.2781
 9414SOL    HW129052   2.448   5.842   0.829  1.5081 -0.1777  1.7915
 9414SOL    HW229053   2.363   5.860   0.953  1.2913 -0.0525  1.6269
 9415SOL     OW29054   2.850   4.593   7.649  0.0784 -0.3777  0.0552
 9415SOL    HW129055   2.900   4.648   7.589  1.5486 -0.4267  1.1872
 9415SOL    HW229056   2.895   4.601   7.733 -3.1095  1.4189  1.8134
 9416SOL     OW29057   6.198   5.144   7.980 -0.4440 -0.0149  0.6170
 9416SOL    HW129058   6.260   5.105   8.042 -0.3014  0.1817  0.5982
 9416SOL    HW229059   6.223   5.236   7.976 -0.3795 -0.0538  0.1701
 9417SOL     OW29060   6.659   6.834   4.228 -0.1563 -0.2907  0.2597
 9417SOL    HW129061   6.627   6.782   4.154  0.7162 -2.5001  1.3198
 9417SOL    HW229062   6.754   6.826   4.224 -0.0966 -0.6192  1.6873
 9418SOL     OW29063   0.774   6.874   6.056 -0.0427 -0.0374 -0.0007
 9418SOL    HW129064   0.777   6.794   6.107  1.6698 -0.1849 -0.2833
 9418SOL    HW229065   0.798   6.943   6.118  0.4301 -0.0104 -0.2067
 9419SOL     OW29066   1.550   5.388   7.885 -0.0933  0.1703  0.1363
 9419SOL    HW129067   1.614   5.327   7.923 -0.0739  0.8813  1.2702
 9419SOL    HW229068   1.474   5.383   7.944 -0.6902  0.1225 -0.6166
 9420SOL     OW29069   3.382   0.731   6.680 -0.1849  0.7204 -0.1358
 9420SOL    HW129070   3.329   0.811   6.683 -0.0257  0.7954  1.3925
 9420SOL    HW229071   3.358   0.689   6.597 -1.7660  1.3260 -0.0057
 9421SOL     OW29072   2.373   7.053   7.962  0.2844 -0.6152  0.2227
 9421SOL    HW129073   2.312   7.010   8.021 -0.5685  0.3645  0.0918
 9421SOL    HW229074   2.426   7.109   8.019  0.2720 -0.5801  0.1996
 9422SOL     OW29075   4.859   3.617   0.358 -0.0172 -0.4868 -0.3340
 9422SOL    HW129076   4.809   3.699   0.365  0.0135 -0.6228  2.6516
 9422SOL    HW229077   4.798   3.555   0.317 -1.0558  0.2766  0.0206
 9423SOL     OW29078   2.604   1.725   3.190  0.1936 -0.5156  0.3371
 9423SOL    HW129079   2.668   1.785   3.227  1.0761 -1.7024  0.8199
 9423SOL    HW229080   2.576   1.766   3.108 -0.3442  1.2206  1.3500
 9424SOL     OW29081   7.776   7.679   6.549 -0.3757  1.1323  0.2264
 9424SOL    HW129082   7.824   7.619   6.606 -1.6884  0.0281  0.2352
 9424SOL    HW229083   7.842   7.740   6.516  0.5800  1.2125  2.1638
 9425SOL     OW29084   6.842   0.140   7.497 -0.5721  0.0212  0.1167
 9425SOL    HW129085   6.772   0.181   7.446  0.9515 -0.5001 -2.5401
 9425SOL    HW229086   6.905   0.211   7.512  0.3820 -0.4788 -1.3798
 9426SOL     OW29087   6.143   1.325   7.375  0.1335 -0.2963  0.2779
 9426SOL    HW129088   6.185   1.314   7.460  1.3574 -0.3884 -0.3253
 9426SOL    HW229089   6.058   1.364   7.396 -0.1108 -1.4602  1.6287
 9427SOL     OW29090   6.909   0.648   5.103 -0.1481  0.0146  0.6863
 9427SOL    HW129091   6.932   0.670   5.012 -0.2430 -1.8275  0.1780
 9427SOL    HW229092   6.975   0.693   5.156  2.2156 -1.7742 -0.5109
 9428SOL     OW29093   5.044   4.145   2.017  0.1904  0.1706 -0.0352
 9428SOL    HW129094   5.053   4.066   1.963 -0.0171 -0.1434  0.3853
 9428SOL    HW229095   5.132   4.162   2.050  0.8567  1.7189 -2.3128
 9429SOL     OW29096   3.283   3.209   0.477  0.0529  0.2744 -0.1120
 9429SOL    HW129097   3.251   3.224   0.566  1.3330  0.2822  0.3618
 9429SOL    HW229098   3.273   3.293   0.433  1.8296  1.0154  0.8192
 9430SOL     OW29099   6.373   1.580   3.490 -0.1288 -0.0330 -0.0569
 9430SOL    HW129100   6.279   1.581   3.505 -0.2089 -0.2452 -0.5372
 9430SOL    HW229101   6.400   1.491   3.513 -0.6252 -1.1669 -3.2858
 9431SOL     OW29102   2.679   1.352   7.315 -0.1004  0.0109 -0.3527
 9431SOL    HW129103   2.769   1.375   7.338  0.0352 -0.2045 -0.6516
 9431SOL    HW229104   2.660   1.402   7.236  0.3225 -1.1277 -1.2131
 9432SOL     OW29105   4.093   2.787   4.057 -0.0469  0.1294 -0.6767
 9432SOL    HW129106   4.140   2.713   4.018  0.4068  1.1286 -2.0987
 9432SOL    HW229107   4.042   2.824   3.984  0.5218  1.8312 -0.2561
 9433SOL     OW29108   6.096   0.834   0.402  0.0357 -0.2587 -0.6010
 9433SOL    HW129109   6.148   0.900   0.356  0.2168 -0.1742 -0.2783
 9433SOL    HW229110   6.149   0.811   0.478 -0.5180  0.0221 -0.1216
 9434SOL     OW29111   4.622   2.516   7.895  0.0137 -0.1643 -0.0304
 9434SOL    HW129112   4.686   2.452   7.861 -1.6254 -1.9205  0.0282
 9434SOL    HW229113   4.540   2.493   7.852 -1.0543  0.7074  1.4543
 9435SOL     OW29114   7.028   5.641   4.799 -0.4009  0.0005  0.1380
 9435SOL    HW129115   7.101   5.674   4.851  0.5869 -0.8127 -0.6970
 9435SOL    HW229116   7.065   5.622   4.713 -0.6748 -3.7572  0.6447
 9436SOL     OW29117   6.904   4.905   0.063 -0.3454 -0.3031 -0.0945
 9436SOL    HW129118   6.954   4.942  -0.010 -0.5182 -1.4796 -0.8278
 9436SOL    HW229119   6.949   4.824   0.085 -0.5175 -0.1479  0.8697
 9437SOL     OW29120   2.349   4.079   0.790  0.5672  0.4819  0.2215
 9437SOL    HW129121   2.290   4.154   0.783  1.0835  0.9752  1.0501
 9437SOL    HW229122   2.429   4.114   0.829  0.8586 -0.4760  0.5270
 9438SOL     OW29123   6.939   7.934   5.404 -0.2454  0.1642  0.1288
 9438SOL    HW129124   6.883   7.973   5.337 -1.6119  0.4565  1.3999
 9438SOL    HW229125   7.025   7.926   5.361 -1.2188 -0.3009 -1.8656
 9439SOL     OW29126   4.636   0.738   5.454  0.1292 -0.0430  0.0535
 9439SOL    HW129127   4.617   0.647   5.431 -1.1095  0.1632  0.1909
 9439SOL    HW229128   4.561   0.787   5.421  0.9672  0.9928 -0.3803
 9440SOL     OW29129   2.682   5.111   5.564 -0.6569  0.4831  0.1456
 9440SOL    HW129130   2.670   5.199   5.602  1.0939  0.9658 -0.3556
 9440SOL    HW229131   2.678   5.052   5.639 -0.2577  1.1353  0.6921
 9441SOL     OW29132   3.184   6.383   6.982 -0.3080 -0.0223  0.1746
 9441SOL    HW129133   3.277   6.366   6.971 -0.4649 -0.5972 -0.3254
 9441SOL    HW229134   3.170   6.466   6.936 -0.0177  0.1410  0.3796
 9442SOL     OW29135   5.316   1.481   6.249 -0.5699 -0.5744  0.9579
 9442SOL    HW129136   5.385   1.512   6.190  0.1001  0.9726  2.4457
 9442SOL    HW229137   5.238   1.476   6.195  0.7911 -3.0404 -0.9543
 9443SOL     OW29138   0.360   7.005   0.680 -0.3749  0.3489 -0.0731
 9443SOL    HW129139   0.435   6.960   0.718 -0.2158  0.3410 -0.3949
 9443SOL    HW229140   0.392   7.093   0.661 -0.3865  0.2876 -0.3908
 9444SOL     OW29141   5.826   3.503   0.467  0.3272 -0.0669 -0.5040
 9444SOL    HW129142   5.905   3.551   0.445 -0.6348  1.5954 -0.4827
 9444SOL    HW229143   5.809   3.448   0.390  1.4754 -0.4366 -0.5076
 9445SOL     OW29144   1.102   0.893   0.865  0.1402 -0.6792 -0.3460
 9445SOL    HW129145   1.185   0.861   0.901 -0.3239 -0.9810  0.4681
 9445SOL    HW229146   1.037   0.871   0.931 -0.4435  0.4502 -0.5236
 9446SOL     OW29147   5.916   5.541   4.852  0.1282  0.4376 -0.5151
 9446SOL    HW129148   5.922   5.487   4.930 -1.4183 -0.1960 -0.7880
 9446SOL    HW229149   6.003   5.580   4.842  0.3982  0.4355  1.4300
 9447SOL     OW29150   3.420   4.059   3.748 -0.2362  0.0473 -0.3894
 9447SOL    HW129151   3.348   4.121   3.753 -1.1359 -0.8855 -1.3544
 9447SOL    HW229152   3.379   3.973   3.761  0.9596 -0.3797  0.7894
 9448SOL     OW29153   0.245   7.463   2.051  0.2802 -0.2929  0.2263
 9448SOL    HW129154   0.282   7.495   2.134  2.1337  1.4255 -1.1563
 9448SOL    HW229155   0.307   7.396   2.022  0.2579 -0.0843 -0.3089
 9449SOL     OW29156   2.303   2.788   1.559 -0.5000 -0.2327  0.5856
 9449SOL    HW129157   2.279   2.878   1.540 -0.1629 -0.2233  0.1919
 9449SOL    HW229158   2.334   2.790   1.650  0.5538  0.2627  0.2241
 9450SOL     OW29159   6.527   1.648   4.100  0.0909  0.3133 -0.2018
 9450SOL    HW129160   6.604   1.671   4.049  0.0423 -0.4417 -0.6287
 9450SOL    HW229161   6.530   1.553   4.108 -1.2590  0.1781 -0.9808
 9451SOL     OW29162   4.203   6.246   3.313  0.2526  0.2647 -0.1297
 9451SOL    HW129163   4.227   6.170   3.259 -0.7554 -0.7499  0.7990
 9451SOL    HW229164   4.286   6.289   3.332  1.5135 -3.0402  2.9034
 9452SOL     OW29165   6.042   5.938   0.426  0.5034  0.2303  0.1624
 9452SOL    HW129166   6.027   5.857   0.376  0.1192 -0.7217  1.7523
 9452SOL    HW229167   6.010   6.008   0.369 -1.2208 -0.9383 -0.3792
 9453SOL     OW29168   5.800   6.523   5.896  0.7544 -1.0375  0.0727
 9453SOL    HW129169   5.761   6.459   5.836  0.5366 -1.4148  0.6025
 9453SOL    HW229170   5.780   6.608   5.858 -1.4112 -1.1632  0.7883
 9454SOL     OW29171   7.007   6.811   4.386 -0.0279  0.0172 -0.0576
 9454SOL    HW129172   6.987   6.900   4.416 -1.3217 -0.6618  1.1914
 9454SOL    HW229173   6.994   6.815   4.291  0.3417  1.2527 -0.0809
 9455SOL     OW29174   3.269   3.778   7.142 -0.2882  0.0156  0.2114
 9455SOL    HW129175   3.315   3.862   7.135  0.4714 -0.4312 -0.2807
 9455SOL    HW229176   3.212   3.789   7.218 -1.6553  1.6615 -0.9697
 9456SOL     OW29177   7.870   7.002   2.700  0.5611  0.1417  0.1159
 9456SOL    HW129178   7.826   7.061   2.761  0.7271  0.8115 -0.3995
 9456SOL    HW229179   7.803   6.982   2.634 -0.0670 -1.7064  1.2317
 9457SOL     OW29180   7.236   6.342   0.808 -0.0130  0.2288 -0.3397
 9457SOL    HW129181   7.221   6.413   0.871 -1.7472 -1.0879  0.8516
 9457SOL    HW229182   7.200   6.375   0.726 -1.1587  0.6243  0.2918
 9458SOL     OW29183   4.736   3.072   0.744 -0.4420  0.4662 -0.3293
 9458SOL    HW129184   4.811   3.131   0.752 -0.2892  0.2823 -0.4032
 9458SOL    HW229185   4.673   3.105   0.809  1.2783 -1.7251  2.7453
 9459SOL     OW29186   6.478   0.051   4.317 -0.2688  0.4486 -0.0785
 9459SOL    HW129187   6.423   0.121   4.352 -1.2040 -0.9933  1.4581
 9459SOL    HW229188   6.545   0.038   4.384 -2.1693 -2.4609  1.4776
 9460SOL     OW29189   5.094   0.493   6.789 -0.2799 -0.1703 -0.4817
 9460SOL    HW129190   5.171   0.457   6.746 -0.5960 -1.8553  0.2652
 9460SOL    HW229191   5.040   0.416   6.809 -1.1717  0.7678  0.8989
 9461SOL     OW29192   2.347   4.101   2.061  0.8658 -0.8782  0.2296
 9461SOL    HW129193   2.435   4.093   2.026  2.0170  3.3284  1.5211
 9461SOL    HW229194   2.348   4.048   2.141  1.6207 -2.2046 -0.6235
 9462SOL     OW29195   0.677   2.624   2.276 -0.1286 -0.5025 -0.0365
 9462SOL    HW129196   0.647   2.542   2.315 -0.2148  0.3208  1.7193
 9462SOL    HW229197   0.606   2.652   2.219 -0.0241 -1.7122 -0.7994
 9463SOL     OW29198   0.001   6.510   2.199 -0.4355  0.3649 -0.5496
 9463SOL    HW129199  -0.010   6.420   2.229  1.5488  0.2206 -0.1054
 9463SOL    HW229200   0.044   6.554   2.273  0.6409  1.1000 -1.5774
 9464SOL     OW29201   0.442   3.936   2.085 -0.0952 -1.0142 -0.5050
 9464SOL    HW129202   0.378   3.895   2.143  0.8716 -2.0632 -0.1494
 9464SOL    HW229203   0.519   3.950   2.139  0.0354  0.1693 -0.9500
 9465SOL     OW29204   7.639   6.679   3.594  0.6938 -0.0144 -0.2830
 9465SOL    HW129205   7.570   6.696   3.530  0.8747  0.8931 -0.2511
 9465SOL    HW229206   7.601   6.707   3.677  1.3807  1.3443 -0.3835
 9466SOL     OW29207   7.187   7.179   2.250  0.0179  0.0267 -0.1381
 9466SOL    HW129208   7.263   7.210   2.201  0.8270 -0.9364  0.4674
 9466SOL    HW229209   7.206   7.203   2.341  0.0334 -1.0011  0.1442
 9467SOL     OW29210   5.683   2.396   4.590 -0.0384  0.2029 -0.2506
 9467SOL    HW129211   5.634   2.468   4.552  0.6709  1.1855  0.6179
 9467SOL    HW229212   5.772   2.406   4.556  0.5284  0.9071  1.3267
 9468SOL     OW29213   5.016   5.444   7.626  0.4834  0.1034  0.2472
 9468SOL    HW129214   4.957   5.375   7.595  1.3738 -0.6840  0.2711
 9468SOL    HW229215   4.957   5.515   7.654 -0.4408 -0.5812  0.0880
 9469SOL     OW29216   0.645   0.936   1.386 -0.2155 -0.0110  0.2654
 9469SOL    HW129217   0.734   0.900   1.393 -0.9831 -2.1403 -0.2157
 9469SOL    HW229218   0.595   0.869   1.339 -2.0544  1.2204  0.3426
 9470SOL     OW29219   1.199   1.105   3.184 -0.1338  0.2170 -0.4893
 9470SOL    HW129220   1.179   1.187   3.139 -1.2320 -0.0961 -0.6042
 9470SOL    HW229221   1.219   1.131   3.274  3.1880  0.9736 -1.3120
 9471SOL     OW29222   7.166   2.266   1.263 -0.4011 -0.1478  0.3956
 9471SOL    HW129223   7.172   2.170   1.255  2.9086 -0.2312  2.1656
 9471SOL    HW229224   7.087   2.280   1.316 -1.2863 -1.8197 -0.4016
 9472SOL     OW29225   0.542   2.944   6.002 -0.2734  0.1678 -0.5120
 9472SOL    HW129226   0.525   3.019   5.945 -0.6925 -0.5363 -1.3492
 9472SOL    HW229227   0.567   2.982   6.086 -0.1842  1.2353 -1.0091
 9473SOL     OW29228   7.189   0.867   2.633  0.0186  0.2014 -0.1093
 9473SOL    HW129229   7.195   0.891   2.541 -1.1353  3.8966  0.6156
 9473SOL    HW229230   7.272   0.897   2.671 -0.0069 -0.1773  0.2535
 9474SOL     OW29231   2.035   5.232   0.009 -0.2717  0.2609  0.2374
 9474SOL    HW129232   2.110   5.273  -0.034 -0.7089  1.1647  0.3255
 9474SOL    HW229233   2.074   5.169   0.069  0.5029  1.8487  1.4705
 9475SOL     OW29234   1.007   7.795   6.146  0.9605  0.6432  0.1072
 9475SOL    HW129235   0.962   7.724   6.191  1.5891  0.6503  0.7555
 9475SOL    HW229236   1.074   7.752   6.093  1.0439  0.7181  0.1498
 9476SOL     OW29237   1.345   4.423   5.055  0.4357 -0.2497 -0.1651
 9476SOL    HW129238   1.300   4.447   4.974 -0.1347 -1.1481 -0.1271
 9476SOL    HW229239   1.432   4.463   5.048  0.5329 -0.6601 -1.3954
 9477SOL     OW29240   3.724   7.857   0.639 -0.0339  0.0168 -0.6209
 9477SOL    HW129241   3.691   7.919   0.704  0.6681  0.5365 -0.7520
 9477SOL    HW229242   3.719   7.905   0.556  0.2191 -0.2105 -0.7689
 9478SOL     OW29243   5.499   1.630   6.979  0.1584  0.3677 -0.3316
 9478SOL    HW129244   5.517   1.570   7.051  1.0739  0.3634 -0.5526
 9478SOL    HW229245   5.445   1.699   7.017 -0.3981 -0.2837  0.0635
 9479SOL     OW29246   7.435   0.052   3.702  0.4154 -0.4995  0.6543
 9479SOL    HW129247   7.355   0.090   3.738  0.4216  0.8874 -0.7014
 9479SOL    HW229248   7.447  -0.029   3.752 -2.2527 -1.1819  0.3679
 9480SOL     OW29249   5.699   5.633   0.788  0.3327 -0.5210  0.1009
 9480SOL    HW129250   5.723   5.725   0.791  0.1711 -0.5067  1.1966
 9480SOL    HW229251   5.689   5.607   0.880 -0.3086 -1.4463 -0.2131
 9481SOL     OW29252   7.619   2.072   6.218  0.1248  0.2797 -0.1998
 9481SOL    HW129253   7.652   2.061   6.129  2.1832  0.9973  0.4063
 9481SOL    HW229254   7.697   2.061   6.273 -1.1988 -0.7787  1.5713
 9482SOL     OW29255   5.071   3.778   7.061 -0.2658 -0.0689  0.5372
 9482SOL    HW129256   5.002   3.719   7.031 -1.7590  0.1674  3.1768
 9482SOL    HW229257   5.152   3.732   7.039 -1.2209 -0.8661 -1.6874
 9483SOL     OW29258   1.641   0.317   5.592 -0.7225  0.5354 -0.2291
 9483SOL    HW129259   1.665   0.263   5.517 -0.5732 -1.0350  0.8870
 9483SOL    HW229260   1.546   0.305   5.600 -0.8249  1.1499 -0.4909
 9484SOL     OW29261   5.308   2.252   6.981  0.4618 -0.1914  0.2101
 9484SOL    HW129262   5.294   2.168   6.939 -0.3628  0.3202 -0.5681
 9484SOL    HW229263   5.325   2.313   6.909 -0.6737  0.6444  0.6056
 9485SOL     OW29264   7.055   1.378   5.702 -0.3480 -0.1744  0.2734
 9485SOL    HW129265   7.091   1.443   5.761  0.4773  0.2724 -0.6809
 9485SOL    HW229266   7.131   1.328   5.672 -0.8675 -1.0292  0.3536
 9486SOL     OW29267   3.308   4.797   7.610 -0.2340  0.1598  0.7246
 9486SOL    HW129268   3.343   4.807   7.521  1.6924 -0.9655  1.3131
 9486SOL    HW229269   3.370   4.843   7.666  0.7445 -2.4099  1.8700
 9487SOL     OW29270   2.734   1.818   4.130 -0.2425  0.0160 -0.0231
 9487SOL    HW129271   2.794   1.861   4.070 -0.3557 -1.0458 -0.9289
 9487SOL    HW229272   2.681   1.889   4.166  1.7916  1.0449  1.1313
 9488SOL     OW29273   7.234   2.188   5.773 -0.0901  0.2158  0.0573
 9488SOL    HW129274   7.314   2.240   5.776  1.3837 -1.8254 -1.2299
 9488SOL    HW229275   7.231   2.144   5.857  0.6401 -0.3422 -0.1949
 9489SOL     OW29276   3.368   3.317   6.975  0.1036  0.1500 -0.2640
 9489SOL    HW129277   3.419   3.396   6.990 -0.2941  0.3745 -0.0918
 9489SOL    HW229278   3.423   3.264   6.917  0.0087  0.9204 -1.0696
 9490SOL     OW29279   2.958   4.908   3.090  0.9672 -0.1835 -0.2995
 9490SOL    HW129280   2.890   4.894   3.024 -1.8549  0.3946  2.2612
 9490SOL    HW229281   2.974   5.002   3.089  0.0914 -0.0116  0.5344
 9491SOL     OW29282   6.827   1.733   6.668 -0.1786  0.2255  0.4316
 9491SOL    HW129283   6.845   1.691   6.752  2.3692  1.2255  0.4773
 9491SOL    HW229284   6.784   1.816   6.691 -0.3466  0.0683  0.6870
 9492SOL     OW29285   1.251   7.394   6.366  0.3233  0.2814  0.2566
 9492SOL    HW129286   1.163   7.413   6.333  0.1052  0.5803  1.0031
 9492SOL    HW229287   1.256   7.439   6.450 -0.1203 -2.7082  2.0145
 9493SOL     OW29288   5.674   3.448   7.797 -0.3300 -0.0779  0.1136
 9493SOL    HW129289   5.604   3.399   7.753 -0.7597  0.6092  0.0153
 9493SOL    HW229290   5.714   3.384   7.857 -1.9319 -0.1402  1.1754
 9494SOL     OW29291   5.185   6.949   3.056 -0.3347 -0.4331  0.2602
 9494SOL    HW129292   5.189   6.935   3.151 -1.6686  0.8596  0.5380
 9494SOL    HW229293   5.102   6.909   3.030 -0.2367 -0.2828 -0.2865
 9495SOL     OW29294   7.869   6.489   3.588  0.2776 -0.1700 -0.0696
 9495SOL    HW129295   7.778   6.483   3.616  0.2185  0.7833 -0.0287
 9495SOL    HW229296   7.911   6.411   3.625  0.1945  0.9350  2.5873
 9496SOL     OW29297   7.392   7.967   2.452  0.0627  0.3512  0.5125
 9496SOL    HW129298   7.465   7.941   2.507  0.3950  0.5509  0.1717
 9496SOL    HW229299   7.326   7.899   2.466  0.5604 -0.1809  0.3359
 9497SOL     OW29300   1.042   7.367   4.225  0.1149 -0.2617  0.1758
 9497SOL    HW129301   0.995   7.421   4.161 -1.6298 -1.7732  0.0820
 9497SOL    HW229302   1.111   7.324   4.173  0.9350  1.1192  0.0717
 9498SOL     OW29303   0.515   6.706   2.882  0.7628 -0.1740  0.7707
 9498SOL    HW129304   0.564   6.641   2.932  1.3453 -0.1329  0.2718
 9498SOL    HW229305   0.574   6.729   2.810  0.4974  0.7731  0.8443
 9499SOL     OW29306   3.367   1.086   2.909  0.0549  0.1814 -0.3659
 9499SOL    HW129307   3.443   1.142   2.926 -1.4084  1.8621  1.0646
 9499SOL    HW229308   3.295   1.130   2.953 -1.9212 -0.9745 -2.2625
 9500SOL     OW29309   3.978   4.040   1.716 -0.4688  0.3434 -0.0422
 9500SOL    HW129310   3.955   4.080   1.633 -0.1658  1.6392  0.4750
 9500SOL    HW229311   3.909   4.068   1.776  0.3251  1.0013  0.5857
 9501SOL     OW29312   0.009   3.004   5.709  0.6717  0.2740  0.2478
 9501SOL    HW129313   0.020   2.952   5.629  1.6984  1.1478 -0.2089
 9501SOL    HW229314  -0.063   2.962   5.756  1.0320 -1.1459 -0.4279
 9502SOL     OW29315   5.536   4.917   7.938 -0.2340  0.4113  0.1668
 9502SOL    HW129316   5.584   4.996   7.963 -0.0787  1.1799 -2.2887
 9502SOL    HW229317   5.565   4.850   8.001 -0.2146  2.2146  2.1654
 9503SOL     OW29318   7.827   4.974   3.301 -0.0183 -0.2129  0.1563
 9503SOL    HW129319   7.851   4.888   3.265 -0.8075  0.6498 -2.7139
 9503SOL    HW229320   7.808   5.027   3.224  0.5528  2.6149  1.8304
 9504SOL     OW29321   6.962   5.419   7.615  0.1254  0.1353 -0.1701
 9504SOL    HW129322   7.019   5.462   7.679 -1.4178  0.0584  1.3004
 9504SOL    HW229323   6.875   5.453   7.634 -0.9775 -2.7664  0.3180
 9505SOL     OW29324   5.576   3.542   1.798 -0.0676  0.0980 -0.0843
 9505SOL    HW129325   5.574   3.579   1.710 -2.5650 -0.3200 -0.2839
 9505SOL    HW229326   5.538   3.455   1.788  1.9713 -1.0140  1.0416
 9506SOL     OW29327   5.462   6.913   5.751  0.0723  0.1991  0.1439
 9506SOL    HW129328   5.401   6.845   5.722  0.0975 -0.2578  1.1205
 9506SOL    HW229329   5.414   6.960   5.819  1.2132 -0.9435  1.8065
 9507SOL     OW29330   0.406   6.814   5.487 -0.3395 -0.0437 -0.3034
 9507SOL    HW129331   0.339   6.881   5.472 -0.1143 -0.1155 -1.7797
 9507SOL    HW229332   0.456   6.812   5.406 -0.5216 -2.2109 -0.4221
 9508SOL     OW29333   4.735   7.973   3.021  0.4259 -0.3906  0.2126
 9508SOL    HW129334   4.730   8.005   2.931  0.8211  0.0585  0.3497
 9508SOL    HW229335   4.826   7.945   3.032  0.3233 -0.6553  0.3997
 9509SOL     OW29336   1.019   6.946   7.445 -0.1234  0.3776 -0.2767
 9509SOL    HW129337   1.031   6.973   7.536 -0.7715  1.9271 -0.6340
 9509SOL    HW229338   1.099   6.897   7.425  0.7199  1.3124  0.6643
 9510SOL     OW29339   0.768   6.803   0.505  0.1703  0.4098 -0.6865
 9510SOL    HW129340   0.726   6.819   0.590  1.8623 -0.9813  0.4939
 9510SOL    HW229341   0.712   6.848   0.442 -1.7594  0.5939  1.0301
 9511SOL     OW29342   2.159   4.810   1.354  0.2216  0.4708  0.0030
 9511SOL    HW129343   2.248   4.776   1.357  0.7397  1.8053  2.1666
 9511SOL    HW229344   2.169   4.905   1.362 -1.3631  0.7894 -1.1744
 9512SOL     OW29345   0.352   4.002   2.756  0.4128 -0.4620  0.3647
 9512SOL    HW129346   0.324   3.923   2.709 -2.9439  0.6618  0.1992
 9512SOL    HW229347   0.409   4.047   2.694 -0.7632 -0.9346 -1.1453
 9513SOL     OW29348   4.333   1.315   7.531  0.7160  0.1004 -0.6234
 9513SOL    HW129349   4.310   1.266   7.451  1.1440 -0.4003 -0.4428
 9513SOL    HW229350   4.311   1.406   7.510 -0.8092 -0.2616 -0.6956
 9514SOL     OW29351   3.839   4.900   3.213 -0.2559  0.3309  0.2322
 9514SOL    HW129352   3.922   4.876   3.256 -0.1698 -1.1055 -0.6984
 9514SOL    HW229353   3.774   4.841   3.251 -0.4773  0.1207 -0.4603
 9515SOL     OW29354   4.776   7.826   0.249  0.4080 -0.6475 -0.2999
 9515SOL    HW129355   4.831   7.766   0.299 -0.3383 -0.0822  1.2443
 9515SOL    HW229356   4.702   7.772   0.219 -1.8611 -0.0421  3.5976
 9516SOL     OW29357   1.726   6.446   5.560  0.5381 -0.2064 -0.3702
 9516SOL    HW129358   1.731   6.489   5.474  3.2460 -1.8201 -1.1369
 9516SOL    HW229359   1.725   6.518   5.623  2.0517  1.0178 -1.6714
 9517SOL     OW29360   1.104   5.395   1.842 -1.0470 -0.2255 -0.8177
 9517SOL    HW129361   1.138   5.406   1.930  1.2753  3.1910 -1.9436
 9517SOL    HW229362   1.027   5.452   1.838 -0.8587  0.0135 -1.1108
 9518SOL     OW29363   0.762   0.399   3.718  0.1476  0.1685 -0.1376
 9518SOL    HW129364   0.764   0.444   3.633  1.3438  1.0180  0.3125
 9518SOL    HW229365   0.738   0.467   3.781 -2.5160 -0.8239  0.0562
 9519SOL     OW29366   6.739   2.333   2.097  0.1751  0.2864 -0.1078
 9519SOL    HW129367   6.680   2.403   2.070 -1.4379 -0.9017  0.1613
 9519SOL    HW229368   6.681   2.264   2.128  1.7415 -0.8683  0.3746
 9520SOL     OW29369   0.946   7.718   1.328 -0.4201 -0.3864 -0.0247
 9520SOL    HW129370   1.002   7.674   1.391  0.7904  0.6420 -0.3430
 9520SOL    HW229371   1.006   7.771   1.275 -1.7161  1.0315 -0.1420
 9521SOL     OW29372   0.042   0.410   0.154 -0.2036  0.1869  0.2632
 9521SOL    HW129373   0.116   0.464   0.184 -0.6989  1.2828 -0.4037
 9521SOL    HW229374   0.030   0.345   0.223  0.7188  0.6482  0.8842
 9522SOL     OW29375   1.322   6.624   6.006 -0.1222  0.2653 -0.4317
 9522SOL    HW129376   1.357   6.546   5.962  0.3096  0.7857 -1.0378
 9522SOL    HW229377   1.361   6.697   5.958 -1.6939  0.8701 -0.8433
 9523SOL     OW29378   4.458   5.238   2.655  0.0542  0.3914 -0.3008
 9523SOL    HW129379   4.517   5.313   2.651 -1.4801  1.6031 -0.8693
 9523SOL    HW229380   4.385   5.261   2.598  0.0918 -2.0587 -1.5057
 9524SOL     OW29381   1.480   3.945   5.604 -0.4117 -0.2604 -0.0536
 9524SOL    HW129382   1.495   4.026   5.556 -0.8886 -0.1050  0.0574
 9524SOL    HW229383   1.387   3.926   5.590 -0.7574  0.2174  1.4855
 9525SOL     OW29384   1.492   7.383   4.084  0.2374 -0.0461  0.5233
 9525SOL    HW129385   1.582   7.409   4.061  0.7250 -1.6426  0.5401
 9525SOL    HW229386   1.458   7.459   4.132  1.6160  0.5524  0.6214
 9526SOL     OW29387   7.850   6.939   6.254  0.0258 -0.1697  0.4202
 9526SOL    HW129388   7.797   6.860   6.244  1.7119 -1.4190  1.0416
 9526SOL    HW229389   7.853   6.954   6.348 -1.1420  1.2948  0.2695
 9527SOL     OW29390   3.980   3.177   3.338 -0.1620 -0.0077  0.2425
 9527SOL    HW129391   4.009   3.232   3.265 -0.4481  1.2642  1.0643
 9527SOL    HW229392   3.933   3.236   3.396  1.1205 -0.7068  2.0863
 9528SOL     OW29393   7.044   3.486   0.524 -0.5317 -0.1969  1.2593
 9528SOL    HW129394   7.108   3.551   0.497 -1.4437  1.0836  2.0715
 9528SOL    HW229395   7.008   3.452   0.442 -0.6527  0.9558  0.8198
 9529SOL     OW29396   2.637   2.603   4.243 -0.1373  0.8322  0.2231
 9529SOL    HW129397   2.598   2.521   4.212 -0.6386  1.7061 -1.5712
 9529SOL    HW229398   2.581   2.630   4.316 -1.2625  0.6443 -0.5472
 9530SOL     OW29399   4.905   5.284   5.604  0.2963 -0.2451  0.2308
 9530SOL    HW129400   4.965   5.343   5.648  0.9622  0.6093 -1.6985
 9530SOL    HW229401   4.819   5.303   5.642  0.4794  2.0441 -0.3826
 9531SOL     OW29402   3.098   5.276   7.693  0.0510  0.9111 -0.2338
 9531SOL    HW129403   3.173   5.333   7.704  1.3473 -0.6572 -0.5991
 9531SOL    HW229404   3.113   5.205   7.755 -0.8430  0.2902 -0.7026
 9532SOL     OW29405   5.469   6.416   1.672 -0.5134 -0.0895  0.4337
 9532SOL    HW129406   5.405   6.348   1.650 -0.6234  0.4518 -1.0458
 9532SOL    HW229407   5.479   6.410   1.767 -0.9327 -1.7977  0.4027
 9533SOL     OW29408   7.010   3.988   2.680  0.2370 -0.0397 -0.2208
 9533SOL    HW129409   7.056   4.041   2.745 -0.3920  0.0989  0.1139
 9533SOL    HW229410   6.928   4.034   2.664 -0.0017 -0.5340 -0.4598
 9534SOL     OW29411   2.613   3.116   5.322  0.0368  0.4096 -0.3029
 9534SOL    HW129412   2.694   3.071   5.344  0.1368  0.5621 -0.3599
 9534SOL    HW229413   2.623   3.204   5.360  0.3579  0.7928 -1.2561
 9535SOL     OW29414   5.600   7.070   1.795  0.0739  0.1267  0.1073
 9535SOL    HW129415   5.527   7.023   1.754  0.5230 -0.7214  0.2610
 9535SOL    HW229416   5.587   7.162   1.769 -0.7145 -0.1051 -0.3473
 9536SOL     OW29417   3.525   6.856   4.425  0.1315 -0.4112 -0.1708
 9536SOL    HW129418   3.620   6.861   4.419  0.1314 -0.8719 -0.6000
 9536SOL    HW229419   3.508   6.767   4.457 -0.2157 -0.9230 -1.7171
 9537SOL     OW29420   6.979   3.697   5.405 -0.0135 -0.5713 -0.1820
 9537SOL    HW129421   6.918   3.758   5.363 -0.0083  0.3069  1.0155
 9537SOL    HW229422   6.923   3.628   5.440  0.0507 -1.7185 -2.2225
 9538SOL     OW29423   5.610   7.381   4.042  0.0824  0.2505  0.4873
 9538SOL    HW129424   5.542   7.446   4.059  1.8610  1.8874  1.7799
 9538SOL    HW229425   5.597   7.314   4.110 -0.9141 -0.0595  0.0071
 9539SOL     OW29426   4.614   6.791   5.889 -0.3495  0.4542 -0.1686
 9539SOL    HW129427   4.565   6.873   5.892 -0.2422  0.5029  0.2987
 9539SOL    HW229428   4.703   6.818   5.864  0.0765  0.6770  1.4557
 9540SOL     OW29429   3.072   7.958   5.730  0.7257  0.2835  0.1372
 9540SOL    HW129430   2.981   7.957   5.759  0.3825  1.1676 -0.8126
 9540SOL    HW229431   3.109   7.875   5.760 -0.8342 -0.7812 -0.7685
 9541SOL     OW29432   7.810   1.910   4.688 -0.2760 -0.4688 -0.6981
 9541SOL    HW129433   7.727   1.954   4.673  0.1855  0.8869  0.4887
 9541SOL    HW229434   7.876   1.975   4.666  0.4534 -1.1643 -0.6008
 9542SOL     OW29435   3.846   5.071   0.798  0.0158 -0.4437 -0.0341
 9542SOL    HW129436   3.893   5.150   0.772 -1.7012  0.6053 -0.1173
 9542SOL    HW229437   3.865   5.062   0.891 -1.3994  1.3362  0.5050
 9543SOL     OW29438   3.842   2.440   3.555  0.0107  0.7021  0.1976
 9543SOL    HW129439   3.902   2.510   3.580 -1.2433  1.8473  0.1248
 9543SOL    HW229440   3.778   2.482   3.498 -0.2552 -0.7172 -0.5966
 9544SOL     OW29441   6.841   6.507   6.648  0.5657  0.0367  0.2458
 9544SOL    HW129442   6.785   6.439   6.686  0.7362  0.3821  1.1259
 9544SOL    HW229443   6.808   6.589   6.684  0.4790  0.4232 -0.6723
 9545SOL     OW29444   0.405   2.005   0.619 -0.1994 -0.3550  0.5480
 9545SOL    HW129445   0.392   2.098   0.639  0.7052 -0.2161  0.5296
 9545SOL    HW229446   0.360   1.959   0.690  1.7581  0.1199  2.1840
 9546SOL     OW29447   7.115   6.157   1.175  0.4983 -0.2895 -0.1031
 9546SOL    HW129448   7.145   6.235   1.222  2.1107 -0.2212 -1.1577
 9546SOL    HW229449   7.036   6.130   1.221  1.8727 -0.1336  2.5253
 9547SOL     OW29450   0.000   3.405   0.462  0.3394  0.9019  0.8267
 9547SOL    HW129451   0.063   3.419   0.391 -0.4038  0.5703  0.0905
 9547SOL    HW229452  -0.002   3.489   0.508 -0.3540  1.6514 -0.5134
 9548SOL     OW29453   1.787   6.064   5.777  0.8698  0.0685  0.0179
 9548SOL    HW129454   1.780   6.155   5.805  0.5296 -0.4443  1.6550
 9548SOL    HW229455   1.870   6.033   5.815  0.5262 -0.5704  0.2620
 9549SOL     OW29456   1.885   2.766   0.170 -0.5284  0.2066  0.0022
 9549SOL    HW129457   1.926   2.841   0.213 -0.4706  0.1104  0.1121
 9549SOL    HW229458   1.957   2.720   0.127 -0.4863 -0.1119  0.4175
 9550SOL     OW29459   0.626   1.186   5.895  0.5085 -0.0609 -0.3380
 9550SOL    HW129460   0.619   1.097   5.861 -0.3269  0.2705 -1.0615
 9550SOL    HW229461   0.686   1.179   5.969  1.1368 -1.0663 -0.9297
 9551SOL     OW29462   3.600   1.624   1.178  0.0721  0.3028 -0.2002
 9551SOL    HW129463   3.637   1.594   1.095  0.0326  0.2563 -0.2010
 9551SOL    HW229464   3.535   1.689   1.154 -2.1701 -1.8677 -0.4237
 9552SOL     OW29465   6.238   2.683   7.962 -0.1974  0.2835 -0.0175
 9552SOL    HW129466   6.256   2.774   7.986 -1.1977  0.7092 -0.7878
 9552SOL    HW229467   6.319   2.652   7.921  0.6499  0.3451  1.5184
 9553SOL     OW29468   3.601   7.528   6.296  0.4958 -0.1024  0.7895
 9553SOL    HW129469   3.598   7.452   6.238  0.4651  0.6179 -0.1678
 9553SOL    HW229470   3.597   7.491   6.384 -0.9508 -1.1451  0.3226
 9554SOL     OW29471   3.046   3.985   6.912 -0.3529 -0.4009  0.4928
 9554SOL    HW129472   2.979   3.975   6.844 -0.1628  1.6368 -0.0599
 9554SOL    HW229473   3.019   3.925   6.982 -3.4639  1.2201  0.8158
 9555SOL     OW29474   0.624   1.047   5.530  0.1118  0.3108  0.5465
 9555SOL    HW129475   0.531   1.029   5.546 -0.2518  0.2065 -1.5046
 9555SOL    HW229476   0.638   1.135   5.564 -1.1703  0.9944 -0.6039
 9556SOL     OW29477   0.887   5.269   1.030  0.0435  0.3426 -0.6109
 9556SOL    HW129478   0.857   5.202   0.968  0.0042 -0.1204 -0.0952
 9556SOL    HW229479   0.808   5.321   1.048  0.2427  1.0393 -1.6199
 9557SOL     OW29480   6.751   5.816   3.059 -0.6962  0.1811 -0.0041
 9557SOL    HW129481   6.676   5.875   3.064 -1.2374 -0.3534 -1.2229
 9557SOL    HW229482   6.715   5.729   3.076 -0.2023  0.0092  0.1958
 9558SOL     OW29483   6.371   3.649   3.491  0.5814  0.7977 -0.3786
 9558SOL    HW129484   6.349   3.563   3.529  2.9453 -0.5123 -1.7114
 9558SOL    HW229485   6.326   3.651   3.407 -0.5638  1.4975  0.2279
 9559SOL     OW29486   4.821   2.388   2.008 -0.3015 -0.4232 -0.1293
 9559SOL    HW129487   4.783   2.349   2.087 -1.3358  0.3176 -0.2336
 9559SOL    HW229488   4.870   2.463   2.040 -1.9877  0.7983 -0.2794
 9560SOL     OW29489   7.026   7.020   7.933  0.2120 -1.1737  0.0216
 9560SOL    HW129490   6.945   6.995   7.978 -1.8796 -0.7966 -3.1516
 9560SOL    HW229491   7.039   7.112   7.957 -0.4145 -1.1811  0.4198
 9561SOL     OW29492   3.768   0.065   0.835 -0.1278 -0.5463  0.1748
 9561SOL    HW129493   3.737   0.143   0.789 -0.5112  0.7888  2.5778
 9561SOL    HW229494   3.862   0.061   0.815 -0.0045  0.8271  0.4247
 9562SOL     OW29495   2.648   7.274   2.827 -0.0159 -0.6249  0.5967
 9562SOL    HW129496   2.653   7.369   2.839 -0.5186 -0.6931  1.4048
 9562SOL    HW229497   2.645   7.262   2.732  2.9440  0.0123  0.3300
 9563SOL     OW29498   7.506   4.933   7.367 -0.1472 -0.2853 -0.0043
 9563SOL    HW129499   7.599   4.953   7.374 -0.2712 -0.3032  2.9809
 9563SOL    HW229500   7.502   4.838   7.358  0.1006 -0.3614  0.6893
 9564SOL     OW29501   7.679   7.130   4.482  0.1396  0.4664  0.5160
 9564SOL    HW129502   7.749   7.193   4.500 -1.6595  2.1818  2.0216
 9564SOL    HW229503   7.613   7.181   4.434 -0.3368 -0.9590 -0.4044
 9565SOL     OW29504   6.779   7.100   5.486  0.7241  0.0422 -0.3349
 9565SOL    HW129505   6.856   7.139   5.527  0.7129 -0.4601  0.1811
 9565SOL    HW229506   6.721   7.080   5.560  0.5151 -0.4826 -0.6360
 9566SOL     OW29507   0.700   5.350   5.278 -0.2643  0.3247  0.7868
 9566SOL    HW129508   0.615   5.392   5.269  0.9660  2.8018 -0.3031
 9566SOL    HW229509   0.728   5.372   5.367 -0.3945  0.2436  0.8483
 9567SOL     OW29510   4.689   0.305   2.513 -0.7159 -0.2155  0.4653
 9567SOL    HW129511   4.762   0.251   2.482  0.4091  0.2982  2.0581
 9567SOL    HW229512   4.640   0.328   2.434  0.2869 -1.3806 -0.5368
 9568SOL     OW29513   1.689   4.519   0.214  0.0020 -0.0155  0.4281
 9568SOL    HW129514   1.680   4.476   0.129 -1.1542 -1.2855  1.1489
 9568SOL    HW229515   1.602   4.557   0.231 -0.0132 -0.4453  1.3748
 9569SOL     OW29516   6.285   4.385   7.010 -0.5214 -0.1414 -0.3658
 9569SOL    HW129517   6.376   4.372   6.981  1.0073  2.5072  2.5819
 9569SOL    HW229518   6.248   4.443   6.943  0.5704  0.2110 -0.6970
 9570SOL     OW29519   6.587   0.280   1.753 -0.0715 -0.1398  0.0486
 9570SOL    HW129520   6.611   0.372   1.740 -0.3290 -0.0360  0.2702
 9570SOL    HW229521   6.658   0.230   1.713  0.8706  0.1513  1.2812
 9571SOL     OW29522   7.030   7.311   0.852  0.2048 -0.1899 -0.2906
 9571SOL    HW129523   6.964   7.324   0.920 -0.9230  0.4016 -1.4678
 9571SOL    HW229524   7.070   7.397   0.840 -0.1944 -0.0923 -0.9595
 9572SOL     OW29525   3.553   7.849   4.368  0.5273  1.0270  0.0685
 9572SOL    HW129526   3.491   7.776   4.367  0.5634  0.9973  0.0186
 9572SOL    HW229527   3.522   7.905   4.439  0.1482  1.2697 -0.2866
 9573SOL     OW29528   5.625   2.693   3.892  0.2228  0.2951 -0.3859
 9573SOL    HW129529   5.698   2.755   3.901 -0.4518  1.0435  0.0870
 9573SOL    HW229530   5.651   2.635   3.821  1.2654  0.5740 -0.2485
 9574SOL     OW29531   2.351   1.463   5.806 -0.0724  0.3409 -0.3972
 9574SOL    HW129532   2.429   1.408   5.797 -1.1450 -0.9047 -3.2837
 9574SOL    HW229533   2.296   1.417   5.868  1.2058  0.9772  1.2831
 9575SOL     OW29534   6.827   7.955   1.439  0.0556 -0.5653 -0.2020
 9575SOL    HW129535   6.918   7.983   1.430 -0.3496  0.4886 -1.4514
 9575SOL    HW229536   6.830   7.860   1.443  1.0785 -0.7116 -2.7935
 9576SOL     OW29537   0.490   1.966   7.372  0.4366  0.3809  0.4671
 9576SOL    HW129538   0.511   2.059   7.384  0.8227  0.5258 -1.1455
 9576SOL    HW229539   0.473   1.957   7.278 -0.9579 -0.9185  0.8019
 9577SOL     OW29540   4.874   5.300   6.309  0.3750 -0.1482  0.3578
 9577SOL    HW129541   4.830   5.302   6.224 -1.3752 -1.0373  1.1810
 9577SOL    HW229542   4.834   5.371   6.359  1.2532  0.2491  0.5214
 9578SOL     OW29543   6.709   4.985   7.589 -0.1837 -0.7704 -0.6547
 9578SOL    HW129544   6.643   4.999   7.657  0.7452  0.8735 -0.0400
 9578SOL    HW229545   6.765   4.916   7.624  1.2371  1.1233  1.0754
 9579SOL     OW29546   7.931   5.500   4.920  0.0754  0.1118 -0.1573
 9579SOL    HW129547   7.892   5.538   4.841 -0.1469  1.8469  0.7395
 9579SOL    HW229548   8.014   5.546   4.930 -0.5563  0.9695  1.4054
 9580SOL     OW29549   4.150   4.727   5.196  0.9576 -1.0231 -0.0341
 9580SOL    HW129550   4.147   4.686   5.110 -0.0129 -0.5531 -0.2454
 9580SOL    HW229551   4.243   4.740   5.214  1.1588  0.7585 -1.9492
 9581SOL     OW29552   0.199   4.513   5.783  0.4578  0.1272  0.6273
 9581SOL    HW129553   0.266   4.446   5.769  0.2210 -0.3919  1.8785
 9581SOL    HW229554   0.200   4.564   5.702  0.3328 -1.6332 -0.5415
 9582SOL     OW29555   6.084   7.848   1.095  0.0153 -0.5486  0.7251
 9582SOL    HW129556   6.146   7.873   1.026  0.1008 -1.9254  0.2834
 9582SOL    HW229557   6.025   7.924   1.102  0.6158  0.0180 -0.1554
 9583SOL     OW29558   4.139   7.668   6.417 -0.1700  0.1597  0.0451
 9583SOL    HW129559   4.181   7.682   6.502 -2.6860  1.3394  1.1794
 9583SOL    HW229560   4.212   7.645   6.359  1.7012 -0.2643  2.3756
 9584SOL     OW29561   7.945   3.771   3.322 -0.4532  0.0615 -0.2503
 9584SOL    HW129562   7.941   3.862   3.353 -1.9629  0.4274 -1.4144
 9584SOL    HW229563   7.943   3.777   3.227  1.7253 -1.1441 -0.4409
 9585SOL     OW29564   7.358   7.259   6.999 -0.4053  0.3958  0.7923
 9585SOL    HW129565   7.354   7.163   6.994  0.2174  0.4329 -1.0776
 9585SOL    HW229566   7.433   7.276   7.057 -0.1551 -0.2664  0.6762
 9586SOL     OW29567   5.573   2.663   6.331  0.3277 -0.1462  0.2795
 9586SOL    HW129568   5.613   2.688   6.248 -0.2420 -1.1580 -0.3245
 9586SOL    HW229569   5.647   2.653   6.392  0.8384 -0.3544 -0.3696
 9587SOL     OW29570   7.135   7.602   4.804 -0.2175 -0.1516 -0.1156
 9587SOL    HW129571   7.053   7.647   4.787  0.0487  0.9831  1.3440
 9587SOL    HW229572   7.111   7.525   4.855 -0.5313 -0.8219 -1.2621
 9588SOL     OW29573   1.995   0.967   2.401 -0.0872 -0.2197 -0.4522
 9588SOL    HW129574   1.962   0.880   2.379 -0.8131 -0.0183 -0.2001
 9588SOL    HW229575   2.087   0.953   2.425 -0.1885 -0.9088 -0.4500
 9589SOL     OW29576   6.563   7.641   7.876 -0.2260  0.1827 -0.1427
 9589SOL    HW129577   6.509   7.564   7.860  0.4788 -0.0225 -1.7233
 9589SOL    HW229578   6.651   7.607   7.888 -0.0442  0.6932  0.0298
 9590SOL     OW29579   5.302   5.098   2.540  0.2949 -0.1221  0.4972
 9590SOL    HW129580   5.244   5.063   2.472 -3.9063  1.7011  2.7623
 9590SOL    HW229581   5.374   5.139   2.492 -1.7581 -0.0377 -2.7783
 9591SOL     OW29582   3.578   6.876   7.171 -0.0547  0.5053  0.0330
 9591SOL    HW129583   3.586   6.911   7.259 -0.1270  1.0531 -0.1726
 9591SOL    HW229584   3.501   6.919   7.134  0.1064  0.4586 -0.3744
 9592SOL     OW29585   6.294   4.236   4.771 -0.1239 -0.0657 -0.2291
 9592SOL    HW129586   6.380   4.232   4.812 -0.1854  0.6465 -0.0203
 9592SOL    HW229587   6.303   4.301   4.701  0.0938 -1.5511 -1.6505
 9593SOL     OW29588   5.037   1.800   2.703 -0.2614 -0.6870  0.6675
 9593SOL    HW129589   5.076   1.783   2.789 -1.1001 -1.3891  0.9264
 9593SOL    HW229590   4.945   1.777   2.714 -0.3557 -0.8794 -0.4441
 9594SOL     OW29591   7.589   3.528   7.117  0.6052  0.2563 -0.2641
 9594SOL    HW129592   7.653   3.521   7.046  1.2828 -0.3010  0.3847
 9594SOL    HW229593   7.623   3.597   7.174  0.8566 -0.3106  0.2905
 9595SOL     OW29594   1.198   5.516   6.993 -0.0389  0.2790  0.4828
 9595SOL    HW129595   1.140   5.579   6.950  0.5074  0.9289  0.6923
 9595SOL    HW229596   1.279   5.564   7.009  1.2625 -1.1020 -1.4639
 9596SOL     OW29597   2.193   1.208   0.758  0.4249  0.0639  0.8907
 9596SOL    HW129598   2.210   1.241   0.670 -2.8147 -0.5194 -0.0722
 9596SOL    HW229599   2.219   1.280   0.816  2.3105  0.5827 -0.4873
 9597SOL     OW29600   4.828   4.194   0.863  0.1589  0.0847 -0.1161
 9597SOL    HW129601   4.733   4.203   0.869  0.0663 -1.6575  2.7693
 9597SOL    HW229602   4.842   4.101   0.843  1.3271  0.8028 -3.2841
 9598SOL     OW29603   3.682   2.824   0.393  0.4429  0.4057  0.5997
 9598SOL    HW129604   3.715   2.752   0.447 -0.6004 -0.4223  0.1798
 9598SOL    HW229605   3.592   2.836   0.422  0.7163  1.8269  0.9244
 9599SOL     OW29606   7.040   3.721   2.588 -0.4749  0.9327 -0.4637
 9599SOL    HW129607   6.981   3.694   2.658  0.3905 -0.2572 -0.1659
 9599SOL    HW229608   7.019   3.813   2.573 -1.8834  0.7278  0.1363
 9600SOL     OW29609   6.360   0.995   2.250  0.0876 -0.1841  0.2943
 9600SOL    HW129610   6.381   0.959   2.336 -0.6505  0.2375  0.6627
 9600SOL    HW229611   6.388   0.928   2.188  0.4337 -0.5819  0.8740
 9601SOL     OW29612   7.351   3.179   1.847 -0.1644  0.5528  0.0096
 9601SOL    HW129613   7.328   3.101   1.898 -1.2340  0.7568 -0.1354
 9601SOL    HW229614   7.442   3.164   1.820 -0.9647 -1.6948 -1.8415
 9602SOL     OW29615   7.613   0.032   3.965  0.1085 -0.1053  0.3171
 9602SOL    HW129616   7.645   0.080   3.888  0.2888 -0.1657  0.3526
 9602SOL    HW229617   7.601  -0.057   3.933 -0.2416 -0.0316  0.2468
 9603SOL     OW29618   5.173   2.265   1.023  0.2400  0.5307 -0.2056
 9603SOL    HW129619   5.263   2.295   1.014  0.4755 -0.4966 -1.6816
 9603SOL    HW229620   5.180   2.179   1.065 -0.0577  0.4673 -0.2799
 9604SOL     OW29621   6.058   7.179   7.166 -0.2518  0.8229 -0.3796
 9604SOL    HW129622   6.146   7.141   7.162 -1.4170 -2.1041 -3.5974
 9604SOL    HW229623   6.063   7.259   7.114  0.4977  0.6947 -0.5065
 9605SOL     OW29624   3.822   7.606   5.129 -0.2519  0.0209  0.4341
 9605SOL    HW129625   3.828   7.649   5.044 -1.5332 -0.7735 -0.0969
 9605SOL    HW229626   3.859   7.669   5.190 -1.9283  1.8814 -0.3250
 9606SOL     OW29627   4.434   5.012   7.467  0.4362  0.2280 -0.1231
 9606SOL    HW129628   4.408   5.099   7.498  0.6066 -0.0460  0.8064
 9606SOL    HW229629   4.351   4.969   7.447  0.3511  0.6082 -0.6151
 9607SOL     OW29630   4.403   2.143   7.524 -0.3105 -0.8374  0.2283
 9607SOL    HW129631   4.373   2.225   7.484 -2.1021 -2.6463 -2.4307
 9607SOL    HW229632   4.494   2.135   7.496 -0.0400  0.3052  0.7053
 9608SOL     OW29633   1.341   4.358   1.993  0.2861  0.1491 -0.2532
 9608SOL    HW129634   1.278   4.429   2.002  0.2013  0.0714 -0.2398
 9608SOL    HW229635   1.338   4.311   2.076 -1.0275 -1.0091 -0.9165
 9609SOL     OW29636   1.076   4.449   7.820  0.6867  0.1460  0.7154
 9609SOL    HW129637   1.069   4.524   7.878 -1.1928  1.0614 -0.5856
 9609SOL    HW229638   1.063   4.373   7.878 -0.3956  0.9831  1.6134
 9610SOL     OW29639   0.104   7.198   5.978  0.7445 -0.4205  0.1133
 9610SOL    HW129640   0.097   7.238   6.065 -0.7375  1.1085 -0.6394
 9610SOL    HW229641   0.079   7.106   5.991  2.5846 -0.7492  1.6169
 9611SOL     OW29642   6.021   4.681   2.261 -0.2917  0.0212  0.1682
 9611SOL    HW129643   5.968   4.649   2.334 -1.1490  0.1995 -0.3776
 9611SOL    HW229644   5.981   4.764   2.237  0.7346  0.5716  0.2843
 9612SOL     OW29645   1.058   4.667   6.395  0.3575  0.0402 -0.3100
 9612SOL    HW129646   1.017   4.738   6.445  1.8690  1.1184 -0.5160
 9612SOL    HW229647   1.078   4.600   6.461 -1.0709 -0.2053 -0.1089
 9613SOL     OW29648   0.228   1.360   5.487  0.7325  0.6386  0.6809
 9613SOL    HW129649   0.291   1.399   5.427 -0.2812  1.4952  0.1437
 9613SOL    HW229650   0.225   1.422   5.561  1.6630 -0.1966  1.4484
 9614SOL     OW29651   3.645   2.789   0.777 -0.7020 -0.5754  0.3679
 9614SOL    HW129652   3.568   2.738   0.753 -1.9617 -0.3636  3.5210
 9614SOL    HW229653   3.700   2.728   0.826  0.2860 -0.1959 -0.2213
 9615SOL     OW29654   6.996   1.439   7.480 -0.3212  0.5410 -0.2649
 9615SOL    HW129655   7.013   1.357   7.433 -1.5377 -0.6804  1.2898
 9615SOL    HW229656   7.068   1.496   7.455  0.6635 -1.0515 -1.2936
 9616SOL     OW29657   1.078   7.730   5.067 -0.1818  0.1820 -0.3020
 9616SOL    HW129658   1.058   7.760   5.156 -1.9035 -1.0212 -0.2434
 9616SOL    HW229659   1.082   7.810   5.015  1.2708  0.9442  0.8947
 9617SOL     OW29660   4.537   5.764   2.308  0.6447 -0.2097  0.2669
 9617SOL    HW129661   4.464   5.814   2.273 -1.0481 -0.6827  2.8534
 9617SOL    HW229662   4.508   5.673   2.304  1.7578 -0.5668 -0.0687
 9618SOL     OW29663   4.103   0.863   2.191 -0.1246  0.5197  0.3103
 9618SOL    HW129664   4.026   0.905   2.230  0.0781 -0.0217  1.3179
 9618SOL    HW229665   4.067   0.787   2.145 -0.2378  0.5207  0.3955
 9619SOL     OW29666   0.991   3.783   6.662  0.1029 -0.7896 -0.1099
 9619SOL    HW129667   0.981   3.871   6.698 -0.4194 -0.8486 -0.0964
 9619SOL    HW229668   0.908   3.766   6.617  0.5769 -0.8990 -0.9521
 9620SOL     OW29669   4.730   6.848   7.426  0.8236  0.3066 -0.0166
 9620SOL    HW129670   4.764   6.931   7.392  0.4578  0.1041 -0.8990
 9620SOL    HW229671   4.807   6.792   7.435  0.9124  0.3224 -0.6371
 9621SOL     OW29672   7.828   7.159   3.249 -0.1054 -0.3611  1.0970
 9621SOL    HW129673   7.742   7.143   3.211  0.9045  0.4692 -1.8261
 9621SOL    HW229674   7.828   7.252   3.271  0.4576  0.0170 -0.3347
 9622SOL     OW29675   6.572   7.177   5.273 -0.7897 -0.3644 -0.0647
 9622SOL    HW129676   6.655   7.172   5.320 -0.4625  0.8360 -0.4890
 9622SOL    HW229677   6.511   7.214   5.336 -0.0250  2.5934 -0.9057
 9623SOL     OW29678   3.091   6.347   3.455 -0.1037 -0.0923 -0.6184
 9623SOL    HW129679   3.075   6.441   3.452 -0.5517 -0.1345  0.1596
 9623SOL    HW229680   3.041   6.316   3.531  1.3524 -0.6972  0.1460
 9624SOL     OW29681   3.613   1.134   5.806 -0.5247 -0.0617  0.2768
 9624SOL    HW129682   3.697   1.088   5.800 -0.4572 -0.1941  1.8233
 9624SOL    HW229683   3.633   1.224   5.780 -0.4031 -0.5892 -1.5876
 9625SOL     OW29684   2.623   3.116   7.914  0.8066 -0.0827  0.0767
 9625SOL    HW129685   2.608   3.206   7.884  0.4305  0.6865  2.3412
 9625SOL    HW229686   2.695   3.123   7.977 -0.2647 -1.0394  1.4953
 9626SOL     OW29687   3.083   5.006   0.766  0.4729  0.3821 -0.3214
 9626SOL    HW129688   3.109   5.068   0.834  0.7394  0.2531 -0.3017
 9626SOL    HW229689   3.147   5.020   0.696  1.0886 -0.4838  0.0444
 9627SOL     OW29690   6.716   7.987   5.560  0.4587  0.7267  0.3210
 9627SOL    HW129691   6.801   7.980   5.517 -0.1790  0.5521 -0.9929
 9627SOL    HW229692   6.659   7.929   5.508 -0.7634  1.8793  0.3257
 9628SOL     OW29693   6.046   4.992   5.615  0.2737 -0.1155 -0.4044
 9628SOL    HW129694   5.981   4.964   5.550  0.0095  0.4859 -0.4090
 9628SOL    HW229695   6.039   5.088   5.615  0.7433 -0.0815  0.0287
 9629SOL     OW29696   2.612   5.330   4.189 -0.4419  0.3476 -0.6437
 9629SOL    HW129697   2.556   5.389   4.138 -2.1028 -0.9048 -0.3717
 9629SOL    HW229698   2.603   5.245   4.145 -0.2877 -0.3000  0.5333
 9630SOL     OW29699   1.470   0.659   4.623  0.4557 -0.1306  0.1853
 9630SOL    HW129700   1.379   0.668   4.596  0.1886 -1.5614  0.5408
 9630SOL    HW229701   1.478   0.719   4.698 -0.8634 -1.6143  1.6232
 9631SOL     OW29702   3.560   7.501   4.940  0.0957  0.8317  0.1824
 9631SOL    HW129703   3.574   7.563   4.868 -0.7505 -0.7783 -1.4242
 9631SOL    HW229704   3.511   7.552   5.006 -1.5393  1.6195 -1.5462
 9632SOL     OW29705   0.735   2.128   2.717  0.4030 -0.0226  0.1079
 9632SOL    HW129706   0.679   2.173   2.781 -0.6021  0.2235 -0.9057
 9632SOL    HW229707   0.772   2.198   2.664  2.5158 -0.1035  1.3535
 9633SOL     OW29708   0.784   5.107   6.954 -0.0686  0.1064  0.2429
 9633SOL    HW129709   0.690   5.111   6.971 -0.1293  0.4445 -0.1588
 9633SOL    HW229710   0.794   5.038   6.889  0.0485 -0.4663  0.8642
 9634SOL     OW29711   0.152   5.578   1.882  0.0512  0.3473  0.4960
 9634SOL    HW129712   0.126   5.605   1.971 -1.4613 -0.1013  0.2250
 9634SOL    HW229713   0.179   5.487   1.891  0.9993  0.6314  0.6694
 9635SOL     OW29714   7.898   4.537   6.626  0.0798  0.0308  0.1586
 9635SOL    HW129715   7.851   4.547   6.544  0.0586 -0.0543  0.1597
 9635SOL    HW229716   7.834   4.559   6.694  0.3228  0.8769  0.1224
 9636SOL     OW29717   3.403   7.906   3.586 -0.4097 -0.5727 -0.5313
 9636SOL    HW129718   3.388   7.991   3.628  0.8881 -0.2983 -0.5796
 9636SOL    HW229719   3.372   7.919   3.496  0.3927  0.0660 -0.7244
 9637SOL     OW29720   3.233   0.851   2.878  0.2917 -0.4050  0.0862
 9637SOL    HW129721   3.285   0.931   2.865  0.6198 -0.5945  0.2378
 9637SOL    HW229722   3.165   0.877   2.941  0.2598 -0.1833 -0.0384
 9638SOL     OW29723   0.157   0.049   4.441 -0.1119 -0.0411  0.1524
 9638SOL    HW129724   0.218  -0.025   4.448  2.7004  1.9923 -1.0666
 9638SOL    HW229725   0.094   0.021   4.375  0.6492 -1.4915 -0.0156
 9639SOL     OW29726   2.309   0.091   0.455  0.0977  0.1971  0.4984
 9639SOL    HW129727   2.328   0.174   0.411  0.0825 -0.4694 -0.8158
 9639SOL    HW229728   2.263   0.039   0.390 -0.1857 -0.7326  1.4114
 9640SOL     OW29729   6.761   6.947   7.668 -0.0231  0.6436  0.5209
 9640SOL    HW129730   6.800   7.034   7.674 -0.4101  0.9418 -0.9121
 9640SOL    HW229731   6.673   6.956   7.703 -1.2309  1.6502 -2.4968
 9641SOL     OW29732   7.532   4.971   6.658 -0.0919  0.0762 -0.0363
 9641SOL    HW129733   7.593   5.045   6.662 -0.9947  0.9136 -1.1276
 9641SOL    HW229734   7.468   4.989   6.727  1.4075 -1.3446  1.8333
 9642SOL     OW29735   7.592   3.558   5.239  0.2282 -0.2999 -0.4434
 9642SOL    HW129736   7.562   3.583   5.151 -0.9785  0.2095  0.0995
 9642SOL    HW229737   7.514   3.525   5.283  0.2022  1.9261  1.3238
 9643SOL     OW29738   0.897   0.736   3.940 -0.0026 -0.2667  0.8535
 9643SOL    HW129739   0.935   0.783   3.866 -0.1797  0.1208  1.0076
 9643SOL    HW229740   0.805   0.763   3.942  0.3520  0.9495  2.1564
 9644SOL     OW29741   2.560   4.780   0.884  0.2320 -0.0239  0.1286
 9644SOL    HW129742   2.541   4.831   0.805 -1.3940  1.4717  1.4085
 9644SOL    HW229743   2.655   4.783   0.892  0.3595  0.6001 -1.2397
 9645SOL     OW29744   1.054   1.963   4.668  0.1971  0.5405 -0.2285
 9645SOL    HW129745   1.091   1.887   4.711 -2.1625 -0.7951 -0.3638
 9645SOL    HW229746   0.995   2.002   4.733  0.3439  1.4620 -0.6211
 9646SOL     OW29747   2.236   1.670   3.557 -0.0667  0.7201  0.2773
 9646SOL    HW129748   2.148   1.693   3.585 -1.3754 -0.6693 -2.2871
 9646SOL    HW229749   2.236   1.687   3.463  1.6322 -1.4434 -0.1965
 9647SOL     OW29750   5.171   3.457   3.010 -0.1977  0.2770 -0.2105
 9647SOL    HW129751   5.085   3.432   3.044  0.4803  0.1047  1.4670
 9647SOL    HW229752   5.214   3.373   2.992  0.0876  0.3285  0.2151
 9648SOL     OW29753   1.549   7.684   4.983  1.3274 -0.1550 -0.0719
 9648SOL    HW129754   1.641   7.689   4.957  1.3468  0.9410  0.1700
 9648SOL    HW229755   1.547   7.619   5.053  1.6095 -1.5576 -1.3159
 9649SOL     OW29756   2.572   2.690   0.368  0.8947 -0.0663  0.4636
 9649SOL    HW129757   2.565   2.765   0.308 -0.5332 -0.4457  0.1115
 9649SOL    HW229758   2.504   2.630   0.338  1.2878 -1.0164  1.4351
 9650SOL     OW29759   7.919   3.241   3.805  0.4708  0.0842  0.4647
 9650SOL    HW129760   8.001   3.246   3.854  0.6412 -0.3977  0.2278
 9650SOL    HW229761   7.854   3.213   3.870  1.1929 -3.3306 -0.1198
 9651SOL     OW29762   4.259   3.327   1.674 -0.1664 -0.1048  0.0544
 9651SOL    HW129763   4.204   3.313   1.597  1.2065  2.3793 -1.5090
 9651SOL    HW229764   4.347   3.342   1.638  0.3423  2.1060  1.9701
 9652SOL     OW29765   3.244   2.502   6.566  0.2772 -0.2060 -0.3240
 9652SOL    HW129766   3.284   2.420   6.595  1.2689 -0.2182 -1.6285
 9652SOL    HW229767   3.298   2.530   6.492 -0.8577  0.9357 -0.7542
 9653SOL     OW29768   4.604   1.198   3.123 -0.3403  0.7250 -0.1596
 9653SOL    HW129769   4.528   1.184   3.066  0.0031  1.9882 -0.9692
 9653SOL    HW229770   4.574   1.170   3.210 -1.5451  0.6588 -0.5765
 9654SOL     OW29771   3.456   2.065   3.479  0.3204 -0.5659 -0.3690
 9654SOL    HW129772   3.532   2.100   3.526  1.1285 -1.7489 -0.7435
 9654SOL    HW229773   3.381   2.102   3.525  1.0804 -1.2466  1.5287
 9655SOL     OW29774   3.760   7.859   7.287  0.1999 -0.1835  0.0832
 9655SOL    HW129775   3.839   7.810   7.312 -0.2425 -0.5589  0.7697
 9655SOL    HW229776   3.698   7.792   7.259 -0.4360 -0.0314  1.0915
 9656SOL     OW29777   5.414   3.326   4.312  0.1188  0.0430  0.0698
 9656SOL    HW129778   5.379   3.273   4.239  0.3157 -1.5451  1.0714
 9656SOL    HW229779   5.392   3.416   4.289 -0.5224 -0.4906 -1.5715
 9657SOL     OW29780   1.725   4.581   7.005 -0.4248 -0.4720  0.1822
 9657SOL    HW129781   1.719   4.668   6.965  1.9268  0.4255  1.5704
 9657SOL    HW229782   1.693   4.593   7.094  1.8298 -0.4492  1.0529
 9658SOL     OW29783   3.884   5.435   2.329  0.7258 -0.5487 -0.0858
 9658SOL    HW129784   3.808   5.387   2.363  0.6110 -0.1029  0.2876
 9658SOL    HW229785   3.858   5.460   2.240  0.2459  0.0259  0.2146
 9659SOL     OW29786   0.042   1.399   3.972 -0.2728  0.0011  0.7754
 9659SOL    HW129787  -0.010   1.351   4.036 -2.6150 -1.5719 -2.0778
 9659SOL    HW229788   0.011   1.368   3.887  2.8204  1.7511 -1.2021
 9660SOL     OW29789   1.396   0.028   1.644 -0.3259  0.7166  0.1507
 9660SOL    HW129790   1.416  -0.010   1.558 -0.0375  2.0295 -0.3825
 9660SOL    HW229791   1.443   0.112   1.645 -0.2664  0.7010  1.6212
 9661SOL     OW29792   6.494   5.312   1.809  0.3574 -0.3138 -0.3471
 9661SOL    HW129793   6.413   5.311   1.860 -0.0504  1.1045 -0.9307
 9661SOL    HW229794   6.550   5.248   1.853 -1.2089 -1.6265 -0.1759
 9662SOL     OW29795   4.556   5.480   1.639 -1.0034  0.4684  0.5193
 9662SOL    HW129796   4.582   5.565   1.605  1.5099  0.3680  1.9794
 9662SOL    HW229797   4.567   5.487   1.733 -2.2152 -1.0247  0.8049
 9663SOL     OW29798   5.423   2.123   6.098  0.2667  0.1718  0.0444
 9663SOL    HW129799   5.415   2.029   6.111  0.2114  0.4248  2.0383
 9663SOL    HW229800   5.498   2.149   6.151  0.9224  1.1319 -1.2696
 9664SOL     OW29801   3.836   7.245   7.585 -0.3232 -0.2723 -0.0288
 9664SOL    HW129802   3.807   7.279   7.669 -0.0686  0.3178 -0.1749
 9664SOL    HW229803   3.756   7.234   7.534 -0.2586  3.3367 -1.1838
 9665SOL     OW29804   5.330   3.007   3.677  0.4354  0.3641 -0.3182
 9665SOL    HW129805   5.259   3.066   3.704  0.3131 -0.2966  0.8812
 9665SOL    HW229806   5.314   2.927   3.727 -0.4416 -1.3981 -3.1896
 9666SOL     OW29807   6.118   2.299   7.063  0.2633 -0.1630  0.1897
 9666SOL    HW129808   6.137   2.265   7.150  1.4590 -2.4527 -0.8858
 9666SOL    HW229809   6.194   2.354   7.041  0.0208  0.3109  0.5231
 9667SOL     OW29810   4.830   6.452   5.715  0.4273 -0.2846  0.2086
 9667SOL    HW129811   4.800   6.367   5.683 -1.5028  0.8687 -1.3304
 9667SOL    HW229812   4.796   6.457   5.805  0.5426 -1.1227  0.3026
 9668SOL     OW29813   1.035   7.826   0.578 -0.4710 -0.5627 -0.1447
 9668SOL    HW129814   0.987   7.792   0.503 -0.2076  1.3150 -1.2162
 9668SOL    HW229815   0.979   7.894   0.614 -0.0324 -0.5819  0.6099
 9669SOL     OW29816   7.422   0.157   6.773  0.2839 -0.1276 -0.1598
 9669SOL    HW129817   7.499   0.121   6.815  0.6087  0.9122  0.1582
 9669SOL    HW229818   7.455   0.227   6.717 -0.5773  1.6530  1.4649
 9670SOL     OW29819   7.688   1.937   4.186  0.5543 -0.6964 -0.5889
 9670SOL    HW129820   7.671   1.954   4.093  0.6161 -0.3358 -0.5341
 9670SOL    HW229821   7.602   1.921   4.223  0.6264 -1.9932 -0.9338
 9671SOL     OW29822   6.918   4.347   0.916 -0.3651 -0.2266 -0.0195
 9671SOL    HW129823   6.860   4.334   0.840  0.5942 -2.4945 -0.4662
 9671SOL    HW229824   7.002   4.309   0.888  0.2978 -0.2156  1.8375
 9672SOL     OW29825   0.023   6.046   5.361  0.0831  0.3698 -1.3792
 9672SOL    HW129826   0.024   6.042   5.265 -0.3639  2.0934 -1.5011
 9672SOL    HW229827  -0.054   5.995   5.386 -0.5481  0.9665 -2.0404
 9673SOL     OW29828   7.962   2.003   6.646 -0.0016 -0.4336  0.5245
 9673SOL    HW129829   8.052   2.036   6.638 -0.6198  1.0985 -0.6410
 9673SOL    HW229830   7.921   2.059   6.712 -0.4104 -0.3812  0.2326
 9674SOL     OW29831   4.306   7.085   4.208  0.1799 -0.1054  0.0827
 9674SOL    HW129832   4.373   7.069   4.141  1.7378 -2.8845  2.1044
 9674SOL    HW229833   4.343   7.154   4.263 -0.3970  1.0538 -0.9311
 9675SOL     OW29834   6.530   4.353   7.836  0.1672  0.4898 -0.5217
 9675SOL    HW129835   6.611   4.310   7.867  0.7462  0.0007 -2.5970
 9675SOL    HW229836   6.560   4.424   7.781 -0.8373  2.5128  1.3813
 9676SOL     OW29837   7.198   1.719   2.103  0.2321 -0.9423  0.4584
 9676SOL    HW129838   7.152   1.710   2.187 -0.5307 -3.8630 -0.1626
 9676SOL    HW229839   7.291   1.724   2.126 -0.0989  3.1943  1.6312
 9677SOL     OW29840   5.205   1.474   7.222 -0.6874 -0.6236 -0.1231
 9677SOL    HW129841   5.294   1.477   7.259 -1.3034  2.0844  1.4115
 9677SOL    HW229842   5.214   1.517   7.137 -0.6464  0.3956  0.3843
 9678SOL     OW29843   6.737   4.714   2.996 -0.1187  0.0600  1.1093
 9678SOL    HW129844   6.691   4.665   3.065 -0.3663  1.4228  1.9591
 9678SOL    HW229845   6.667   4.760   2.950  0.2091  0.6208  1.1631
 9679SOL     OW29846   4.782   6.033   4.407 -0.1347 -0.0139  0.1407
 9679SOL    HW129847   4.749   6.039   4.318  0.8703 -3.0275 -0.5414
 9679SOL    HW229848   4.704   6.035   4.462 -1.0278 -1.2264 -1.0340
 9680SOL     OW29849   2.145   7.300   0.653  0.0862  0.1587  0.2874
 9680SOL    HW129850   2.059   7.317   0.691 -0.0707 -0.0092  0.0116
 9680SOL    HW229851   2.207   7.321   0.723 -0.1676  0.5090  0.4106
 9681SOL     OW29852   3.074   4.179   6.422  0.5579 -0.8732  0.5993
 9681SOL    HW129853   3.136   4.110   6.399 -0.4167 -1.3127 -0.8832
 9681SOL    HW229854   3.117   4.260   6.396  0.4690 -1.1876 -0.6182
 9682SOL     OW29855   7.585   5.102   5.702 -0.5205 -0.1920 -0.5521
 9682SOL    HW129856   7.676   5.127   5.716 -0.7898  0.2197  0.6350
 9682SOL    HW229857   7.547   5.101   5.790 -1.2237 -2.0959 -0.8263
 9683SOL     OW29858   2.151   0.662   7.433  0.3399  0.0216 -0.4565
 9683SOL    HW129859   2.126   0.650   7.525  0.1975  1.9727 -0.1857
 9683SOL    HW229860   2.088   0.610   7.384 -0.3326 -0.1006  0.5084
 9684SOL     OW29861   5.421   7.107   4.426  0.1024 -0.3610  0.6939
 9684SOL    HW129862   5.417   7.172   4.496  0.0465 -0.6300  0.9368
 9684SOL    HW229863   5.341   7.121   4.376 -0.9533 -1.6472  1.9754
 9685SOL     OW29864   4.426   3.539   4.542  0.5255 -0.1742 -0.0019
 9685SOL    HW129865   4.411   3.547   4.637 -0.2213 -2.1874  0.0964
 9685SOL    HW229866   4.425   3.629   4.510  1.7235  0.6381  2.0221
 9686SOL     OW29867   0.206   0.771   0.056  0.5918  0.1278 -0.0197
 9686SOL    HW129868   0.250   0.823  -0.011  0.7909 -1.9515 -1.6204
 9686SOL    HW229869   0.115   0.802   0.055 -0.0051 -1.3588 -3.0150
 9687SOL     OW29870   2.643   6.076   2.802 -0.4591 -0.5961 -0.0187
 9687SOL    HW129871   2.607   6.124   2.877 -1.3647 -1.0875 -0.1326
 9687SOL    HW229872   2.687   6.143   2.750  0.1246 -0.2357  0.9094
 9688SOL     OW29873   1.870   0.976   5.630  0.2750  0.4847  0.1761
 9688SOL    HW129874   1.827   1.044   5.578  1.2644  0.7844 -0.2842
 9688SOL    HW229875   1.958   0.970   5.593  0.0183 -1.5327 -0.2399
 9689SOL     OW29876   4.717   7.748   3.190 -0.5535 -0.3999 -0.0949
 9689SOL    HW129877   4.654   7.770   3.259  2.0631  0.8724  2.0593
 9689SOL    HW229878   4.701   7.813   3.121 -1.1034  0.3824  0.7433
 9690SOL     OW29879   7.605   2.495   5.360  0.4529 -0.1366 -0.4849
 9690SOL    HW129880   7.653   2.414   5.380  0.0979 -0.5599 -1.3279
 9690SOL    HW229881   7.652   2.533   5.286  1.2145  0.9653  0.5145
 9691SOL     OW29882   3.497   1.134   6.054 -0.5568  0.2229 -0.4288
 9691SOL    HW129883   3.477   1.225   6.033 -0.7797  0.1083 -0.7167
 9691SOL    HW229884   3.520   1.094   5.970 -0.1526  0.0903 -0.2579
 9692SOL     OW29885   7.150   3.416   7.340 -0.2639  0.1763 -0.0450
 9692SOL    HW129886   7.229   3.408   7.286  1.4246 -0.7591  2.3588
 9692SOL    HW229887   7.158   3.501   7.383 -0.4840  0.0181  0.3161
 9693SOL     OW29888   7.672   1.094   3.359 -0.3132 -0.4723  0.2587
 9693SOL    HW129889   7.712   1.153   3.424 -2.2656 -0.5695  1.6598
 9693SOL    HW229890   7.610   1.150   3.312 -0.1038 -0.7869 -0.3968
 9694SOL     OW29891   7.400   0.587   4.710  0.0686 -0.5805  0.1327
 9694SOL    HW129892   7.338   0.641   4.661  0.7465 -0.0832 -0.2004
 9694SOL    HW229893   7.376   0.599   4.802 -2.2379 -2.7647 -0.0637
 9695SOL     OW29894   2.413   7.256   0.459  0.2855 -0.6737  0.1233
 9695SOL    HW129895   2.369   7.201   0.394 -0.1554 -0.2508  0.0591
 9695SOL    HW229896   2.350   7.326   0.478  0.5371 -0.6188  0.7720
 9696SOL     OW29897   6.443   4.904   3.531 -0.3261 -0.4866 -0.1516
 9696SOL    HW129898   6.533   4.887   3.557 -0.6433 -0.6262  0.9197
 9696SOL    HW229899   6.441   4.886   3.437  0.4576 -1.7321  0.0423
 9697SOL     OW29900   5.436   3.808   4.150  0.6970  0.0481  0.2984
 9697SOL    HW129901   5.475   3.855   4.076 -1.2025  1.1042 -0.0936
 9697SOL    HW229902   5.382   3.874   4.195 -1.0371 -1.4142  0.4915
 9698SOL     OW29903   4.060   5.518   4.808 -0.2158  0.0075 -0.0954
 9698SOL    HW129904   4.085   5.600   4.850  2.0925 -0.3044 -0.7133
 9698SOL    HW229905   4.114   5.452   4.851 -1.4340 -1.0874 -0.1833
 9699SOL     OW29906   0.704   0.755   4.465  0.0305 -0.2752 -0.2763
 9699SOL    HW129907   0.668   0.833   4.507  0.0970 -0.2993 -0.1714
 9699SOL    HW229908   0.679   0.683   4.523 -2.3753 -0.7164 -1.7294
 9700SOL     OW29909   4.070   2.301   3.917 -0.2386 -0.3497 -0.0437
 9700SOL    HW129910   4.127   2.377   3.908  1.4304 -1.5720 -0.2390
 9700SOL    HW229911   4.127   2.225   3.904 -1.9042 -1.6572 -0.2248
 9701SOL     OW29912   7.827   0.138   2.262  0.3474  0.6961  0.2163
 9701SOL    HW129913   7.919   0.121   2.278  1.2067  2.2233 -2.4370
 9701SOL    HW229914   7.796   0.061   2.215  0.7882  0.9325 -0.4794
 9702SOL     OW29915   6.222   3.590   5.964 -0.3851  0.0312  0.3417
 9702SOL    HW129916   6.287   3.647   5.924  0.1046 -0.1996  0.8068
 9702SOL    HW229917   6.191   3.534   5.892  0.3139 -0.2199  0.2340
 9703SOL     OW29918   7.121   2.187   2.013  0.0530 -0.5558  0.1195
 9703SOL    HW129919   7.046   2.153   1.964  0.4488  0.4237 -1.2387
 9703SOL    HW229920   7.088   2.199   2.102 -2.1333  1.8902 -0.8850
 9704SOL     OW29921   0.956   7.548   6.603  0.6908 -0.1563  0.0997
 9704SOL    HW129922   0.973   7.638   6.577 -1.6793  0.5846  0.8322
 9704SOL    HW229923   1.028   7.525   6.661  1.8584  0.8936 -0.8889
 9705SOL     OW29924   7.020   1.515   1.978  0.1988  0.0310  0.1060
 9705SOL    HW129925   7.064   1.591   2.016 -0.5565  2.4143 -3.3412
 9705SOL    HW229926   6.928   1.527   1.999  0.2760 -1.0109  1.1333
 9706SOL     OW29927   0.189   5.262   4.688  0.1645 -0.3036 -0.1801
 9706SOL    HW129928   0.186   5.299   4.601 -2.2645 -0.5027 -0.2681
 9706SOL    HW229929   0.278   5.277   4.719  0.4197  1.8315 -1.7850
 9707SOL     OW29930   2.567   1.351   4.325 -0.5436  0.5214  0.1720
 9707SOL    HW129931   2.494   1.309   4.369 -0.0439  0.7452  1.2377
 9707SOL    HW229932   2.548   1.341   4.232 -2.2799  1.1881  0.4178
 9708SOL     OW29933   6.297   7.864   4.507 -0.0254 -0.0227  0.3424
 9708SOL    HW129934   6.354   7.890   4.579  0.4482  0.8117 -0.3150
 9708SOL    HW229935   6.253   7.945   4.481 -0.6445 -0.4340  0.0859
 9709SOL     OW29936   2.046   6.339   1.339  0.0693 -0.4298 -0.1344
 9709SOL    HW129937   2.031   6.376   1.253 -1.1895  0.4406  0.4355
 9709SOL    HW229938   2.140   6.350   1.354  0.3154 -0.6512 -1.3966
 9710SOL     OW29939   0.684   6.918   1.559 -0.3538 -0.1286 -0.8536
 9710SOL    HW129940   0.684   6.967   1.641 -1.7244 -0.3590 -0.6963
 9710SOL    HW229941   0.751   6.961   1.506  1.7267 -0.9558  0.9344
 9711SOL     OW29942   6.396   5.607   7.713  0.4811 -0.3082  0.5441
 9711SOL    HW129943   6.459   5.652   7.770  1.0912  0.3582 -0.6240
 9711SOL    HW229944   6.418   5.637   7.625 -1.5774  0.0411  0.1076
 9712SOL     OW29945   5.274   2.149   3.503 -0.1400 -0.3759  0.0799
 9712SOL    HW129946   5.202   2.171   3.562 -3.0079 -0.4043 -3.1491
 9712SOL    HW229947   5.336   2.102   3.559 -2.6597 -0.5622  3.0134
 9713SOL     OW29948   1.674   6.645   7.223  0.0618 -0.0100  0.4171
 9713SOL    HW129949   1.580   6.641   7.208  0.0562  0.0822  0.4223
 9713SOL    HW229950   1.702   6.723   7.176  0.3571 -0.7841 -0.7124
 9714SOL     OW29951   5.260   1.965   2.031 -0.5456  0.1126  0.4292
 9714SOL    HW129952   5.198   1.997   2.096 -1.6899  0.9865 -1.0197
 9714SOL    HW229953   5.207   1.912   1.971 -0.0296  1.1872 -1.0553
 9715SOL     OW29954   7.981   0.776   7.022 -0.6665 -0.1406  0.4486
 9715SOL    HW129955   7.967   0.847   7.084 -0.1584  0.7759 -0.4683
 9715SOL    HW229956   8.071   0.786   6.992 -1.2752  0.2377 -1.3965
 9716SOL     OW29957   2.625   0.397   5.361  0.3133  0.2387 -0.2881
 9716SOL    HW129958   2.613   0.386   5.266  0.0738 -1.0218 -0.1375
 9716SOL    HW229959   2.563   0.334   5.399  1.1730 -0.0302  0.6831
 9717SOL     OW29960   4.503   4.255   6.736 -0.1812  0.3427 -0.1860
 9717SOL    HW129961   4.556   4.263   6.815 -0.2181 -0.7370 -0.0361
 9717SOL    HW229962   4.413   4.263   6.766 -0.1355  3.0197 -0.5503
 9718SOL     OW29963   4.646   5.872   7.810 -0.8764  0.2871  0.3422
 9718SOL    HW129964   4.619   5.832   7.893  1.2640 -1.4959  0.2737
 9718SOL    HW229965   4.581   5.842   7.747 -1.5146  0.1820  1.0342
 9719SOL     OW29966   7.889   0.118   5.520 -0.1889 -0.3467  0.5071
 9719SOL    HW129967   7.953   0.103   5.589 -1.5785  1.6227  2.4028
 9719SOL    HW229968   7.811   0.070   5.548 -1.0584  1.1775  0.8699
 9720SOL     OW29969   6.797   6.948   0.850 -0.1127 -0.3000 -0.0119
 9720SOL    HW129970   6.839   6.976   0.931 -0.4201 -0.2326  0.1251
 9720SOL    HW229971   6.868   6.911   0.797 -0.1373 -1.5611  0.8139
 9721SOL     OW29972   0.055   4.206   3.505 -0.2370 -0.1676  0.6360
 9721SOL    HW129973  -0.030   4.168   3.480  0.9238 -0.7585 -3.0299
 9721SOL    HW229974   0.119   4.139   3.479  1.5331  1.7799 -0.2397
 9722SOL     OW29975   5.525   2.355   1.921 -0.3808 -0.0733  0.5221
 9722SOL    HW129976   5.555   2.292   1.855 -0.5549 -0.7444  1.0786
 9722SOL    HW229977   5.479   2.422   1.870  0.0726 -0.2318 -0.1074
 9723SOL     OW29978   1.048   2.356   2.809  0.2655  0.2161 -0.6808
 9723SOL    HW129979   1.058   2.323   2.720 -1.0094 -0.4495 -0.6015
 9723SOL    HW229980   0.984   2.297   2.850 -0.2318  1.3486  0.2328
 9724SOL     OW29981   5.369   5.721   2.864 -0.6210 -0.0740 -0.5704
 9724SOL    HW129982   5.291   5.701   2.812 -0.9925 -0.1013  0.0005
 9724SOL    HW229983   5.401   5.635   2.894 -0.4810 -0.0472 -0.6405
 9725SOL     OW29984   7.380   7.398   2.731 -0.5683 -0.2075  0.9717
 9725SOL    HW129985   7.352   7.446   2.809 -1.2659  0.5836  0.2634
 9725SOL    HW229986   7.451   7.450   2.694 -1.0515  0.0768  0.4241
 9726SOL     OW29987   7.236   0.656   1.138 -0.1067 -0.3587 -0.8284
 9726SOL    HW129988   7.210   0.707   1.214 -0.5923 -0.2131 -1.0918
 9726SOL    HW229989   7.295   0.715   1.089 -0.5809 -0.0811 -1.0761
 9727SOL     OW29990   2.047   2.504   1.055 -0.0064  0.3771 -0.0127
 9727SOL    HW129991   2.115   2.572   1.058  0.2371  0.3015 -2.2726
 9727SOL    HW229992   1.967   2.551   1.034  0.0440  0.0912 -0.9258
 9728SOL     OW29993   6.831   0.575   7.550  0.5603 -0.0366 -0.1774
 9728SOL    HW129994   6.922   0.584   7.522  0.7801 -0.5302  0.3685
 9728SOL    HW229995   6.786   0.651   7.511  1.8817  2.2045  2.3211
 9729SOL     OW29996   2.296   7.434   3.849  0.4932 -0.4044 -0.2639
 9729SOL    HW129997   2.259   7.518   3.820 -0.1286 -0.9868 -1.1989
 9729SOL    HW229998   2.224   7.372   3.840  1.5423 -1.4667 -1.6672
 9730SOL     OW29999   6.584   3.774   3.658  0.2738 -0.2103  0.3054
 9730SOL    HW130000   6.524   3.727   3.600  1.9593 -0.7767 -1.0766
 9730SOL    HW230001   6.607   3.710   3.726  0.4725 -0.4928 -0.0271
 9731SOL     OW30002   4.921   2.195   4.395  0.1649 -0.2373  0.2075
 9731SOL    HW130003   4.896   2.103   4.388  0.5544 -0.8225  3.9746
 9731SOL    HW230004   5.003   2.201   4.346  0.8571 -2.3091  0.9677
 9732SOL     OW30005   1.716   3.535   4.463 -0.2282 -0.4529 -0.0442
 9732SOL    HW130006   1.756   3.620   4.479 -0.5865 -0.0456 -1.2418
 9732SOL    HW230007   1.783   3.471   4.489  0.8785  0.2015 -1.2107
 9733SOL     OW30008   3.980   1.730   0.594  0.6964  0.0739  0.0767
 9733SOL    HW130009   4.048   1.672   0.560  1.0458  0.5918 -0.1195
 9733SOL    HW230010   4.010   1.818   0.571  1.2063  0.4846  2.1599
 9734SOL     OW30011   5.965   5.707   5.632  0.4287  0.0508 -0.3386
 9734SOL    HW130012   5.903   5.673   5.569  1.5530 -1.0286 -0.8854
 9734SOL    HW230013   6.038   5.739   5.580  0.9009  0.1437  0.3591
 9735SOL     OW30014   3.117   1.502   6.108  0.4466 -0.2069  0.4866
 9735SOL    HW130015   3.104   1.541   6.194 -0.1727  0.6907  0.0075
 9735SOL    HW230016   3.033   1.516   6.063  1.1957  0.5524 -0.7247
 9736SOL     OW30017   5.494   3.560   6.118  0.5527 -0.2012  0.2481
 9736SOL    HW130018   5.472   3.652   6.131 -0.5316 -0.4469  0.2039
 9736SOL    HW230019   5.410   3.516   6.111  0.9796 -0.7248 -3.1866
 9737SOL     OW30020   2.021   1.908   1.639 -0.0347  0.5232 -0.0777
 9737SOL    HW130021   2.001   1.883   1.549 -1.4467  1.2660 -0.0107
 9737SOL    HW230022   2.116   1.915   1.642 -0.0276  2.8957 -2.2122
 9738SOL     OW30023   4.406   6.560   6.826  0.3183 -0.6174 -0.6732
 9738SOL    HW130024   4.338   6.493   6.815  0.9249 -1.1139 -1.6096
 9738SOL    HW230025   4.479   6.513   6.867  0.2543 -0.1892 -0.0629
 9739SOL     OW30026   5.890   4.615   7.602  0.4541  0.5313  0.1278
 9739SOL    HW130027   5.869   4.563   7.680  0.3608  0.3287 -0.0326
 9739SOL    HW230028   5.853   4.701   7.620  3.1632  1.4685  1.6949
 9740SOL     OW30029   7.433   2.215   1.220 -0.6407 -0.3754  0.0428
 9740SOL    HW130030   7.452   2.139   1.275 -2.6472 -0.5630  0.5542
 9740SOL    HW230031   7.348   2.246   1.250 -0.1057  1.7974 -0.5055
 9741SOL     OW30032   7.543   2.522   3.655  0.1480 -0.2039  0.6442
 9741SOL    HW130033   7.501   2.437   3.652 -1.8512  0.7265  0.5439
 9741SOL    HW230034   7.505   2.565   3.731 -1.1367  1.6282 -0.9157
 9742SOL     OW30035   6.584   7.454   1.044 -0.4531 -0.4127 -0.0861
 9742SOL    HW130036   6.534   7.495   0.974  1.0617 -0.3659 -1.1786
 9742SOL    HW230037   6.564   7.507   1.122 -0.3465  0.9841 -0.9782
 9743SOL     OW30038   1.071   7.892   4.013 -0.3999  0.5855  0.3791
 9743SOL    HW130039   1.008   7.964   4.008 -0.1159  0.8309  0.4005
 9743SOL    HW230040   1.039   7.829   3.947 -1.0050  0.4426  0.8012
 9744SOL     OW30041   6.813   0.897   2.902 -0.0638  0.5835 -0.5459
 9744SOL    HW130042   6.788   0.828   2.963  1.2162 -0.5961 -1.2952
 9744SOL    HW230043   6.845   0.850   2.825  0.6094  2.0253 -1.1791
 9745SOL     OW30044   3.623   5.196   5.701 -0.2219  0.3718 -0.1815
 9745SOL    HW130045   3.595   5.287   5.706 -1.7346  0.1681 -2.7694
 9745SOL    HW230046   3.564   5.150   5.760  0.2671  0.9891  0.8090
 9746SOL     OW30047   1.769   0.625   1.152  0.2990  0.0932 -0.4995
 9746SOL    HW130048   1.713   0.559   1.111  0.0373 -0.7247  1.0948
 9746SOL    HW230049   1.858   0.591   1.141  0.1405 -0.7659  0.6481
 9747SOL     OW30050   1.295   0.744   2.543  0.2559  0.2803 -0.5004
 9747SOL    HW130051   1.245   0.672   2.505  1.6457 -1.3100  0.5038
 9747SOL    HW230052   1.306   0.719   2.635 -0.3440  2.4535  0.2256
 9748SOL     OW30053   2.149   2.233   1.515 -0.0712 -0.3756 -0.2859
 9748SOL    HW130054   2.165   2.138   1.509  0.3364 -0.3423  0.1440
 9748SOL    HW230055   2.119   2.258   1.428  2.0960 -0.4918 -1.1224
 9749SOL     OW30056   3.955   6.873   0.606 -0.3014  0.3737 -0.3765
 9749SOL    HW130057   3.954   6.966   0.585  1.2418  0.6114  0.4746
 9749SOL    HW230058   3.997   6.832   0.530 -1.1321  0.3270 -0.8259
 9750SOL     OW30059   5.079   3.143   3.711  0.1089 -0.3491 -0.1403
 9750SOL    HW130060   5.041   3.202   3.646 -0.7179  0.9425  1.4560
 9750SOL    HW230061   5.109   3.201   3.781  0.5692 -1.7407  0.8492
 9751SOL     OW30062   1.157   3.513   5.095  1.0950 -0.1599  0.0564
 9751SOL    HW130063   1.233   3.560   5.129  2.1356 -0.4296 -1.7587
 9751SOL    HW230064   1.086   3.577   5.097  1.7397  0.5540  0.4125
 9752SOL     OW30065   4.474   3.828   5.980 -0.1272 -0.3863 -0.3505
 9752SOL    HW130066   4.389   3.786   5.993  0.0849 -1.3187 -1.7362
 9752SOL    HW230067   4.485   3.884   6.057 -2.5369  0.7102 -0.7089
 9753SOL     OW30068   1.398   3.358   7.564  0.3762  0.1435  0.5538
 9753SOL    HW130069   1.415   3.297   7.636  0.9951  1.6170  1.7305
 9753SOL    HW230070   1.444   3.321   7.489  1.8957 -0.1824  1.5903
 9754SOL     OW30071   3.937   3.838   5.653 -0.1415  0.3142 -0.2528
 9754SOL    HW130072   3.971   3.870   5.737 -0.8164  1.2322 -0.3160
 9754SOL    HW230073   3.957   3.908   5.591 -2.0368  0.8663 -0.3132
 9755SOL     OW30074   2.505   4.916   2.386 -0.0607  0.1779 -0.3300
 9755SOL    HW130075   2.413   4.903   2.407 -0.2487  1.6471 -0.0973
 9755SOL    HW230076   2.514   4.885   2.296 -0.4946 -1.0624  0.0313
 9756SOL     OW30077   4.689   3.254   4.011  0.0475 -0.2065 -0.4680
 9756SOL    HW130078   4.638   3.190   3.961 -0.8599 -0.5387  0.8080
 9756SOL    HW230079   4.743   3.299   3.946  0.8370 -2.3606 -1.4135
 9757SOL     OW30080   4.422   7.769   5.100  0.1145  0.0248 -0.2024
 9757SOL    HW130081   4.371   7.708   5.047 -1.5021  0.5166  0.7148
 9757SOL    HW230082   4.364   7.792   5.172  0.6377  2.6968 -0.5422
 9758SOL     OW30083   1.445   6.920   3.162 -0.2392  0.4439  0.2831
 9758SOL    HW130084   1.473   6.834   3.130  1.1541  0.4470  1.4059
 9758SOL    HW230085   1.349   6.916   3.160 -0.1971 -0.9871 -0.0803
 9759SOL     OW30086   2.236   6.698   1.769 -0.2828 -0.8663  0.4018
 9759SOL    HW130087   2.270   6.671   1.854  5.2294 -0.6220 -1.3249
 9759SOL    HW230088   2.206   6.616   1.728  1.4686 -1.8241  0.9297
 9760SOL     OW30089   5.855   1.778   2.030  0.6750  0.2132 -0.3195
 9760SOL    HW130090   5.820   1.698   1.989 -2.9172  2.0843 -1.3251
 9760SOL    HW230091   5.852   1.760   2.124  2.2800 -1.6263 -0.5580
 9761SOL     OW30092   7.271   5.002   1.497  0.0644  0.4407  0.3222
 9761SOL    HW130093   7.177   5.012   1.508  0.1504  0.8642  0.7001
 9761SOL    HW230094   7.281   4.941   1.424 -0.5017  0.3088  0.3552
 9762SOL     OW30095   0.544   5.564   2.606 -0.1844 -0.4450 -0.0427
 9762SOL    HW130096   0.635   5.572   2.637 -0.9347  0.3752  2.1756
 9762SOL    HW230097   0.522   5.652   2.574 -0.4855 -0.3558  0.3920
 9763SOL     OW30098   0.914   7.895   1.895 -0.1277  0.2296  0.1665
 9763SOL    HW130099   0.865   7.959   1.946 -0.4722 -0.2805  0.4781
 9763SOL    HW230100   0.893   7.811   1.935  2.4853  0.1330  1.5536
 9764SOL     OW30101   3.362   7.039   4.864 -0.2312 -0.3373  0.0959
 9764SOL    HW130102   3.371   7.129   4.895  1.8541 -0.2890 -0.5329
 9764SOL    HW230103   3.367   7.046   4.768  1.1647 -1.2256  0.0855
 9765SOL     OW30104   1.833   1.859   4.458  0.0061 -0.0686  0.1551
 9765SOL    HW130105   1.839   1.792   4.390 -0.6129 -1.8849  1.8017
 9765SOL    HW230106   1.743   1.890   4.453 -0.3606 -0.9695  0.7809
 9766SOL     OW30107   3.265   7.504   2.259 -0.1388 -0.3034 -0.2842
 9766SOL    HW130108   3.279   7.428   2.316 -3.0382 -0.7980 -0.0332
 9766SOL    HW230109   3.313   7.484   2.179  1.6927 -0.9280  0.9212
 9767SOL     OW30110   5.458   0.217   0.133  0.5113  0.9027 -0.1369
 9767SOL    HW130111   5.366   0.217   0.161  0.9248 -0.3355  1.4132
 9767SOL    HW230112   5.472   0.129   0.098  1.3077  0.7707  0.4769
 9768SOL     OW30113   4.446   3.377   4.097  0.4095 -0.1706  0.2651
 9768SOL    HW130114   4.422   3.425   4.018  0.9227  0.2695  0.3759
 9768SOL    HW230115   4.522   3.325   4.072  1.2492  0.7985  0.7619
 9769SOL     OW30116   3.197   6.725   4.135 -0.0781  0.5465 -0.0171
 9769SOL    HW130117   3.110   6.724   4.176 -0.1692  1.2635 -0.1903
 9769SOL    HW230118   3.257   6.709   4.207 -0.2824  1.1499  0.2901
 9770SOL     OW30119   3.148   6.706   6.709 -0.0143  0.0274  0.2230
 9770SOL    HW130120   3.153   6.682   6.802 -1.6746  1.8546  0.8603
 9770SOL    HW230121   3.055   6.724   6.694  0.3102  0.3704 -1.6532
 9771SOL     OW30122   3.853   1.778   4.241 -0.8050 -0.4003 -0.1197
 9771SOL    HW130123   3.928   1.790   4.182 -1.2720  0.1822 -0.5998
 9771SOL    HW230124   3.879   1.704   4.296  0.9027  0.9495  0.9777
 9772SOL     OW30125   2.497   0.113   2.039 -0.2767 -0.2697 -0.3296
 9772SOL    HW130126   2.514   0.051   2.111 -0.8951  0.0938  0.1365
 9772SOL    HW230127   2.584   0.148   2.018 -0.0710 -0.4588  0.1665
 9773SOL     OW30128   7.486   7.501   7.642  0.3165 -0.2907 -0.0745
 9773SOL    HW130129   7.447   7.582   7.609 -0.0201  0.6897  2.4589
 9773SOL    HW230130   7.413   7.453   7.681  0.4254 -2.1094 -1.9632
 9774SOL     OW30131   0.892   1.489   1.148 -0.5180 -0.4265 -0.4805
 9774SOL    HW130132   0.857   1.411   1.192  1.2964 -0.3278  1.2597
 9774SOL    HW230133   0.942   1.535   1.215  1.0773  0.5951 -2.2473
 9775SOL     OW30134   2.356   4.454   3.238  0.5929 -0.1095 -0.1703
 9775SOL    HW130135   2.370   4.485   3.148  0.4609  0.9489  0.1634
 9775SOL    HW230136   2.429   4.492   3.287 -0.7567  1.4955  0.6688
 9776SOL     OW30137   6.884   7.753   4.392  0.0070 -0.5242  0.1215
 9776SOL    HW130138   6.890   7.771   4.486  0.3682  0.5435 -0.0897
 9776SOL    HW230139   6.923   7.831   4.351  1.7343 -1.8387 -0.8515
 9777SOL     OW30140   2.711   7.603   2.683 -0.1872  0.5149  0.0522
 9777SOL    HW130141   2.625   7.565   2.669 -0.5578  0.8387  1.3224
 9777SOL    HW230142   2.721   7.607   2.778  1.1401  0.6916 -0.0682
 9778SOL     OW30143   2.379   3.634   1.940 -0.0284  0.4464 -0.2596
 9778SOL    HW130144   2.453   3.680   1.898  3.1401 -2.6461  1.4269
 9778SOL    HW230145   2.378   3.667   2.030 -0.5700  0.3007 -0.2092
 9779SOL     OW30146   3.935   4.614   6.712 -0.5244 -0.1762 -0.6256
 9779SOL    HW130147   3.947   4.700   6.752  0.7390 -1.1828  1.2988
 9779SOL    HW230148   3.927   4.631   6.618 -0.1013  1.9951 -0.2972
 9780SOL     OW30149   6.934   6.622   4.600  0.2485 -0.4221  0.2366
 9780SOL    HW130150   6.926   6.683   4.527 -1.3049  1.0299  1.5441
 9780SOL    HW230151   7.022   6.639   4.636 -0.1002  0.9988  0.4921
 9781SOL     OW30152   7.502   1.830   2.591 -0.5097  0.0433 -0.0196
 9781SOL    HW130153   7.523   1.903   2.648 -1.1724  0.3524 -0.1627
 9781SOL    HW230154   7.414   1.849   2.559  0.1433  0.2792 -1.7706
 9782SOL     OW30155   2.840   0.212   2.224 -0.7249  0.0573  0.3602
 9782SOL    HW130156   2.770   0.209   2.290  0.0137  1.6939  1.2747
 9782SOL    HW230157   2.804   0.267   2.154 -0.2473  1.2134  1.0012
 9783SOL     OW30158   4.064   7.537   7.054  0.1118 -0.3067  0.3300
 9783SOL    HW130159   4.095   7.479   6.984  0.3987 -0.3730  0.5092
 9783SOL    HW230160   4.009   7.481   7.109 -2.8390  0.4727 -1.6059
 9784SOL     OW30161   6.309   5.494   4.358  0.4139  0.6814 -0.7198
 9784SOL    HW130162   6.335   5.404   4.337  1.6835  0.2719  2.1748
 9784SOL    HW230163   6.375   5.525   4.420 -1.4920  2.6437  0.4849
 9785SOL     OW30164   1.135   4.841   3.047 -0.1250 -0.2047 -0.1816
 9785SOL    HW130165   1.111   4.844   3.140 -0.8995  0.0203 -0.3752
 9785SOL    HW230166   1.100   4.922   3.011 -1.0887 -0.9283 -0.9455
 9786SOL     OW30167   0.656   6.079   4.749 -0.0563  0.3393 -0.2607
 9786SOL    HW130168   0.696   6.164   4.770  0.7312 -0.4122  1.4412
 9786SOL    HW230169   0.673   6.025   4.826 -0.3715 -1.4493 -1.4059
 9787SOL     OW30170   2.888   7.820   4.652 -0.0081 -0.1339  0.0496
 9787SOL    HW130171   2.923   7.732   4.661 -0.4258 -0.2667  0.4464
 9787SOL    HW230172   2.860   7.826   4.561 -1.6163 -1.0561  0.4328
 9788SOL     OW30173   2.457   6.301   0.031  0.0355  0.1475  0.3467
 9788SOL    HW130174   2.542   6.332   0.064 -0.1505 -0.5645  1.5467
 9788SOL    HW230175   2.431   6.367  -0.032  1.0955  0.8201  0.5803
 9789SOL     OW30176   7.073   7.562   5.941 -0.4286  0.0664 -0.6158
 9789SOL    HW130177   7.111   7.538   5.857 -0.2260 -2.3595  0.0830
 9789SOL    HW230178   7.147   7.562   6.002 -0.9698 -1.2993  0.0974
 9790SOL     OW30179   3.676   4.150   2.403 -0.0502 -0.7070  0.9050
 9790SOL    HW130180   3.768   4.123   2.403  0.6129  1.3092 -0.6750
 9790SOL    HW230181   3.642   4.120   2.319  0.0969  1.2530  0.0900
 9791SOL     OW30182   2.486   4.991   1.924 -0.0891  0.0163  0.5348
 9791SOL    HW130183   2.545   4.966   1.854 -2.2561 -0.0530 -1.4053
 9791SOL    HW230184   2.533   5.058   1.973  1.6858 -0.2547 -0.7099
 9792SOL     OW30185   4.885   5.024   2.624  0.3768  0.1700  0.3971
 9792SOL    HW130186   4.815   5.069   2.671 -0.9299 -0.2280 -1.1125
 9792SOL    HW230187   4.955   5.015   2.689 -0.3960  1.8557  1.5259
 9793SOL     OW30188   0.399   6.745   1.824 -0.8346 -0.6474 -0.5129
 9793SOL    HW130189   0.408   6.801   1.747 -1.4639 -0.5642 -0.5256
 9793SOL    HW230190   0.469   6.681   1.815  0.2500  0.4470 -0.2222
 9794SOL     OW30191   1.718   7.669   2.490 -0.2332  0.1856  0.0301
 9794SOL    HW130192   1.735   7.711   2.574  0.4659  0.6068 -0.3192
 9794SOL    HW230193   1.622   7.671   2.482 -0.2889  0.3968  0.6828
 9795SOL     OW30194   6.868   6.776   7.900  0.2479  0.3873  0.4488
 9795SOL    HW130195   6.896   6.815   7.816  1.1236  2.4636  1.6245
 9795SOL    HW230196   6.945   6.727   7.930 -0.5255 -1.5409 -0.5569
 9796SOL     OW30197   7.935   4.556   5.166  0.6289  0.0196 -0.4828
 9796SOL    HW130198   7.860   4.578   5.222  0.5116 -0.8621 -0.2861
 9796SOL    HW230199   7.997   4.627   5.181 -0.7741  1.6141 -1.8163
 9797SOL     OW30200   3.629   4.514   7.800 -0.1243 -0.2545 -0.0929
 9797SOL    HW130201   3.641   4.483   7.710 -0.3899  1.5337 -0.7990
 9797SOL    HW230202   3.697   4.469   7.851  1.3249  0.1562 -1.5713
 9798SOL     OW30203   1.726   5.253   1.350  0.1308 -0.5135 -0.0085
 9798SOL    HW130204   1.779   5.185   1.391  1.2476  0.3839  0.0986
 9798SOL    HW230205   1.772   5.273   1.268  0.8063  1.2470  0.7343
 9799SOL     OW30206   2.764   4.903   4.036  0.2745  0.2777  0.1195
 9799SOL    HW130207   2.805   4.942   4.114 -0.1182 -1.3553  1.1775
 9799SOL    HW230208   2.822   4.927   3.964  1.1001  1.0964  1.0271
 9800SOL     OW30209   0.022   1.740   2.995 -0.0303 -0.2949  0.1266
 9800SOL    HW130210   0.064   1.821   2.964 -1.3384  0.6583  0.7531
 9800SOL    HW230211   0.023   1.683   2.918 -1.4795  1.3201 -1.1841
 9801SOL     OW30212   5.880   6.706   3.073 -0.2686 -0.0614  0.1807
 9801SOL    HW130213   5.952   6.715   3.135 -1.2911 -1.5493  1.6764
 9801SOL    HW230214   5.912   6.644   3.007  0.9303  1.7503 -1.0461
 9802SOL     OW30215   3.150   3.451   6.896  0.0625 -0.2679  0.1437
 9802SOL    HW130216   3.118   3.368   6.863  0.3758 -0.9117  1.3995
 9802SOL    HW230217   3.234   3.430   6.937 -0.1427  0.5362  1.0289
 9803SOL     OW30218   4.878   5.926   0.917  0.0441  0.5207  0.0904
 9803SOL    HW130219   4.941   5.993   0.891  1.5071 -0.6947  0.3869
 9803SOL    HW230220   4.805   5.939   0.856  0.8040  1.6042 -0.6516
 9804SOL     OW30221   2.413   4.653   7.129  0.1140  0.3883  0.1159
 9804SOL    HW130222   2.442   4.635   7.218 -0.9743  0.4045  0.4859
 9804SOL    HW230223   2.468   4.598   7.074 -1.2583 -2.0217  1.0074
 9805SOL     OW30224   6.252   0.707   2.413  0.2483  0.2823  0.3166
 9805SOL    HW130225   6.179   0.750   2.370  0.8424  0.4540 -0.5245
 9805SOL    HW230226   6.211   0.658   2.485 -0.8391 -0.5177 -0.7955
 9806SOL     OW30227   4.181   6.370   1.791 -0.3585 -0.4815  0.4356
 9806SOL    HW130228   4.139   6.376   1.705 -0.4308 -1.0326  0.4284
 9806SOL    HW230229   4.132   6.433   1.846  0.3099  0.5841 -0.1633
 9807SOL     OW30230   4.831   0.784   0.625  0.2818  0.2006 -0.6558
 9807SOL    HW130231   4.760   0.816   0.681  0.9557  3.3460 -1.4061
 9807SOL    HW230232   4.897   0.750   0.685 -0.5436  0.1317  0.2254
 9808SOL     OW30233   6.724   4.104   2.534  0.0046  0.0120 -0.5837
 9808SOL    HW130234   6.695   4.111   2.625 -1.6475  0.2888 -1.1109
 9808SOL    HW230235   6.693   4.017   2.506 -0.6090  0.4387 -1.2518
 9809SOL     OW30236   3.023   7.611   2.288  0.0090 -0.3275  0.4848
 9809SOL    HW130237   2.992   7.559   2.362 -1.1059 -3.1522 -1.7658
 9809SOL    HW230238   3.112   7.579   2.272 -0.2056 -0.6400 -0.1181
 9810SOL     OW30239   4.874   6.055   7.580 -0.6810  0.5440  0.2189
 9810SOL    HW130240   4.969   6.061   7.575 -0.7122  1.1715  0.3047
 9810SOL    HW230241   4.855   6.056   7.673 -0.7432 -0.2254  0.2254
 9811SOL     OW30242   7.490   1.626   4.586  0.2325 -0.1461 -0.1291
 9811SOL    HW130243   7.479   1.539   4.624  0.7529 -0.3622 -0.4667
 9811SOL    HW230244   7.571   1.659   4.626 -0.1076  0.2995  0.2092
 9812SOL     OW30245   6.921   7.272   3.766 -0.3899 -0.2735  0.2397
 9812SOL    HW130246   6.930   7.178   3.781  0.8733 -0.5755 -1.9236
 9812SOL    HW230247   7.009   7.307   3.781 -0.8897  0.6285  1.2203
 9813SOL     OW30248   2.165   0.679   5.356  0.3600 -0.4316 -0.0253
 9813SOL    HW130249   2.244   0.640   5.321 -0.5910 -0.9835 -1.7036
 9813SOL    HW230250   2.115   0.606   5.393 -0.8785 -0.7059 -2.0899
 9814SOL     OW30251   3.841   2.963   4.521 -0.3265  0.2431  0.1236
 9814SOL    HW130252   3.903   3.005   4.462 -2.3810  2.0953 -0.8399
 9814SOL    HW230253   3.843   3.017   4.600  0.5326 -0.7296  0.7897
 9815SOL     OW30254   2.620   5.897   6.277  0.2109 -0.2445  0.0931
 9815SOL    HW130255   2.655   5.821   6.323  0.1876  0.5613  1.4980
 9815SOL    HW230256   2.677   5.969   6.302 -1.4469  0.7694  1.1440
 9816SOL     OW30257   3.953   0.457   6.614  0.3527 -0.8406 -0.7067
 9816SOL    HW130258   4.021   0.485   6.675 -0.0890  0.2135 -0.6677
 9816SOL    HW230259   3.874   0.449   6.669  0.3732 -1.7531 -0.8032
 9817SOL     OW30260   6.951   2.189   2.241 -0.1036  0.3513  0.2339
 9817SOL    HW130261   6.886   2.241   2.194 -0.5532 -0.1705  0.2718
 9817SOL    HW230262   6.905   2.155   2.317 -0.2538 -1.2819 -0.5285
 9818SOL     OW30263   1.598   4.960   8.000 -0.0252 -0.1620 -0.0557
 9818SOL    HW130264   1.618   4.934   7.910  1.1923  3.2501 -0.9220
 9818SOL    HW230265   1.503   4.973   8.000 -0.0368 -0.2027 -0.8425
 9819SOL     OW30266   3.691   6.994   6.052 -0.0337  0.6703 -0.4578
 9819SOL    HW130267   3.595   6.986   6.047  0.0490  0.1638 -1.4503
 9819SOL    HW230268   3.715   6.948   6.132 -0.6401  0.9563 -0.1052
 9820SOL     OW30269   0.511   7.272   2.702  0.0922  0.4560 -0.0453
 9820SOL    HW130270   0.580   7.230   2.753  0.2704 -1.8049 -1.9794
 9820SOL    HW230271   0.552   7.350   2.666  0.4295  1.2331  1.8683
 9821SOL     OW30272   4.631   7.374   0.183 -0.0343 -0.4039 -0.1430
 9821SOL    HW130273   4.724   7.356   0.170  0.0193 -0.1778 -0.0674
 9821SOL    HW230274   4.620   7.373   0.278  0.0409  0.3344 -0.1225
 9822SOL     OW30275   2.723   5.995   3.461 -0.0303  0.3307  0.3066
 9822SOL    HW130276   2.756   6.083   3.476  0.7048  0.4929 -1.9113
 9822SOL    HW230277   2.747   5.946   3.540  0.1041  1.9365  1.2973
 9823SOL     OW30278   5.643   5.188   6.646  0.3244 -0.1209  0.6258
 9823SOL    HW130279   5.687   5.129   6.584  1.5134  0.3684  0.9656
 9823SOL    HW230280   5.560   5.146   6.665  0.0377 -0.4171 -1.0997
 9824SOL     OW30281   0.116   1.606   6.340 -0.2136  0.4034 -0.5737
 9824SOL    HW130282   0.051   1.676   6.349  0.3449  0.9045 -0.3632
 9824SOL    HW230283   0.107   1.555   6.420 -0.9205 -0.0326 -0.9198
 9825SOL     OW30284   1.549   7.540   6.424 -0.0820 -0.2940  0.4123
 9825SOL    HW130285   1.465   7.532   6.469 -0.7027 -1.9650 -0.9648
 9825SOL    HW230286   1.578   7.450   6.410  1.0119  0.2264 -0.8520
 9826SOL     OW30287   3.280   0.506   0.002  0.1018 -0.0755 -0.0655
 9826SOL    HW130288   3.330   0.586  -0.016  0.7097 -0.4862 -0.2193
 9826SOL    HW230289   3.191   0.537   0.019  0.5616  0.7343  0.9480
 9827SOL     OW30290   4.634   4.893   5.857  0.5015 -0.2752 -0.1200
 9827SOL    HW130291   4.627   4.820   5.918  0.6744 -1.3025 -1.2791
 9827SOL    HW230292   4.584   4.865   5.780 -0.2256  1.2338 -0.2382
 9828SOL     OW30293   4.762   1.076   2.812  0.5692  0.0708  0.7868
 9828SOL    HW130294   4.704   1.005   2.787 -2.7151  2.3755  1.2845
 9828SOL    HW230295   4.750   1.085   2.907 -0.2484  2.1704  0.5298
 9829SOL     OW30296   2.199   1.983   1.429  0.1282 -0.1435 -0.2521
 9829SOL    HW130297   2.132   1.977   1.361  0.4438  0.3924 -0.6143
 9829SOL    HW230298   2.267   1.921   1.401  0.2994  0.1428 -0.4752
 9830SOL     OW30299   2.784   4.326   7.059 -0.2687  0.1738 -0.7138
 9830SOL    HW130300   2.878   4.344   7.056 -0.0866 -0.5807  0.0699
 9830SOL    HW230301   2.775   4.242   7.014  0.1366 -2.2412  3.2538
 9831SOL     OW30302   4.887   4.705   1.979 -0.0133  0.0898  0.2283
 9831SOL    HW130303   4.831   4.642   1.935 -0.6161 -0.7105  2.0632
 9831SOL    HW230304   4.830   4.749   2.042  1.4785 -1.3225  2.7423
 9832SOL     OW30305   6.024   1.401   2.932  0.7812 -0.3807 -0.7741
 9832SOL    HW130306   6.119   1.404   2.920  0.7152  1.4138 -1.0234
 9832SOL    HW230307   5.998   1.491   2.948 -0.8117 -0.9391  0.0609
 9833SOL     OW30308   1.776   7.820   2.726 -0.0764  0.1883  0.1549
 9833SOL    HW130309   1.755   7.883   2.657 -1.3886  0.5211  0.8118
 9833SOL    HW230310   1.871   7.815   2.727 -0.0322  0.2988 -1.5631
 9834SOL     OW30311   3.497   7.386   7.469  0.4493  0.2362 -0.6592
 9834SOL    HW130312   3.442   7.311   7.489  1.4054 -0.2576  0.1761
 9834SOL    HW230313   3.435   7.457   7.451 -0.4581 -0.6790 -1.2557
 9835SOL     OW30314   7.028   0.728   0.713  0.4334  0.3552  0.1582
 9835SOL    HW130315   6.986   0.802   0.758  0.2152 -0.1123  0.7419
 9835SOL    HW230316   6.968   0.654   0.727  1.1792 -0.1966  0.5413
 9836SOL     OW30317   3.982   5.171   5.333  0.0465 -0.6351 -0.0384
 9836SOL    HW130318   3.916   5.214   5.280 -0.5272  1.5461  2.2566
 9836SOL    HW230319   4.032   5.243   5.373 -0.1902 -2.0310  3.0813
 9837SOL     OW30320   7.777   5.103   3.091 -0.2955 -0.5393  0.1188
 9837SOL    HW130321   7.746   5.059   3.011 -0.5174 -0.5812  0.2264
 9837SOL    HW230322   7.725   5.184   3.095 -0.3414 -0.5766  0.2649
 9838SOL     OW30323   6.323   5.381   7.867  0.1631  0.4080  0.5942
 9838SOL    HW130324   6.340   5.455   7.809  0.8133 -0.1844  0.0260
 9838SOL    HW230325   6.377   5.399   7.944  0.6161  0.3255  0.2938
 9839SOL     OW30326   5.981   5.275   5.610 -0.0832 -0.0011 -0.1950
 9839SOL    HW130327   5.909   5.338   5.609 -0.3089 -0.2537  0.0855
 9839SOL    HW230328   6.060   5.329   5.608 -0.2427  0.3440  1.5170
 9840SOL     OW30329   7.090   3.726   0.853 -0.0607 -0.0444 -0.7529
 9840SOL    HW130330   7.083   3.707   0.946 -1.5158 -0.5086 -0.9272
 9840SOL    HW230331   7.177   3.695   0.828 -0.0707 -0.9086  0.2326
 9841SOL     OW30332   5.593   5.417   1.240  0.3696 -0.2814  0.2814
 9841SOL    HW130333   5.532   5.477   1.284 -0.0702 -1.1817  0.9273
 9841SOL    HW230334   5.583   5.335   1.287  1.7338 -0.5771  0.0754
 9842SOL     OW30335   6.530   3.767   0.824  0.4189  0.0892 -0.3743
 9842SOL    HW130336   6.518   3.772   0.919 -0.0593  2.7914 -0.5186
 9842SOL    HW230337   6.459   3.709   0.795 -0.8596  1.0521  0.7040
 9843SOL     OW30338   0.162   5.941   3.000  0.8104 -0.6213 -0.2008
 9843SOL    HW130339   0.188   5.928   2.908 -0.8560 -0.1438 -0.7794
 9843SOL    HW230340   0.115   5.861   3.023 -0.5230  0.0649 -0.4431
 9844SOL     OW30341   0.157   7.493   4.077 -0.4151 -0.0750 -0.0720
 9844SOL    HW130342   0.119   7.528   4.158  0.4871  0.9335 -0.0550
 9844SOL    HW230343   0.093   7.516   4.009 -0.8640 -0.3442  0.2515
 9845SOL     OW30344   0.799   2.117   5.300 -0.4549  0.1011  0.2630
 9845SOL    HW130345   0.890   2.136   5.279 -0.7890  0.0058 -1.3937
 9845SOL    HW230346   0.776   2.041   5.246 -1.6570  0.4555  0.2347
 9846SOL     OW30347   4.390   7.877   3.921  0.5228  0.0614 -0.6117
 9846SOL    HW130348   4.410   7.894   3.829 -1.4058  0.8982 -0.9197
 9846SOL    HW230349   4.371   7.964   3.958 -1.8903 -0.5281 -0.2761
 9847SOL     OW30350   6.392   6.116   5.887 -0.0491 -0.0428  0.2909
 9847SOL    HW130351   6.373   6.198   5.841 -0.0044  0.0188  0.3817
 9847SOL    HW230352   6.480   6.128   5.923 -0.6851  0.5352  1.7398
 9848SOL     OW30353   2.220   2.327   3.574 -0.9293  0.2143  0.3529
 9848SOL    HW130354   2.197   2.413   3.541 -0.6587  0.0631 -0.2480
 9848SOL    HW230355   2.260   2.343   3.659 -0.7611  0.6915  0.1839
 9849SOL     OW30356   1.584   7.585   6.716  0.5340  0.7057  0.1821
 9849SOL    HW130357   1.625   7.599   6.630  0.8511 -0.1994  0.1763
 9849SOL    HW230358   1.492   7.567   6.696  0.3901  1.4846  0.1080
 9850SOL     OW30359   4.416   2.557   1.551  0.0828  0.0169 -0.1052
 9850SOL    HW130360   4.421   2.487   1.617  0.0786 -0.9703 -1.1192
 9850SOL    HW230361   4.390   2.512   1.470 -0.1694  1.2380 -0.7326
 9851SOL     OW30362   0.016   0.343   5.083  0.1047  0.3322 -0.0678
 9851SOL    HW130363  -0.008   0.272   5.024 -0.5026  1.0178 -0.6545
 9851SOL    HW230364  -0.032   0.323   5.164  1.1043 -0.7201  0.2949
 9852SOL     OW30365   6.169   6.601   4.976  0.6367  0.2344  0.3141
 9852SOL    HW130366   6.127   6.677   4.935  2.4067 -0.4921 -3.2089
 9852SOL    HW230367   6.102   6.533   4.975 -0.5145  1.2644  2.2062
 9853SOL     OW30368   0.998   6.010   0.769  0.0633 -0.1158 -0.1223
 9853SOL    HW130369   0.918   6.052   0.799  0.5923  0.6295  0.2663
 9853SOL    HW230370   0.978   5.916   0.771 -0.1792 -0.0732  1.8731
 9854SOL     OW30371   6.052   7.356   5.927  0.4645 -0.1217  0.3809
 9854SOL    HW130372   6.104   7.307   5.991 -0.7638 -1.0222  0.7300
 9854SOL    HW230373   6.103   7.350   5.846  0.1756 -2.4063  0.2929
 9855SOL     OW30374   5.180   1.053   5.634 -0.3881 -0.4720  0.0359
 9855SOL    HW130375   5.254   0.993   5.645 -0.0807  0.0816  1.1224
 9855SOL    HW230376   5.220   1.137   5.614 -0.8724 -1.0354 -3.9579
 9856SOL     OW30377   0.159   5.808   0.689 -0.1231  0.0211 -0.1391
 9856SOL    HW130378   0.119   5.818   0.775  1.2598  0.6625  0.4715
 9856SOL    HW230379   0.203   5.892   0.674 -1.3221  0.3657 -2.0191
 9857SOL     OW30380   2.246   1.882   5.595  0.0796 -0.0902 -0.4663
 9857SOL    HW130381   2.334   1.885   5.632  0.0511  0.2038 -0.4239
 9857SOL    HW230382   2.219   1.973   5.589  0.6868 -0.0030 -2.6416
 9858SOL     OW30383   4.584   1.985   7.954 -0.5156 -0.1364 -0.4763
 9858SOL    HW130384   4.550   2.046   8.021 -1.1313 -0.4912 -0.4566
 9858SOL    HW230385   4.507   1.964   7.901 -1.0326 -3.1943  1.2718
 9859SOL     OW30386   2.389   2.876   7.432  0.3859 -0.6724  0.3348
 9859SOL    HW130387   2.351   2.961   7.411  0.4850 -0.7516 -0.1885
 9859SOL    HW230388   2.481   2.883   7.405  1.5463  0.4031  3.9306
 9860SOL     OW30389   4.031   0.131   2.381 -0.0677  0.4282 -0.1145
 9860SOL    HW130390   4.037   0.217   2.421 -0.8140 -0.5867  2.4291
 9860SOL    HW230391   4.059   0.070   2.450 -2.8577 -1.5721 -0.5510
 9861SOL     OW30392   2.722   7.928   4.146 -0.0343 -0.2490 -0.7333
 9861SOL    HW130393   2.794   7.954   4.089  1.2332 -1.6602  0.1561
 9861SOL    HW230394   2.701   7.839   4.119  0.2451 -0.7559  0.6300
 9862SOL     OW30395   5.755   6.288   7.628 -0.4823 -0.2517 -0.6599
 9862SOL    HW130396   5.733   6.334   7.709  2.4212 -1.7747  1.1800
 9862SOL    HW230397   5.712   6.203   7.636  1.6372 -1.2863  0.5013
 9863SOL     OW30398   6.138   6.019   2.483  0.2432 -0.1249 -0.4309
 9863SOL    HW130399   6.057   6.054   2.522  0.6514  1.6071 -1.0569
 9863SOL    HW230400   6.110   5.978   2.402  0.0545  1.1911 -1.0577
 9864SOL     OW30401   5.327   6.073   0.840  0.1822  0.1789 -0.4812
 9864SOL    HW130402   5.397   6.024   0.883  0.4543 -0.0436 -1.1527
 9864SOL    HW230403   5.358   6.083   0.750 -0.1079  1.1485 -0.4760
 9865SOL     OW30404   7.249   4.646   7.478 -0.5942  0.0091 -0.6911
 9865SOL    HW130405   7.245   4.575   7.542  5.3647  0.2188  0.5372
 9865SOL    HW230406   7.279   4.604   7.398 -1.6488  0.5903 -1.4056
 9866SOL     OW30407   3.496   7.998   4.135 -0.4520 -0.2152 -0.3349
 9866SOL    HW130408   3.511   7.963   4.223 -1.3918  1.0984  0.3759
 9866SOL    HW230409   3.482   7.921   4.080 -2.9129 -1.0098  1.2601
 9867SOL     OW30410   0.126   7.742   0.328  0.0705  0.1854  0.1728
 9867SOL    HW130411   0.067   7.806   0.288 -1.9752 -0.3641  2.0854
 9867SOL    HW230412   0.200   7.794   0.358 -0.6308  1.3473 -0.0316
 9868SOL     OW30413   6.503   0.202   5.524  0.0395 -0.2290 -0.3301
 9868SOL    HW130414   6.557   0.126   5.547 -1.0524 -0.5109  1.5236
 9868SOL    HW230415   6.563   0.276   5.531  0.2157 -0.5089  1.9279
 9869SOL     OW30416   6.584   7.184   4.742  0.2801 -0.0453 -0.6389
 9869SOL    HW130417   6.571   7.097   4.780  0.2619 -0.7632 -2.1883
 9869SOL    HW230418   6.590   7.168   4.648  2.0769  1.4316 -0.8378
 9870SOL     OW30419   3.034   2.781   7.602 -0.0558 -0.4295  0.0871
 9870SOL    HW130420   3.122   2.750   7.622  0.7222  1.0286 -0.8452
 9870SOL    HW230421   3.005   2.826   7.681  0.2606 -0.4407  0.2069
 9871SOL     OW30422   3.244   1.145   3.372 -0.0296 -0.2284  0.5279
 9871SOL    HW130423   3.216   1.082   3.305  0.2389  0.2871 -0.0843
 9871SOL    HW230424   3.318   1.190   3.332  0.1861  0.0360  1.2138
 9872SOL     OW30425   4.350   4.081   7.967 -0.4257  0.0873 -0.2472
 9872SOL    HW130426   4.358   4.077   8.062  0.3715 -0.2886 -0.3272
 9872SOL    HW230427   4.440   4.091   7.935 -0.4038 -2.1970 -1.0726
 9873SOL     OW30428   1.023   6.667   2.501 -0.1049 -0.1141 -0.7762
 9873SOL    HW130429   1.100   6.724   2.495 -0.3702  0.3592  0.1301
 9873SOL    HW230430   1.024   6.635   2.591 -0.6861 -0.5315 -0.9113
 9874SOL     OW30431   3.808   7.276   3.301  0.0584  0.6455 -0.2982
 9874SOL    HW130432   3.805   7.362   3.342 -2.1007  0.3292  0.3692
 9874SOL    HW230433   3.717   7.259   3.274  0.4898 -1.2689 -0.7374
 9875SOL     OW30434   4.305   4.627   1.441 -0.2263  0.0758  0.5294
 9875SOL    HW130435   4.233   4.584   1.486 -0.5757  0.0586 -0.0411
 9875SOL    HW230436   4.383   4.578   1.468 -0.3809  0.2802  1.3822
 9876SOL     OW30437   0.814   0.572   7.660 -0.6134 -0.1272 -0.0068
 9876SOL    HW130438   0.898   0.549   7.621 -1.8575 -1.2086 -2.2754
 9876SOL    HW230439   0.834   0.589   7.752  1.8786 -1.5737 -0.1797
 9877SOL     OW30440   0.174   5.260   2.843 -0.1352 -0.0728 -0.5289
 9877SOL    HW130441   0.173   5.240   2.936 -2.7900 -3.4348 -1.0834
 9877SOL    HW230442   0.266   5.249   2.817  0.6678  1.0068  1.6077
 9878SOL     OW30443   3.180   0.415   2.611  0.1198  0.3659 -0.6559
 9878SOL    HW130444   3.242   0.348   2.583  0.8524  1.0506 -0.6964
 9878SOL    HW230445   3.188   0.418   2.706 -1.0335 -0.6594 -0.4891
 9879SOL     OW30446   4.730   4.628   4.495 -0.1490 -0.1485  0.1443
 9879SOL    HW130447   4.644   4.589   4.504  0.2078 -0.8200  0.7322
 9879SOL    HW230448   4.749   4.665   4.581  0.6677 -1.1107  0.3976
 9880SOL     OW30449   5.383   1.441   4.689  0.2797 -0.2413 -0.1624
 9880SOL    HW130450   5.340   1.518   4.727 -0.8707 -1.1930  0.5196
 9880SOL    HW230451   5.351   1.439   4.598 -1.6360 -1.2314  0.4728
 9881SOL     OW30452   1.766   6.543   7.705  0.3971  0.5128 -0.0222
 9881SOL    HW130453   1.715   6.596   7.765 -1.4407 -1.0004 -0.1748
 9881SOL    HW230454   1.788   6.602   7.633 -0.1687  1.4767  0.5815
 9882SOL     OW30455   1.225   7.314   2.155  0.0347  0.5925  0.1265
 9882SOL    HW130456   1.256   7.279   2.072  0.8473 -0.6205  0.9112
 9882SOL    HW230457   1.224   7.409   2.142  3.6326  0.7293 -0.1518
 9883SOL     OW30458   1.936   7.045   7.896 -0.1409  0.2688 -0.1885
 9883SOL    HW130459   1.850   7.046   7.938 -0.0177 -1.6611  0.2044
 9883SOL    HW230460   1.998   7.055   7.968  0.0262 -1.6218 -0.0206
 9884SOL     OW30461   1.311   6.410   7.732  0.2654 -0.1509  0.1098
 9884SOL    HW130462   1.242   6.382   7.793 -1.0587  1.2738 -0.6628
 9884SOL    HW230463   1.264   6.454   7.662  1.9036 -0.1858 -1.0578
 9885SOL     OW30464   7.216   7.396   6.280 -0.0338 -0.9269  0.2972
 9885SOL    HW130465   7.129   7.382   6.318 -1.2801 -0.8712 -2.2828
 9885SOL    HW230466   7.255   7.465   6.334 -2.0386 -0.2015  0.9179
 9886SOL     OW30467   4.642   4.611   6.335 -0.3324  0.5524  0.5624
 9886SOL    HW130468   4.607   4.556   6.405 -0.2365  1.8516  1.6966
 9886SOL    HW230469   4.585   4.596   6.260  0.3747 -1.9198  0.4397
 9887SOL     OW30470   0.071   1.078   5.680 -0.2142 -0.3791  0.3495
 9887SOL    HW130471   0.065   1.023   5.758 -1.3140  1.2510  1.4623
 9887SOL    HW230472   0.033   1.024   5.610  0.1385 -1.5978  1.0652
 9888SOL     OW30473   0.958   4.961   7.832  0.0828 -0.0564 -0.6263
 9888SOL    HW130474   0.936   4.997   7.918  2.7001  1.4950 -0.5098
 9888SOL    HW230475   0.940   4.867   7.840  0.5882 -0.0129  1.7592
 9889SOL     OW30476   3.980   7.758   4.602 -0.0954  0.0204  0.3946
 9889SOL    HW130477   4.040   7.782   4.532 -1.6080  1.7501 -0.3903
 9889SOL    HW230478   3.900   7.809   4.584 -1.8388 -2.1941  1.3456
 9890SOL     OW30479   1.447   6.760   6.602 -0.0065  0.4500 -0.3305
 9890SOL    HW130480   1.483   6.769   6.514  1.8549  2.3240  0.5422
 9890SOL    HW230481   1.408   6.845   6.621 -1.6984 -0.3892  0.1588
 9891SOL     OW30482   4.977   7.514   3.460  0.2719 -0.0977 -0.2984
 9891SOL    HW130483   4.971   7.503   3.555  2.1374  0.0205 -0.1368
 9891SOL    HW230484   4.917   7.586   3.441  0.1631  0.1382  0.8431
 9892SOL     OW30485   3.833   5.345   7.566 -0.5291 -0.4609  0.5604
 9892SOL    HW130486   3.827   5.440   7.557  0.5387 -0.2917  1.4732
 9892SOL    HW230487   3.877   5.316   7.486 -3.2026 -0.5269 -1.0005
 9893SOL     OW30488   3.902   1.133   7.921 -0.1699  0.3442 -0.2016
 9893SOL    HW130489   3.937   1.198   7.860  0.8480  0.9633  0.9962
 9893SOL    HW230490   3.979   1.092   7.959 -0.6994  1.1411  1.8610
 9894SOL     OW30491   4.968   2.647   2.034 -0.7256  0.0257  0.0288
 9894SOL    HW130492   4.930   2.718   1.983 -1.9999 -1.2036 -0.7815
 9894SOL    HW230493   5.055   2.679   2.058 -0.9326  1.4987 -1.0669
 9895SOL     OW30494   6.610   6.298   6.480 -0.0515 -0.4060 -0.4198
 9895SOL    HW130495   6.687   6.306   6.424  0.6798 -1.7594  0.3425
 9895SOL    HW230496   6.634   6.231   6.544 -1.3772  0.0948  0.6517
 9896SOL     OW30497   2.151   7.778   0.534  0.2044  0.1378 -0.6735
 9896SOL    HW130498   2.196   7.818   0.459 -0.2753  0.8271 -0.5993
 9896SOL    HW230499   2.065   7.754   0.500 -0.0659  0.5797 -0.3166
 9897SOL     OW30500   2.694   5.768   7.229  0.0452 -0.1583  0.5322
 9897SOL    HW130501   2.778   5.811   7.210 -0.5517  0.8046 -0.0411
 9897SOL    HW230502   2.710   5.675   7.214  1.0166  0.0069  0.4739
 9898SOL     OW30503   0.311   7.132   4.288 -0.6064 -0.1945 -0.4672
 9898SOL    HW130504   0.381   7.168   4.342  1.0566 -0.2374 -2.4671
 9898SOL    HW230505   0.289   7.049   4.330  0.0413  0.1482  0.5971
 9899SOL     OW30506   5.412   1.660   7.505 -0.0831 -0.2350  0.4853
 9899SOL    HW130507   5.316   1.666   7.508 -0.2703 -2.2009 -0.3932
 9899SOL    HW230508   5.432   1.572   7.536  1.4179 -0.0127  0.2256
 9900SOL     OW30509   3.162   6.334   2.395  0.4383 -0.2733  0.2043
 9900SOL    HW130510   3.180   6.397   2.326  2.5038 -1.5976 -0.5614
 9900SOL    HW230511   3.240   6.278   2.397 -0.4155 -1.4958  2.2695
 9901SOL     OW30512   7.109   4.940   5.236  0.0788 -0.2711  0.3230
 9901SOL    HW130513   7.181   4.895   5.192 -0.3161 -0.1821 -0.4236
 9901SOL    HW230514   7.036   4.878   5.233 -0.7513  0.7166 -1.5237
 9902SOL     OW30515   2.970   5.738   3.943  0.4374 -0.4525 -0.1409
 9902SOL    HW130516   2.982   5.651   3.980 -0.8694 -0.9189 -0.7600
 9902SOL    HW230517   3.036   5.744   3.874  0.9443 -0.7035  0.3185
 9903SOL     OW30518   2.965   4.088   5.350 -0.4214  0.3836 -0.4582
 9903SOL    HW130519   2.949   4.075   5.443  1.4376  1.4230  0.0632
 9903SOL    HW230520   2.932   4.008   5.308 -0.4449 -0.5076  1.1898
 9904SOL     OW30521   4.122   4.703   0.775 -0.1389 -0.2063  0.4541
 9904SOL    HW130522   4.090   4.613   0.762  1.3242 -0.7668  0.5875
 9904SOL    HW230523   4.059   4.757   0.727 -1.8058 -1.1657  1.4770
 9905SOL     OW30524   4.299   0.774   4.289  0.3160  0.1728 -0.3733
 9905SOL    HW130525   4.290   0.707   4.357 -0.4583  1.9204  1.3246
 9905SOL    HW230526   4.230   0.752   4.225  0.5414 -1.0408 -0.2281
 9906SOL     OW30527   2.519   3.080   2.585 -0.0780  0.1134 -0.3731
 9906SOL    HW130528   2.441   3.075   2.530  0.2860  0.1044 -0.8941
 9906SOL    HW230529   2.587   3.036   2.535 -0.0420 -1.0481  0.6309
 9907SOL     OW30530   2.924   6.259   6.553 -0.4634  0.2502  0.0755
 9907SOL    HW130531   2.958   6.187   6.607 -1.7313 -0.2555  0.2430
 9907SOL    HW230532   2.997   6.282   6.495 -0.4390 -2.1555 -0.9764
 9908SOL     OW30533   2.869   1.071   3.286  0.0875 -0.1217 -0.1224
 9908SOL    HW130534   2.913   1.156   3.285 -0.0304 -0.0636 -0.3537
 9908SOL    HW230535   2.776   1.092   3.276 -0.1070 -0.1740  1.3134
 9909SOL     OW30536   7.157   3.874   5.461 -0.0495  0.3721  0.0350
 9909SOL    HW130537   7.105   3.799   5.430  0.1206 -0.2641  1.2537
 9909SOL    HW230538   7.124   3.892   5.549  0.3074  1.3738 -0.0260
 9910SOL     OW30539   1.160   5.249   6.935 -0.5412  0.2932  0.2068
 9910SOL    HW130540   1.141   5.185   7.004 -0.0443 -0.1668 -0.0743
 9910SOL    HW230541   1.147   5.334   6.977 -0.5384  0.0143  0.7831
 9911SOL     OW30542   0.318   3.620   7.234  0.3401  0.4045 -0.2996
 9911SOL    HW130543   0.235   3.573   7.237  0.2777  0.5558  0.3768
 9911SOL    HW230544   0.384   3.553   7.254  0.4156  0.2274 -1.0887
 9912SOL     OW30545   0.216   0.259   3.784 -0.5198  0.4382  0.1947
 9912SOL    HW130546   0.260   0.233   3.865  0.3072 -2.4221 -1.0563
 9912SOL    HW230547   0.130   0.216   3.789 -0.3454 -0.0119 -0.5586
 9913SOL     OW30548   4.734   0.937   2.463  0.5350  0.0052 -0.0318
 9913SOL    HW130549   4.739   0.921   2.557  0.7778 -0.3870 -0.1083
 9913SOL    HW230550   4.693   1.023   2.455 -1.1044 -0.6993  0.3978
 9914SOL     OW30551   6.712   5.047   5.054 -0.1537 -0.1152 -0.2182
 9914SOL    HW130552   6.712   5.013   5.143 -1.0254  0.9949  0.2364
 9914SOL    HW230553   6.740   5.139   5.065  0.5493 -0.2016 -1.1926
 9915SOL     OW30554   0.893   4.343   4.641  0.0042  0.1068 -0.0460
 9915SOL    HW130555   0.819   4.374   4.589 -0.6057 -0.3044  0.5546
 9915SOL    HW230556   0.967   4.339   4.580 -0.3745  0.8812 -0.5664
 9916SOL     OW30557   5.691   1.226   0.099  0.2056 -0.1715 -0.3188
 9916SOL    HW130558   5.614   1.256   0.146 -0.0395 -0.7338 -0.3512
 9916SOL    HW230559   5.733   1.163   0.157 -0.5519 -1.4910 -1.1638
 9917SOL     OW30560   7.593   7.675   6.332  0.3278 -0.3580 -0.1436
 9917SOL    HW130561   7.553   7.760   6.352  1.2031  0.1706 -0.5851
 9917SOL    HW230562   7.656   7.661   6.402  0.3579 -0.5341 -0.2058
 9918SOL     OW30563   3.054   1.716   5.532  0.0821 -0.4904 -0.1893
 9918SOL    HW130564   3.090   1.700   5.445 -0.4202 -0.8921 -0.3284
 9918SOL    HW230565   3.115   1.777   5.572 -0.3764  0.7489 -1.3050
 9919SOL     OW30566   7.044   4.154   1.507 -0.6089 -0.7011 -0.1731
 9919SOL    HW130567   7.082   4.186   1.589 -0.0001  2.9678 -1.6970
 9919SOL    HW230568   6.950   4.161   1.521 -0.5131 -0.1010  0.2588
 9920SOL     OW30569   0.835   0.493   4.035  0.1741  0.2025 -0.4366
 9920SOL    HW130570   0.829   0.586   4.011  2.5392  0.7352  0.6874
 9920SOL    HW230571   0.915   0.463   3.992  0.7548 -0.6275  1.1462
 9921SOL     OW30572   2.381   6.944   2.195  0.3293 -0.2580  0.7681
 9921SOL    HW130573   2.471   6.911   2.195  0.7800  0.9065  2.1579
 9921SOL    HW230574   2.385   7.025   2.144  0.1502 -0.0074  1.1522
 9922SOL     OW30575   5.803   0.547   4.938 -0.0440  0.5464 -0.1576
 9922SOL    HW130576   5.879   0.539   4.996 -0.1159  1.5805  0.1058
 9922SOL    HW230577   5.801   0.465   4.889 -1.7499 -1.8281  3.4290
 9923SOL     OW30578   4.712   4.226   4.962 -0.2056 -0.2142  0.5173
 9923SOL    HW130579   4.763   4.145   4.953  1.0306  0.7047 -1.3466
 9923SOL    HW230580   4.671   4.238   4.876  0.5330  1.6941  0.3804
 9924SOL     OW30581   2.722   2.086   6.059  0.0033  0.3888  0.0000
 9924SOL    HW130582   2.809   2.047   6.051  0.0719 -0.0653  2.1513
 9924SOL    HW230583   2.735   2.178   6.038  0.6524  0.0245 -1.3077
 9925SOL     OW30584   4.179   1.339   3.529  0.2883  0.0442 -0.0510
 9925SOL    HW130585   4.231   1.391   3.590 -0.2092 -2.2387  2.4611
 9925SOL    HW230586   4.105   1.396   3.506  0.6010  1.0348  1.3062
 9926SOL     OW30587   3.438   2.905   5.944  0.4077 -0.0239 -0.0581
 9926SOL    HW130588   3.474   2.934   5.860  0.8605  1.2295  0.5493
 9926SOL    HW230589   3.348   2.879   5.923  1.2645 -2.2558 -1.3929
 9927SOL     OW30590   6.860   3.756   3.404 -0.3272 -0.3721  0.0671
 9927SOL    HW130591   6.904   3.689   3.455  0.4704 -1.6083 -2.0833
 9927SOL    HW230592   6.852   3.830   3.463  0.7957 -1.5824  1.8479
 9928SOL     OW30593   4.130   3.063   0.042  0.4632  0.4267  0.5502
 9928SOL    HW130594   4.122   3.144   0.092  0.7472  0.9318 -0.1890
 9928SOL    HW230595   4.049   3.015   0.059  0.7767  0.3387  1.8859
 9929SOL     OW30596   6.218   3.621   7.549 -0.6418  0.0974 -0.3128
 9929SOL    HW130597   6.123   3.626   7.551 -0.6616  0.4388 -1.4933
 9929SOL    HW230598   6.244   3.685   7.484  0.3843 -0.2269 -0.2428
 9930SOL     OW30599   1.961   2.781   2.379  0.1112  0.0344  0.2608
 9930SOL    HW130600   1.905   2.725   2.432  1.2890  0.0900  1.6252
 9930SOL    HW230601   1.905   2.810   2.307 -1.3855 -0.4783  1.1793
 9931SOL     OW30602   2.358   3.124   3.769 -0.8721  0.2006  0.0300
 9931SOL    HW130603   2.376   3.051   3.709  0.3124  0.7814 -0.3515
 9931SOL    HW230604   2.352   3.082   3.855 -0.1555 -0.3587 -0.1757
 9932SOL     OW30605   1.943   4.158   0.288 -0.2603 -0.0508  0.8338
 9932SOL    HW130606   1.935   4.234   0.346 -0.6746  0.5557  0.0079
 9932SOL    HW230607   1.993   4.094   0.338 -1.5954  0.0011  2.3016
 9933SOL     OW30608   4.663   0.095   0.304 -0.3606 -0.0577  0.1483
 9933SOL    HW130609   4.728   0.026   0.298 -1.4466 -1.0514 -0.7217
 9933SOL    HW230610   4.579   0.050   0.299 -1.1046  1.3413 -0.8794
 9934SOL     OW30611   4.021   7.044   7.626  0.4132  0.2511  0.6726
 9934SOL    HW130612   3.953   7.108   7.644  0.1658 -0.3842  2.2375
 9934SOL    HW230613   4.053   7.066   7.539 -0.4283  1.7847  0.7118
 9935SOL     OW30614   0.776   0.364   1.269 -0.4963 -0.2028 -0.8555
 9935SOL    HW130615   0.756   0.357   1.176 -3.2121 -0.0798 -0.3631
 9935SOL    HW230616   0.784   0.274   1.299 -1.3692 -0.3147 -0.9191
 9936SOL     OW30617   6.037   4.025   7.392  0.0038  0.0230 -0.0600
 9936SOL    HW130618   5.998   4.001   7.476  1.9581  0.6456  1.0629
 9936SOL    HW230619   6.082   3.946   7.363  1.4302  0.5127  0.7357
 9937SOL     OW30620   7.929   1.720   3.969 -0.1139 -0.2383  0.1294
 9937SOL    HW130621   8.010   1.676   3.994  0.4553  0.2175 -0.8680
 9937SOL    HW230622   7.868   1.700   4.040  1.0294 -0.1262  1.1664
 9938SOL     OW30623   5.425   1.525   6.725  0.2473 -0.3752 -0.0613
 9938SOL    HW130624   5.472   1.576   6.791  0.4904 -1.3009  0.4979
 9938SOL    HW230625   5.356   1.480   6.773  0.8256 -1.5702 -0.3052
 9939SOL     OW30626   0.572   5.751   7.968 -0.5922 -0.6690 -0.0693
 9939SOL    HW130627   0.518   5.830   7.972 -0.1727 -0.4194  1.6732
 9939SOL    HW230628   0.518   5.688   7.920 -2.5750 -0.4977  1.7625
 9940SOL     OW30629   6.225   1.320   3.157  0.1673  0.3381 -0.2205
 9940SOL    HW130630   6.292   1.388   3.164  0.4006 -0.0345  1.8074
 9940SOL    HW230631   6.273   1.240   3.138  0.4855 -0.0989  2.1076
 9941SOL     OW30632   7.147   0.515   2.956 -0.0611  0.0808  0.3429
 9941SOL    HW130633   7.224   0.546   2.909 -0.0086 -1.1131 -0.3864
 9941SOL    HW230634   7.178   0.439   3.005 -0.3499  0.7146  1.5598
 9942SOL     OW30635   5.828   0.764   1.272  0.1611  0.0209 -0.7356
 9942SOL    HW130636   5.909   0.810   1.294 -0.1326  0.0495  0.3237
 9942SOL    HW230637   5.768   0.832   1.243  0.0286  0.2048 -0.0541
 9943SOL     OW30638   3.225   2.901   4.039 -0.0449 -0.1860  0.4525
 9943SOL    HW130639   3.158   2.922   3.974  1.0179 -0.2211 -0.7024
 9943SOL    HW230640   3.290   2.849   3.991  1.3994  0.8402  1.1871
 9944SOL     OW30641   5.105   7.826   4.042 -0.0533  0.6249  0.6202
 9944SOL    HW130642   5.175   7.844   3.980 -0.1207  0.7658  0.5854
 9944SOL    HW230643   5.150   7.791   4.119 -0.0413 -0.3103  0.1985
 9945SOL     OW30644   1.456   6.438   4.092 -0.2257  0.5166  0.1744
 9945SOL    HW130645   1.501   6.403   4.015 -2.2688 -0.4712 -0.6601
 9945SOL    HW230646   1.395   6.369   4.117 -1.7265  2.0076  0.8067
 9946SOL     OW30647   5.282   4.012   0.210 -0.5860  0.1063 -0.4069
 9946SOL    HW130648   5.323   4.033   0.126 -0.4107 -0.9160 -0.5871
 9946SOL    HW230649   5.252   4.097   0.243  0.2336  0.6626 -1.0271
 9947SOL     OW30650   4.393   6.524   7.173  0.0736  0.2336 -0.2916
 9947SOL    HW130651   4.418   6.566   7.255  0.7023 -0.2368 -0.2374
 9947SOL    HW230652   4.467   6.541   7.114 -0.3893  0.6038 -0.7749
 9948SOL     OW30653   5.849   5.915   4.941 -0.4670 -0.5109 -0.5726
 9948SOL    HW130654   5.798   5.930   4.860 -1.4240 -0.4007  0.0324
 9948SOL    HW230655   5.802   5.964   5.008  1.1364  0.5860 -0.2020
 9949SOL     OW30656   0.991   7.460   2.878  0.5752  0.2328 -0.1932
 9949SOL    HW130657   0.983   7.440   2.785  2.0027  2.0780 -0.7716
 9949SOL    HW230658   1.078   7.427   2.901 -0.2015 -1.2359  0.8235
 9950SOL     OW30659   1.311   2.756   7.528  0.4814  0.3699  0.2882
 9950SOL    HW130660   1.265   2.829   7.486 -2.9125 -0.6311  1.8536
 9950SOL    HW230661   1.243   2.711   7.578  2.3126 -4.0227 -0.6798
 9951SOL     OW30662   0.175   1.360   1.201  0.6705  0.1742 -0.6006
 9951SOL    HW130663   0.256   1.323   1.166  1.4579  1.0994  0.1836
 9951SOL    HW230664   0.196   1.384   1.291 -0.8105 -0.5766 -0.0224
 9952SOL     OW30665   0.756   1.954   5.578  0.2901 -0.1983 -0.1470
 9952SOL    HW130666   0.755   1.877   5.522  1.5012 -0.4097  0.1077
 9952SOL    HW230667   0.769   2.027   5.518  4.8443 -0.6374 -0.0413
 9953SOL     OW30668   5.916   4.632   3.843 -0.6853 -0.4950 -0.0458
 9953SOL    HW130669   5.959   4.547   3.846  0.2762 -0.0264  0.0725
 9953SOL    HW230670   5.835   4.617   3.795  1.4313 -0.6799 -4.0312
 9954SOL     OW30671   4.876   2.229   2.300 -0.4345  0.1485 -0.4489
 9954SOL    HW130672   4.874   2.188   2.386 -0.6532  1.9554  0.4706
 9954SOL    HW230673   4.787   2.265   2.288 -0.1208  0.7908 -0.9506
 9955SOL     OW30674   7.851   3.617   1.391  0.4296 -0.3147  0.6739
 9955SOL    HW130675   7.775   3.663   1.356  0.8461  0.0787  0.2680
 9955SOL    HW230676   7.828   3.598   1.482 -0.1257 -0.1460  0.5736
 9956SOL     OW30677   6.582   4.462   1.643 -0.1506 -0.3396  0.3334
 9956SOL    HW130678   6.591   4.544   1.690 -1.9372 -0.4451  0.9301
 9956SOL    HW230679   6.634   4.399   1.693  0.7776  0.2936  0.1801
 9957SOL     OW30680   7.687   4.829   0.948  0.0514 -0.5316 -0.2986
 9957SOL    HW130681   7.622   4.886   0.989  0.7549  1.0908 -1.3000
 9957SOL    HW230682   7.649   4.807   0.863  0.8900  0.6975 -1.0274
 9958SOL     OW30683   2.351   0.363   1.612 -0.1560  0.6474 -0.0937
 9958SOL    HW130684   2.262   0.339   1.639  0.3256 -1.6905 -0.3739
 9958SOL    HW230685   2.346   0.457   1.593 -2.7152  0.4490 -0.7019
 9959SOL     OW30686   0.331   0.087   3.170 -0.2248  0.0471  0.3985
 9959SOL    HW130687   0.404   0.140   3.203 -1.6840  1.9340  0.7616
 9959SOL    HW230688   0.299   0.039   3.247 -0.4770  0.6087  0.6531
 9960SOL     OW30689   0.668   4.737   4.995 -0.2255 -0.0765  0.4325
 9960SOL    HW130690   0.616   4.814   4.973  0.9885 -0.0343 -2.6741
 9960SOL    HW230691   0.604   4.665   4.999 -0.9251  0.5205  0.0461
 9961SOL     OW30692   1.512   6.645   6.840  0.3587  0.2983 -0.1915
 9961SOL    HW130693   1.441   6.588   6.812 -0.1614  0.5725  0.5254
 9961SOL    HW230694   1.514   6.715   6.775  0.9700 -0.5043 -1.0447
 9962SOL     OW30695   6.705   2.996   7.701  0.0040 -0.3089  0.3506
 9962SOL    HW130696   6.682   3.070   7.758 -1.8181  0.0655 -0.8160
 9962SOL    HW230697   6.745   3.037   7.624  0.6085 -0.6904  0.4492
 9963SOL     OW30698   3.249   6.239   3.291  0.4144 -0.7494  0.4759
 9963SOL    HW130699   3.324   6.298   3.286 -0.7426  0.7140 -0.3853
 9963SOL    HW230700   3.194   6.276   3.360 -0.7830 -0.2277 -0.7217
 9964SOL     OW30701   4.303   0.997   7.036 -0.6570 -0.0980 -0.2429
 9964SOL    HW130702   4.360   1.022   7.108 -0.2127 -0.4506 -0.4640
 9964SOL    HW230703   4.215   1.020   7.065 -0.6658 -1.5903  1.0287
 9965SOL     OW30704   7.250   1.847   2.797  0.1904 -0.3141 -0.1597
 9965SOL    HW130705   7.282   1.937   2.802  1.6914 -0.6647 -2.3060
 9965SOL    HW230706   7.281   1.806   2.878  0.7545  0.7202  0.1675
 9966SOL     OW30707   0.527   6.503   6.500  0.8319  0.2980 -0.9065
 9966SOL    HW130708   0.457   6.455   6.543  1.7129  0.8804  1.3689
 9966SOL    HW230709   0.495   6.519   6.411 -0.6805 -1.8816 -0.8197
 9967SOL     OW30710   1.135   0.922   6.461  0.0704  0.2134  0.6346
 9967SOL    HW130711   1.202   0.889   6.521  0.5325  0.6760  0.3808
 9967SOL    HW230712   1.128   1.015   6.483 -1.0116  0.0305  1.1478
 9968SOL     OW30713   3.834   0.836   3.852  0.0530  0.0966 -0.0947
 9968SOL    HW130714   3.806   0.745   3.861 -0.1119  0.1640  0.0710
 9968SOL    HW230715   3.926   0.831   3.828  0.4026 -0.0983  1.2220
 9969SOL     OW30716   5.863   6.890   6.721  0.1687 -0.6321 -0.6053
 9969SOL    HW130717   5.808   6.950   6.771 -0.2747  0.8835 -2.7135
 9969SOL    HW230718   5.808   6.814   6.704 -0.2955 -0.3708 -0.2836
 9970SOL     OW30719   1.166   2.948   7.386 -0.5872  0.3962 -0.2100
 9970SOL    HW130720   1.112   2.925   7.310 -1.5549 -0.9829  0.8328
 9970SOL    HW230721   1.172   3.043   7.384 -1.9384  0.4826 -1.1196
 9971SOL     OW30722   2.138   2.709   7.621  0.2787 -0.2357  0.0374
 9971SOL    HW130723   2.125   2.709   7.526 -0.1014 -0.4313  0.0839
 9971SOL    HW230724   2.173   2.795   7.641 -0.2078  0.0248 -0.2103
 9972SOL     OW30725   3.418   2.400   7.378  0.0680  0.5657 -0.7336
 9972SOL    HW130726   3.435   2.417   7.285  0.5723  3.0040 -0.2534
 9972SOL    HW230727   3.356   2.468   7.404 -0.9985 -0.8192  0.4730
 9973SOL     OW30728   6.044   1.058   7.746 -0.4401 -0.0591  0.7613
 9973SOL    HW130729   6.132   1.071   7.782  0.2063 -1.2486 -0.3192
 9973SOL    HW230730   5.987   1.056   7.823  0.7497 -1.3410  1.6455
 9974SOL     OW30731   7.130   6.747   4.775 -0.3013  0.2704  0.4348
 9974SOL    HW130732   7.047   6.743   4.822  0.7021 -0.5518  2.2863
 9974SOL    HW230733   7.188   6.795   4.834  0.1654  2.2642 -1.5173
 9975SOL     OW30734   3.627   6.982   4.885  0.2757  0.2147  0.1272
 9975SOL    HW130735   3.535   6.983   4.861  0.6794  0.3487 -1.5351
 9975SOL    HW230736   3.661   7.067   4.855  0.6798  0.7563  1.9363
 9976SOL     OW30737   1.710   7.622   4.268  0.4385 -0.1131 -0.0028
 9976SOL    HW130738   1.649   7.635   4.195 -0.9708 -2.3646  0.6553
 9976SOL    HW230739   1.797   7.625   4.228 -0.3083 -1.7705 -1.9250
 9977SOL     OW30740   2.604   5.094   5.994  0.2490  0.2865 -1.0031
 9977SOL    HW130741   2.679   5.155   5.999  0.2360  0.2195  0.3393
 9977SOL    HW230742   2.528   5.151   5.995  0.2680  0.3513 -2.2961
 9978SOL     OW30743   5.732   6.546   1.276 -0.1919  0.6905 -0.2810
 9978SOL    HW130744   5.668   6.618   1.283 -1.0726  0.0069 -1.0627
 9978SOL    HW230745   5.766   6.552   1.187 -1.4001 -0.7606 -0.8726
 9979SOL     OW30746   1.361   2.910   6.768  0.4773  0.4534  0.4667
 9979SOL    HW130747   1.336   2.823   6.737 -0.2193  0.8363 -0.0795
 9979SOL    HW230748   1.437   2.934   6.714  1.0896 -0.0886  1.0818
 9980SOL     OW30749   1.551   5.549   2.772 -0.3704 -0.4457  0.2569
 9980SOL    HW130750   1.523   5.483   2.709 -0.5563 -0.8928  0.8004
 9980SOL    HW230751   1.644   5.531   2.786 -0.4688 -0.7244  0.5596
 9981SOL     OW30752   1.070   4.565   7.572  0.4175 -0.0335 -0.3832
 9981SOL    HW130753   1.037   4.508   7.502 -1.7832 -0.4507  0.8854
 9981SOL    HW230754   1.092   4.505   7.643 -0.1701  0.5442  0.3084
 9982SOL     OW30755   0.101   3.451   7.258  0.3954  0.1410 -0.0169
 9982SOL    HW130756   0.025   3.508   7.268  1.0820  1.0829 -0.1071
 9982SOL    HW230757   0.085   3.404   7.176  1.5872  2.9988 -2.0482
 9983SOL     OW30758   1.903   4.298   2.184  0.0291 -0.0807  0.1041
 9983SOL    HW130759   1.961   4.245   2.129  0.5518  1.0792 -0.4882
 9983SOL    HW230760   1.815   4.278   2.151  0.3605  0.9499 -1.5125
 9984SOL     OW30761   0.840   5.234   0.669  0.0028  0.2103  0.3357
 9984SOL    HW130762   0.849   5.275   0.583 -1.3453 -0.2637 -0.0445
 9984SOL    HW230763   0.760   5.271   0.706  0.2992  0.0365  1.1993
 9985SOL     OW30764   2.412   3.714   3.254  0.2776 -0.1303  0.2701
 9985SOL    HW130765   2.489   3.664   3.225 -0.8151 -1.2323 -0.8644
 9985SOL    HW230766   2.397   3.685   3.344  0.2471 -1.1278 -0.0462
 9986SOL     OW30767   5.202   2.022   6.812 -0.1402  1.2668 -0.3943
 9986SOL    HW130768   5.167   1.934   6.802  0.9208  0.1600  3.7356
 9986SOL    HW230769   5.130   2.080   6.786 -2.2206 -0.8674  0.2898
 9987SOL     OW30770   3.451   0.299   4.031 -0.6041 -0.7034 -0.4693
 9987SOL    HW130771   3.456   0.209   3.999  0.1834 -1.4321  1.5456
 9987SOL    HW230772   3.358   0.313   4.050 -0.7921 -0.9064 -1.2023
 9988SOL     OW30773   0.310   7.500   1.502  0.3637 -0.3460 -0.4545
 9988SOL    HW130774   0.381   7.534   1.557 -1.8843 -0.3277  2.6820
 9988SOL    HW230775   0.273   7.578   1.461 -0.2330  0.1799  1.0074
 9989SOL     OW30776   7.346   5.973   5.588  0.5513  0.0745  0.3943
 9989SOL    HW130777   7.338   5.879   5.573 -0.9504  0.2358  0.0116
 9989SOL    HW230778   7.437   5.993   5.567  1.4341 -1.5883  2.3058
 9990SOL     OW30779   6.015   1.960   5.398 -0.5030  0.9606  0.2370
 9990SOL    HW130780   5.929   1.990   5.366 -0.3119 -0.4495 -1.8213
 9990SOL    HW230781   6.029   1.876   5.352  1.8785  1.0499  0.6969
 9991SOL     OW30782   4.716   5.877   0.149 -0.0324  0.7086 -0.0128
 9991SOL    HW130783   4.708   5.879   0.245  0.3627  0.1014  0.0433
 9991SOL    HW230784   4.748   5.964   0.125  0.0364  0.8077  0.4278
 9992SOL     OW30785   3.320   3.346   5.671  0.3537 -0.0304 -0.2463
 9992SOL    HW130786   3.265   3.423   5.658 -1.2342 -0.9779  0.5704
 9992SOL    HW230787   3.267   3.273   5.640  1.8980 -0.8175 -1.1751
 9993SOL     OW30788   0.245   4.830   1.372 -0.0018 -0.0046 -0.5534
 9993SOL    HW130789   0.331   4.872   1.367  0.6093 -1.1001  0.4806
 9993SOL    HW230790   0.196   4.884   1.434  0.3141 -0.0306 -0.2789
 9994SOL     OW30791   6.163   0.398   4.736  0.0981  0.3481 -0.2215
 9994SOL    HW130792   6.127   0.480   4.768 -0.5400 -0.1552  0.3899
 9994SOL    HW230793   6.257   0.414   4.730 -0.0036  1.0774  0.0266
 9995SOL     OW30794   3.962   1.936   7.978 -0.1835  0.0788  0.2887
 9995SOL    HW130795   4.021   1.916   8.050  1.4537  0.1643 -0.9701
 9995SOL    HW230796   3.940   2.028   7.989  1.0945  0.4329 -0.0270
 9996SOL     OW30797   6.732   5.736   3.661 -0.6700 -0.3680  0.0677
 9996SOL    HW130798   6.724   5.699   3.749 -0.8453 -1.5221 -0.4243
 9996SOL    HW230799   6.651   5.786   3.648 -0.9371 -0.7386  0.3067
 9997SOL     OW30800   0.811   1.487   3.560 -0.4220 -0.1435 -0.3102
 9997SOL    HW130801   0.783   1.397   3.577 -3.6081  0.7154 -0.4781
 9997SOL    HW230802   0.898   1.493   3.599 -0.3754 -3.1037  0.2354
 9998SOL     OW30803   6.782   2.107   5.418  0.3612  0.6268  0.3029
 9998SOL    HW130804   6.844   2.035   5.409 -0.5782  0.0253 -1.7497
 9998SOL    HW230805   6.747   2.097   5.507 -0.4747 -2.0998 -0.2352
 9999SOL     OW30806   6.430   2.055   2.423  0.6971 -0.1548  0.6310
 9999SOL    HW130807   6.400   2.145   2.417  2.3827  0.3959  0.1398
 9999SOL    HW230808   6.358   2.003   2.388  0.3344  1.1198 -0.5729
10000SOL     OW30809   7.877   3.271   6.380 -0.2838 -0.1324  0.2539
10000SOL    HW130810   7.824   3.198   6.413 -0.4714 -0.3359 -0.4752
10000SOL    HW230811   7.815   3.323   6.328  0.1527 -0.2002 -0.3455
10001SOL     OW30812   2.127   2.161   3.130  0.5062  0.0508  0.0142
10001SOL    HW130813   2.085   2.227   3.073  2.2546 -0.2567 -1.7267
10001SOL    HW230814   2.127   2.202   3.217  1.2794  2.2735 -0.9474
10002SOL     OW30815   5.982   7.547   5.596 -0.2452  0.2156 -0.5071
10002SOL    HW130816   6.039   7.484   5.641  1.1073  0.3067 -2.0043
10002SOL    HW230817   5.908   7.495   5.565  0.5976 -0.5577 -1.2680
10003SOL     OW30818   6.597   2.117   0.102 -0.4898  0.3312  0.5585
10003SOL    HW130819   6.564   2.205   0.117 -0.5386  1.2965 -4.0040
10003SOL    HW230820   6.519   2.064   0.087 -0.3540  0.0930  0.6834
10004SOL     OW30821   0.212   4.277   6.724  0.2120 -0.2585  0.1068
10004SOL    HW130822   0.150   4.209   6.699  0.3014 -0.2997 -0.0005
10004SOL    HW230823   0.156   4.351   6.750  0.1167 -0.1826 -0.2965
10005SOL     OW30824   1.960   0.752   5.176  0.5056 -0.0287  0.0470
10005SOL    HW130825   2.037   0.739   5.231 -1.2696 -3.6063  2.0733
10005SOL    HW230826   1.906   0.814   5.226 -0.1309 -1.5812  1.3932
10006SOL     OW30827   1.039   5.381   0.022 -0.2012 -0.4227 -0.2179
10006SOL    HW130828   1.037   5.438   0.099 -0.3640 -0.9208  0.1492
10006SOL    HW230829   1.029   5.441  -0.052 -2.5906 -0.1610  0.2510
10007SOL     OW30830   2.832   1.785   6.966  0.0790  0.8509  0.4618
10007SOL    HW130831   2.810   1.844   6.894  1.7314  0.7202 -0.1862
10007SOL    HW230832   2.800   1.831   7.044  1.9621  3.0569  0.0776
10008SOL     OW30833   0.879   2.904   7.895 -0.0917  0.2740 -0.3092
10008SOL    HW130834   0.893   2.809   7.889  0.7257  0.2771  1.1137
10008SOL    HW230835   0.860   2.920   7.987 -0.6865  1.4520 -0.6176
10009SOL     OW30836   1.899   7.694   0.481  0.6400 -0.3465  0.0847
10009SOL    HW130837   1.845   7.652   0.549 -1.1071  0.3336 -0.8396
10009SOL    HW230838   1.839   7.750   0.433  2.5399  1.8818  0.1312
10010SOL     OW30839   7.090   2.825   0.455  0.3264  0.5325 -1.1437
10010SOL    HW130840   7.049   2.781   0.381  0.1429  0.8887 -1.2555
10010SOL    HW230841   7.018   2.870   0.500  0.0770 -1.2820  0.4172
10011SOL     OW30842   1.338   0.020   3.231  0.5958 -0.4510  0.4518
10011SOL    HW130843   1.415   0.076   3.243  0.8760 -0.4668 -1.0854
10011SOL    HW230844   1.368  -0.049   3.171 -0.6471 -0.3903 -0.2656
10012SOL     OW30845   1.508   7.115   7.914 -0.1764  0.2458  0.1273
10012SOL    HW130846   1.484   7.065   7.992 -1.3063  1.4659  0.6097
10012SOL    HW230847   1.503   7.052   7.843 -0.0842 -0.6737  0.9131
10013SOL     OW30848   1.706   6.053   4.374  0.9850 -0.2979  0.0547
10013SOL    HW130849   1.798   6.032   4.355  0.8570  0.7885 -2.0242
10013SOL    HW230850   1.666   6.065   4.288 -0.6661  1.0457  0.9607
10014SOL     OW30851   7.784   1.353   4.765 -0.0939 -0.4631  0.6246
10014SOL    HW130852   7.872   1.369   4.732 -0.1223 -0.9645  0.2961
10014SOL    HW230853   7.727   1.403   4.707  0.0683  1.1644  1.7884
10015SOL     OW30854   7.203   3.960   4.363  0.2112 -0.2959 -0.0537
10015SOL    HW130855   7.217   4.045   4.404  0.0475 -0.7284  0.9285
10015SOL    HW230856   7.109   3.945   4.370  0.3261 -0.8504  0.3952
10016SOL     OW30857   2.733   1.462   1.348 -0.0292  0.2870  0.3368
10016SOL    HW130858   2.810   1.420   1.386  1.5614  1.1049 -1.7579
10016SOL    HW230859   2.768   1.537   1.299 -2.3455  1.6762  0.6483
10017SOL     OW30860   5.008   3.081   2.345 -0.6971  0.0396 -0.0195
10017SOL    HW130861   5.090   3.129   2.357 -0.6475 -0.0751  0.1025
10017SOL    HW230862   4.943   3.148   2.328 -0.5878  0.1357 -0.0590
10018SOL     OW30863   4.023   5.876   6.321  0.6986  0.3198 -0.1511
10018SOL    HW130864   4.016   5.960   6.276 -1.5590  0.1644 -0.1994
10018SOL    HW230865   3.986   5.893   6.408 -2.2015 -1.1204 -0.9792
10019SOL     OW30866   6.968   1.762   2.283 -0.4053 -0.0453  0.0636
10019SOL    HW130867   6.954   1.824   2.355 -0.0426  0.0002  0.0956
10019SOL    HW230868   6.910   1.688   2.304 -0.7261  0.2144  0.1035
10020SOL     OW30869   3.244   0.253   2.100  0.0391 -0.5609 -0.0867
10020SOL    HW130870   3.326   0.228   2.143  0.7013  2.0377  0.3474
10020SOL    HW230871   3.185   0.276   2.171 -0.3510 -0.4330 -0.4450
10021SOL     OW30872   7.927   6.695   5.955  0.3288  0.6816 -0.0336
10021SOL    HW130873   7.969   6.611   5.937 -0.2781  0.3446  0.1116
10021SOL    HW230874   7.849   6.696   5.900  0.2545  1.0902  0.0707
10022SOL     OW30875   1.994   7.175   2.007  0.5639  0.8042  0.5224
10022SOL    HW130876   2.085   7.195   1.987  0.4251  1.7823  0.8286
10022SOL    HW230877   1.960   7.133   1.928  1.4027  0.0097  0.5766
10023SOL     OW30878   0.786   5.025   4.205  0.6756  0.2057 -0.4228
10023SOL    HW130879   0.743   4.974   4.137  1.0247 -0.9869  0.2243
10023SOL    HW230880   0.738   5.108   4.207 -0.8209 -0.6183 -0.5417
10024SOL     OW30881   7.592   5.366   0.426  0.1351  0.1337  0.2459
10024SOL    HW130882   7.505   5.337   0.401  0.6276 -0.8351 -0.4331
10024SOL    HW230883   7.618   5.306   0.496  0.2725  0.3888  0.4149
10025SOL     OW30884   0.445   3.371   5.362 -0.5150 -0.6146 -0.5434
10025SOL    HW130885   0.507   3.430   5.404 -2.4586  0.7985  0.5307
10025SOL    HW230886   0.476   3.284   5.384 -0.4200  0.0501  2.4124
10026SOL     OW30887   4.481   6.633   7.443  0.3409 -0.2813  0.1875
10026SOL    HW130888   4.489   6.723   7.411  2.8021 -0.3871  0.3491
10026SOL    HW230889   4.496   6.640   7.537 -0.7180 -0.7444  0.4087
10027SOL     OW30890   1.380   4.892   7.005 -0.3793 -0.3611  0.1091
10027SOL    HW130891   1.373   4.949   6.928  0.2321  0.0916  0.3771
10027SOL    HW230892   1.409   4.808   6.970  0.7649  0.0898 -0.0744
10028SOL     OW30893   6.321   0.304   2.181  0.2081  0.1754  0.1841
10028SOL    HW130894   6.390   0.244   2.154  0.2080 -0.3308  1.2621
10028SOL    HW230895   6.249   0.247   2.210 -0.1592  0.6930  0.3108
10029SOL     OW30896   6.385   6.717   1.709  0.3629 -0.6030 -0.4495
10029SOL    HW130897   6.335   6.714   1.791  2.2406 -1.0319  0.7450
10029SOL    HW230898   6.362   6.801   1.669 -1.0187 -0.6390  0.2304
10030SOL     OW30899   1.425   4.755   7.823 -0.2862 -0.4411  0.5662
10030SOL    HW130900   1.368   4.812   7.772 -2.0502 -0.5765  2.2963
10030SOL    HW230901   1.415   4.669   7.782 -0.4698 -0.2506  0.1999
10031SOL     OW30902   7.708   2.336   6.380  0.7649 -0.0207  0.2627
10031SOL    HW130903   7.615   2.334   6.358  0.4547  1.2057  1.3508
10031SOL    HW230904   7.720   2.420   6.424  1.9512 -1.0930  2.0720
10032SOL     OW30905   1.888   0.980   7.294 -0.2638  0.3956 -0.6890
10032SOL    HW130906   1.900   1.020   7.208 -0.8241 -0.2919 -1.0904
10032SOL    HW230907   1.824   1.036   7.338 -3.8876 -1.8895 -2.5623
10033SOL     OW30908   0.743   1.908   1.073 -0.4614  0.1923 -0.3887
10033SOL    HW130909   0.768   1.998   1.095  0.1434 -0.1638  0.3980
10033SOL    HW230910   0.662   1.892   1.123  0.1645 -0.1494  0.5353
10034SOL     OW30911   2.427   3.362   2.018 -0.4654  0.3598 -0.2230
10034SOL    HW130912   2.428   3.456   2.032  0.2308  0.4316 -0.6744
10034SOL    HW230913   2.381   3.326   2.094  2.1645  0.8025  1.7410
10035SOL     OW30914   5.399   1.877   3.940 -0.0910 -0.2230  0.3262
10035SOL    HW130915   5.329   1.846   3.998  0.9978 -2.6563  0.4621
10035SOL    HW230916   5.472   1.818   3.957  2.1162  2.3374  0.2863
10036SOL     OW30917   5.106   3.457   6.594 -0.0946  0.4430 -0.5903
10036SOL    HW130918   5.040   3.414   6.648  1.3854 -0.4749  0.5647
10036SOL    HW230919   5.163   3.502   6.657  0.1095  1.6643 -1.5960
10037SOL     OW30920   3.170   4.723   0.807 -0.6445 -0.1794  0.2381
10037SOL    HW130921   3.133   4.811   0.808 -1.0905 -0.3530  2.1383
10037SOL    HW230922   3.264   4.737   0.794 -0.7140  0.5748  0.4909
10038SOL     OW30923   1.828   6.253   3.852 -0.3005  0.4063  0.4313
10038SOL    HW130924   1.845   6.167   3.813 -0.7379  0.8526 -0.7974
10038SOL    HW230925   1.872   6.315   3.794  0.7197  0.9756  1.7745
10039SOL     OW30926   4.159   1.489   2.479 -0.1344  0.3244  0.4085
10039SOL    HW130927   4.142   1.542   2.401 -1.4181  0.3641  0.6855
10039SOL    HW230928   4.254   1.491   2.489 -0.0283  1.1873 -0.5480
10040SOL     OW30929   2.995   2.354   7.750 -0.2942 -0.0570  0.3629
10040SOL    HW130930   3.031   2.435   7.786  1.1519 -2.0467  3.8168
10040SOL    HW230931   3.063   2.322   7.691 -0.0727  0.2976  0.4225
10041SOL     OW30932   5.980   3.189   2.487  0.2094  0.6343 -0.1019
10041SOL    HW130933   6.035   3.229   2.419 -1.0372 -0.4817 -1.8564
10041SOL    HW230934   5.964   3.100   2.456  0.6162 -0.3737  2.3275
10042SOL     OW30935   3.625   1.972   7.328  0.4867  0.2632  0.4366
10042SOL    HW130936   3.548   1.942   7.279  1.5572 -1.3965 -0.2971
10042SOL    HW230937   3.602   2.061   7.355 -1.3911  0.0887 -0.3875
10043SOL     OW30938   3.399   5.112   7.192 -0.6497 -0.2819  0.4394
10043SOL    HW130939   3.321   5.125   7.137 -0.2696 -1.4505 -0.4094
10043SOL    HW230940   3.366   5.067   7.270 -0.7895 -1.0796 -0.0707
10044SOL     OW30941   3.047   5.147   4.825  0.8064  0.4334  0.0902
10044SOL    HW130942   3.086   5.190   4.749 -0.5391  1.0470 -0.2806
10044SOL    HW230943   2.999   5.217   4.869 -2.1433 -0.7725 -0.9657
10045SOL     OW30944   1.793   3.508   2.858  0.6219  0.0270  0.2543
10045SOL    HW130945   1.746   3.591   2.867  0.0392 -0.3332  0.5411
10045SOL    HW230946   1.785   3.486   2.765  1.6990  0.8207 -0.0561
10046SOL     OW30947   7.383   3.800   5.619  0.2501  0.2195 -0.4882
10046SOL    HW130948   7.321   3.837   5.556  0.0977 -1.5908 -1.4665
10046SOL    HW230949   7.370   3.705   5.613  0.2796 -0.0233  2.2604
10047SOL     OW30950   2.686   6.404   6.562 -0.0471  0.3374 -0.0244
10047SOL    HW130951   2.695   6.457   6.483 -1.4022  1.7375  0.7058
10047SOL    HW230952   2.768   6.355   6.567  0.5334  1.0522 -1.6725
10048SOL     OW30953   3.837   7.188   0.635 -0.0881  0.1309 -0.3578
10048SOL    HW130954   3.762   7.217   0.582 -0.4031  0.9445  0.5006
10048SOL    HW230955   3.908   7.177   0.572  0.1693  3.1808 -0.7475
10049SOL     OW30956   6.979   2.362   7.867 -0.3887 -0.0429  0.1637
10049SOL    HW130957   6.983   2.448   7.908 -1.4745  0.1074 -0.0099
10049SOL    HW230958   6.888   2.354   7.838 -0.7486 -1.8815  1.5861
10050SOL     OW30959   0.933   2.224   6.538 -0.3367  0.0556  0.1407
10050SOL    HW130960   1.027   2.209   6.547 -0.4457 -2.2098 -1.5105
10050SOL    HW230961   0.897   2.206   6.625  0.5604 -1.1099  0.2858
10051SOL     OW30962   0.574   6.133   7.163  0.0429 -0.0839 -0.0967
10051SOL    HW130963   0.614   6.182   7.235  2.1802 -0.1092 -1.1838
10051SOL    HW230964   0.560   6.045   7.198 -0.0839  0.2355  0.6598
10052SOL     OW30965   6.328   4.822   3.782 -0.0244  0.1082  0.2105
10052SOL    HW130966   6.283   4.902   3.754 -1.2971 -0.5385  0.3552
10052SOL    HW230967   6.399   4.811   3.718  0.5245  1.6369  0.5044
10053SOL     OW30968   1.886   6.078   7.061  0.4158  0.3238 -0.0222
10053SOL    HW130969   1.886   6.170   7.087 -0.0782  1.4699 -3.6002
10053SOL    HW230970   1.963   6.068   7.006  0.1719 -1.2799 -0.1321
10054SOL     OW30971   0.041   3.135   3.398  0.8541 -0.0659 -0.0786
10054SOL    HW130972  -0.048   3.165   3.413  0.5198 -0.4183 -1.2657
10054SOL    HW230973   0.084   3.210   3.356  1.5546  0.6338  1.8050
10055SOL     OW30974   6.728   5.066   2.938 -0.7607  0.3585 -0.5820
10055SOL    HW130975   6.808   5.016   2.920 -1.0794 -0.3050 -0.1865
10055SOL    HW230976   6.657   5.002   2.931 -1.0518  0.4185  1.3506
10056SOL     OW30977   7.092   2.459   6.793 -0.0939  0.1355  0.0333
10056SOL    HW130978   7.007   2.428   6.822 -1.3323  1.9557 -1.3291
10056SOL    HW230979   7.130   2.502   6.869 -0.5830 -0.3305  0.5447
10057SOL     OW30980   6.940   3.706   4.897  0.4789 -0.3190  0.5008
10057SOL    HW130981   6.882   3.637   4.866 -1.6648  1.5559  0.0401
10057SOL    HW230982   6.984   3.668   4.973 -1.6741 -1.7309  1.1368
10058SOL     OW30983   0.833   1.603   1.608  0.1521  0.0740  0.0242
10058SOL    HW130984   0.842   1.647   1.692 -2.5603 -0.6061  0.7469
10058SOL    HW230985   0.771   1.656   1.559  1.4371  0.2710 -1.4723
10059SOL     OW30986   0.172   4.867   3.150 -0.1554  0.7075 -0.0479
10059SOL    HW130987   0.129   4.800   3.097 -1.2015  0.4003  1.1623
10059SOL    HW230988   0.127   4.948   3.126 -1.0843  0.4683  0.8237
10060SOL     OW30989   4.551   6.851   0.172 -0.2901  0.5863 -0.0782
10060SOL    HW130990   4.584   6.776   0.122 -1.5112 -1.3339  1.8162
10060SOL    HW230991   4.590   6.927   0.130  1.9801 -1.1710 -1.3743
10061SOL     OW30992   4.750   4.547   0.579  0.3426 -0.5860 -0.4674
10061SOL    HW130993   4.727   4.602   0.654 -0.7695  0.4583 -1.5337
10061SOL    HW230994   4.703   4.465   0.595 -1.5296  0.3492 -0.9813
10062SOL     OW30995   6.433   1.744   5.598  0.4990  0.8406  0.7374
10062SOL    HW130996   6.404   1.794   5.522  0.9332  0.5556  0.3783
10062SOL    HW230997   6.519   1.709   5.573 -0.0021 -0.4930  0.7773
10063SOL     OW30998   1.045   5.155   4.252  0.0019  0.4806 -0.2604
10063SOL    HW130999   1.006   5.236   4.284 -1.6912 -0.9427  1.5065
10063SOL    HW231000   0.976   5.090   4.260  1.8749 -1.5662  0.2412
10064SOL     OW31001   6.359   1.990   6.176  0.1159  0.5360 -0.5870
10064SOL    HW131002   6.279   2.043   6.174 -0.3465 -0.1321 -0.0205
10064SOL    HW231003   6.331   1.903   6.147  0.7717  0.4704 -1.0283
10065SOL     OW31004   2.875   0.767   0.186 -0.6148 -0.2364 -0.3622
10065SOL    HW131005   2.953   0.734   0.230 -1.8514 -1.1114  1.2858
10065SOL    HW231006   2.902   0.850   0.147  1.1622 -0.5948  0.0370
10066SOL     OW31007   6.320   5.469   1.972  0.6026  0.5684 -0.1516
10066SOL    HW131008   6.311   5.537   2.039  1.5074 -0.8662  1.5307
10066SOL    HW231009   6.400   5.422   1.997 -0.1770 -1.3013 -1.0312
10067SOL     OW31010   5.773   5.749   6.882 -0.0128  0.1803 -0.1111
10067SOL    HW131011   5.729   5.666   6.902 -0.0196  0.4043  0.8485
10067SOL    HW231012   5.789   5.745   6.788  1.4711 -1.6513  0.1559
10068SOL     OW31013   1.544   5.071   3.951 -0.1213 -0.1273  0.3270
10068SOL    HW131014   1.613   5.027   3.901 -2.2451 -2.0326 -1.1085
10068SOL    HW231015   1.559   5.041   4.041  0.5127 -1.0854 -0.0722
10069SOL     OW31016   2.929   3.901   7.165 -0.0083  0.3939  0.0144
10069SOL    HW131017   2.979   3.854   7.233  0.8117  0.3084 -0.6382
10069SOL    HW231018   2.915   3.988   7.202  1.4159  0.7193 -0.1441
10070SOL     OW31019   6.442   2.276   3.792 -0.1068 -0.9078 -0.5506
10070SOL    HW131020   6.371   2.339   3.805  0.6490 -0.3670  1.1503
10070SOL    HW231021   6.521   2.329   3.786  0.4192 -1.6224 -0.1069
10071SOL     OW31022   0.786   0.546   5.059 -0.3473  0.1967  0.3596
10071SOL    HW131023   0.772   0.465   5.108  1.0786 -0.3411 -0.0762
10071SOL    HW231024   0.880   0.563   5.067 -0.5619  1.6299  0.1496
10072SOL     OW31025   3.138   1.035   7.697 -0.6209 -0.2183 -0.0765
10072SOL    HW131026   3.152   0.969   7.765 -0.8898 -1.0693 -0.8279
10072SOL    HW231027   3.208   1.020   7.634  0.2718  1.2502  0.4913
10073SOL     OW31028   3.990   7.757   6.202  0.0121  0.1165  0.2408
10073SOL    HW131029   4.002   7.847   6.232  1.1591  0.0226  0.1383
10073SOL    HW231030   3.997   7.704   6.281 -2.4462  0.1968  0.5784
10074SOL     OW31031   2.168   3.891   6.638 -0.4147  0.1550  0.1941
10074SOL    HW131032   2.091   3.942   6.661 -0.4290  0.0048  0.4842
10074SOL    HW231033   2.138   3.832   6.569 -0.0380  1.5233 -1.1885
10075SOL     OW31034   5.434   5.893   0.069  0.2848  0.0037 -0.1904
10075SOL    HW131035   5.362   5.836   0.040 -2.3332  2.6671  0.5856
10075SOL    HW231036   5.490   5.902  -0.008 -2.4324  0.9683 -2.2194
10076SOL     OW31037   4.799   1.095   4.746 -0.2012  0.7105 -0.4089
10076SOL    HW131038   4.730   1.149   4.784 -0.2330  0.2070  0.2696
10076SOL    HW231039   4.878   1.148   4.753 -0.5798  1.4777 -1.6120
10077SOL     OW31040   7.763   0.933   6.590  0.2096  0.1255  0.0818
10077SOL    HW131041   7.788   1.024   6.606  2.4378 -0.3116 -0.5699
10077SOL    HW231042   7.715   0.907   6.669  2.3923  0.9203  1.7637
10078SOL     OW31043   5.934   1.375   2.135 -0.4438  0.1870  0.6208
10078SOL    HW131044   5.936   1.299   2.193  0.4488 -0.4845 -0.2577
10078SOL    HW231045   6.026   1.401   2.127 -0.3391 -0.6993 -1.6985
10079SOL     OW31046   4.291   6.348   1.269 -0.2944  0.1578  0.5231
10079SOL    HW131047   4.366   6.382   1.220  0.2834 -0.4639  0.9519
10079SOL    HW231048   4.263   6.272   1.220  0.8163 -0.9743  1.5481
10080SOL     OW31049   5.560   3.842   3.199  0.1055  0.3229  0.4679
10080SOL    HW131050   5.556   3.931   3.234  2.6510  1.6436 -2.0936
10080SOL    HW231051   5.494   3.841   3.129  2.9540  1.9672 -2.5522
10081SOL     OW31052   6.412   3.560   1.129 -0.4329 -0.1202  0.4837
10081SOL    HW131053   6.388   3.503   1.055 -0.1212 -0.8383  0.9285
10081SOL    HW231054   6.331   3.571   1.178 -0.2639 -1.0850  0.9987
10082SOL     OW31055   5.543   2.594   1.178  0.1773 -0.1616  0.5344
10082SOL    HW131056   5.618   2.539   1.203  0.7498 -0.0323 -0.8184
10082SOL    HW231057   5.583   2.674   1.144 -0.5478 -0.3151 -0.7293
10083SOL     OW31058   4.479   2.879   6.730 -0.4821  0.7666 -0.4515
10083SOL    HW131059   4.513   2.969   6.729  0.3593  0.5004  0.9922
10083SOL    HW231060   4.408   2.882   6.794 -0.1595  0.3082 -0.0708
10084SOL     OW31061   3.335   5.502   7.804  0.2839  0.2143  0.1842
10084SOL    HW131062   3.376   5.587   7.791  0.1352  0.2322 -0.1759
10084SOL    HW231063   3.407   5.439   7.796  0.7428  0.3987  2.2737
10085SOL     OW31064   1.316   4.974   6.047 -0.0357  0.3785 -0.1997
10085SOL    HW131065   1.282   5.017   5.969 -0.6638 -0.1491 -0.2242
10085SOL    HW231066   1.239   4.949   6.097  0.3608  0.9159  0.7206
10086SOL     OW31067   0.220   0.185   7.826 -0.5150 -0.4855 -1.0248
10086SOL    HW131068   0.231   0.280   7.831  0.4659 -0.5197 -2.1300
10086SOL    HW231069   0.129   0.171   7.853 -0.4861  0.6893 -0.2018
10087SOL     OW31070   3.032   0.602   6.641  0.0955 -0.1484 -0.0847
10087SOL    HW131071   2.995   0.545   6.574  1.8493 -0.5098 -0.7930
10087SOL    HW231072   2.974   0.678   6.642 -0.9407 -0.9099 -0.7710
10088SOL     OW31073   3.147   2.703   6.698 -0.0877  0.1048 -0.1056
10088SOL    HW131074   3.151   2.629   6.638  1.1614  0.7291 -0.8317
10088SOL    HW231075   3.229   2.698   6.747  0.4544  1.5256 -0.8191
10089SOL     OW31076   1.801   7.432   1.750  0.1220 -0.9387  0.0682
10089SOL    HW131077   1.829   7.517   1.784  1.2320 -0.2626 -2.2912
10089SOL    HW231078   1.708   7.443   1.732  0.0039 -0.6120  0.8411
10090SOL     OW31079   7.246   6.184   0.409 -0.0848 -0.4493 -0.2833
10090SOL    HW131080   7.305   6.250   0.445 -0.4322  0.3667 -1.1824
10090SOL    HW231081   7.197   6.152   0.485 -1.0539  1.4806 -0.0328
10091SOL     OW31082   2.380   5.081   7.710  0.0506 -0.3192 -0.0858
10091SOL    HW131083   2.341   5.135   7.778  1.0940 -0.8214  0.9374
10091SOL    HW231084   2.320   5.007   7.701 -1.8484  1.3248 -2.0955
10092SOL     OW31085   7.190   3.278   6.542  0.0078  0.1646 -0.4065
10092SOL    HW131086   7.193   3.352   6.481  1.8926  0.4187 -0.0794
10092SOL    HW231087   7.130   3.215   6.501 -0.6221  1.3272 -1.3162
10093SOL     OW31088   2.843   1.714   1.302  0.0968  0.6682  0.3069
10093SOL    HW131089   2.789   1.726   1.380  0.1294  0.5426  0.3495
10093SOL    HW231090   2.908   1.785   1.306  0.5284  0.2574  0.7581
10094SOL     OW31091   6.390   5.336   3.786 -0.4939 -0.0058 -0.7058
10094SOL    HW131092   6.419   5.365   3.872 -0.5615 -0.6702 -0.4561
10094SOL    HW231093   6.467   5.347   3.730 -0.2514 -0.1983 -0.4119
10095SOL     OW31094   2.922   1.179   7.819 -0.1200  0.1317  0.3556
10095SOL    HW131095   2.995   1.236   7.844  1.3092 -1.1671 -0.6163
10095SOL    HW231096   2.950   1.142   7.735 -1.6997 -0.7977  0.2168
10096SOL     OW31097   5.524   0.822   1.302 -0.0777  0.0474  0.1171
10096SOL    HW131098   5.453   0.871   1.345 -0.9385 -0.6186 -0.4953
10096SOL    HW231099   5.573   0.783   1.374 -1.4502 -0.9975  0.5408
10097SOL     OW31100   7.103   2.737   4.577 -0.4400  0.3334  0.1798
10097SOL    HW131101   7.113   2.764   4.486 -1.9425  0.9079  0.1582
10097SOL    HW231102   7.080   2.645   4.572 -0.2979  0.3066 -0.0041
10098SOL     OW31103   3.352   1.176   6.755 -0.1628  0.0628 -0.3283
10098SOL    HW131104   3.443   1.191   6.730  0.1355 -0.9160  0.1347
10098SOL    HW231105   3.332   1.087   6.725 -0.1268 -0.7535  1.8390
10099SOL     OW31106   7.067   7.743   2.833 -0.7214 -0.4241  0.3260
10099SOL    HW131107   7.011   7.688   2.887  0.0203 -3.4140 -1.6635
10099SOL    HW231108   7.156   7.723   2.862 -0.4555  1.0235  0.6151
10100SOL     OW31109   0.104   6.541   5.559 -0.4260  0.1277 -0.5286
10100SOL    HW131110   0.037   6.495   5.508 -1.9322 -1.4383  2.5541
10100SOL    HW231111   0.074   6.632   5.561 -2.9458 -0.6231  1.2174
10101SOL     OW31112   1.548   5.594   7.486  0.6989  0.4900 -0.5811
10101SOL    HW131113   1.579   5.564   7.401 -2.3246 -1.0116 -1.2721
10101SOL    HW231114   1.586   5.532   7.549  1.4271  0.4641 -1.0394
10102SOL     OW31115   1.984   3.961   3.724 -0.3343  0.5433  0.3680
10102SOL    HW131116   2.005   3.899   3.794  0.5825  1.3318  0.8158
10102SOL    HW231117   2.029   3.927   3.647 -0.2853  0.3568  0.4792
10103SOL     OW31118   5.132   1.562   6.880  0.1711 -0.3901  0.4667
10103SOL    HW131119   5.042   1.532   6.875  0.5285 -1.3514 -0.8592
10103SOL    HW231120   5.128   1.655   6.860 -0.5420 -0.3830  0.6282
10104SOL     OW31121   3.664   6.483   2.915  0.3686 -0.6718  0.5707
10104SOL    HW131122   3.634   6.506   2.827 -0.5945  0.5027  1.1705
10104SOL    HW231123   3.759   6.497   2.912  0.1820  0.6804  0.0700
10105SOL     OW31124   4.925   5.208   7.405  0.9307  0.3092 -0.4087
10105SOL    HW131125   4.924   5.186   7.312  0.3694 -0.4231 -0.2457
10105SOL    HW231126   4.871   5.287   7.412  0.7186  0.1871 -0.6669
10106SOL     OW31127   5.999   6.426   6.108  1.1347 -0.3558  0.1264
10106SOL    HW131128   5.904   6.437   6.101  1.2771  1.7954  0.7754
10106SOL    HW231129   6.023   6.477   6.185  2.8913 -0.4366 -0.3238
10107SOL     OW31130   3.000   7.811   2.557 -0.3225 -0.2156  0.1975
10107SOL    HW131131   2.979   7.878   2.492 -2.0604 -0.6861  0.2008
10107SOL    HW231132   2.929   7.818   2.621  1.0387 -0.1509  1.7550
10108SOL     OW31133   4.839   1.853   6.934  0.5503 -0.1010  0.2803
10108SOL    HW131134   4.780   1.819   7.001 -1.3541  2.0724 -0.1324
10108SOL    HW231135   4.795   1.933   6.903  3.1986  1.0075 -0.8934
10109SOL     OW31136   7.216   7.486   5.704 -0.1696  0.8569  0.0128
10109SOL    HW131137   7.153   7.487   5.632 -1.3662  0.5653  1.0246
10109SOL    HW231138   7.276   7.558   5.685 -1.1520  1.5102 -0.6833
10110SOL     OW31139   4.709   5.132   4.726 -0.0719 -0.0465 -0.4884
10110SOL    HW131140   4.742   5.207   4.675  1.4020 -0.0672  0.3696
10110SOL    HW231141   4.686   5.169   4.811 -0.1494 -0.4229 -0.3443
10111SOL     OW31142   1.326   7.474   3.291  0.2771  0.1771  0.1103
10111SOL    HW131143   1.320   7.472   3.387  2.4488  0.2296  0.2985
10111SOL    HW231144   1.356   7.386   3.267  0.1369  0.2919 -0.5058
10112SOL     OW31145   3.913   4.946   2.962  0.4540  0.0628  0.4397
10112SOL    HW131146   3.876   4.943   3.051  0.1124 -0.8453  0.2748
10112SOL    HW231147   3.919   4.854   2.936  0.8404  0.3145 -0.3638
10113SOL     OW31148   2.937   0.232   6.311  0.5113 -0.0540  0.4416
10113SOL    HW131149   2.846   0.202   6.321  0.8789 -2.7836 -2.5665
10113SOL    HW231150   2.940   0.269   6.223  2.0457  1.3682  1.0409
10114SOL     OW31151   3.174   7.737   6.858  0.0804  0.5314  0.0989
10114SOL    HW131152   3.262   7.773   6.858  0.4870 -0.1720  2.8987
10114SOL    HW231153   3.128   7.788   6.925 -1.2237 -0.0298 -0.3393
10115SOL     OW31154   0.264   3.184   7.400 -0.1071  0.1629 -0.0481
10115SOL    HW131155   0.279   3.174   7.494  2.4277  1.3630 -0.2293
10115SOL    HW231156   0.340   3.143   7.359 -0.8830  0.1525 -1.5774
10116SOL     OW31157   0.051   7.107   6.946  0.1576 -0.4060  0.5911
10116SOL    HW131158   0.035   7.136   7.036 -2.1953  1.6249 -0.3598
10116SOL    HW231159  -0.029   7.059   6.922  0.4477 -0.3076 -0.6367
10117SOL     OW31160   4.262   4.938   0.761 -0.1671  0.3351 -0.3164
10117SOL    HW131161   4.290   4.959   0.850 -3.2661  2.8098  0.2959
10117SOL    HW231162   4.199   4.867   0.772  0.0126  0.1229 -0.6403
10118SOL     OW31163   3.523   1.200   3.994  0.3107  0.2011  0.2848
10118SOL    HW131164   3.506   1.120   4.043  0.7275  0.6997  1.2695
10118SOL    HW231165   3.437   1.241   3.985  0.1905 -0.0388  0.3220
10119SOL     OW31166   6.499   2.856   0.973  0.0378 -0.5444  0.2851
10119SOL    HW131167   6.583   2.890   0.942  0.9621 -2.7677  0.1481
10119SOL    HW231168   6.507   2.761   0.965 -2.0851 -0.8813  1.3515
10120SOL     OW31169   6.955   1.671   5.538 -0.1573 -0.4846 -0.7184
10120SOL    HW131170   7.039   1.712   5.555  0.6536 -2.8123  1.5141
10120SOL    HW231171   6.976   1.591   5.491 -0.9289 -1.6747  0.8525
10121SOL     OW31172   2.958   5.967   2.872 -0.1540  0.0816 -0.1094
10121SOL    HW131173   3.014   6.022   2.817  0.0657 -0.4673 -0.4372
10121SOL    HW231174   2.869   5.995   2.850 -0.1921 -1.4576 -2.2328
10122SOL     OW31175   1.446   7.273   6.930 -0.4634 -0.0684 -0.2187
10122SOL    HW131176   1.355   7.300   6.942 -0.2900  0.7409 -0.6584
10122SOL    HW231177   1.486   7.345   6.882  0.2312 -0.7510 -0.6877
10123SOL     OW31178   2.189   1.263   2.172  0.2442  0.1115 -0.2432
10123SOL    HW131179   2.223   1.303   2.093 -1.0835  0.7209 -0.5178
10123SOL    HW231180   2.149   1.181   2.143  0.6625 -0.1703 -0.0447
10124SOL     OW31181   1.640   5.112   5.234  0.6682 -0.2093  0.1159
10124SOL    HW131182   1.604   5.197   5.256 -0.3205 -0.7748  0.7559
10124SOL    HW231183   1.729   5.130   5.203  0.6078  1.0035  0.6327
10125SOL     OW31184   7.578   6.080   0.830 -0.2354 -0.4763  0.1938
10125SOL    HW131185   7.508   6.071   0.765 -0.9739 -0.0494  0.9217
10125SOL    HW231186   7.622   6.162   0.806 -0.0700 -0.6673 -0.1710
10126SOL     OW31187   4.453   3.161   0.422 -0.2198 -0.7775 -0.2545
10126SOL    HW131188   4.455   3.138   0.329  1.0946  0.6188 -0.6219
10126SOL    HW231189   4.400   3.240   0.426  0.1210 -0.5636  0.1031
10127SOL     OW31190   1.994   1.215   7.705 -0.4887  0.1710 -0.0798
10127SOL    HW131191   2.056   1.241   7.773  0.4489 -0.3186 -0.7249
10127SOL    HW231192   1.923   1.172   7.752  0.4649 -0.7655  0.5386
10128SOL     OW31193   5.654   4.188   1.327 -0.1083 -0.1707 -0.6490
10128SOL    HW131194   5.743   4.203   1.359 -0.0826  1.0312 -1.2002
10128SOL    HW231195   5.653   4.229   1.240 -1.0447 -0.6507 -0.8796
10129SOL     OW31196   2.726   2.723   7.062 -0.9283 -0.6551 -0.2495
10129SOL    HW131197   2.673   2.761   7.133 -0.8795  0.1637 -0.6408
10129SOL    HW231198   2.807   2.694   7.105 -1.0560 -0.5124  0.0886
10130SOL     OW31199   2.293   5.801   5.904 -0.2760 -0.2634  0.5206
10130SOL    HW131200   2.222   5.780   5.843 -0.8452  0.6175  0.8619
10130SOL    HW231201   2.248   5.838   5.980  0.6522  2.1018 -0.0176
10131SOL     OW31202   1.437   1.752   4.160 -0.6369 -0.9056 -0.0898
10131SOL    HW131203   1.483   1.804   4.094  1.6009 -0.3901  1.7293
10131SOL    HW231204   1.417   1.669   4.116  0.2913 -0.3800 -1.5743
10132SOL     OW31205   6.116   0.334   3.178  0.1514 -0.4410  0.4382
10132SOL    HW131206   6.048   0.382   3.132  0.6631 -0.2910 -0.1805
10132SOL    HW231207   6.071   0.259   3.216 -0.4868  0.0421  0.6462
10133SOL     OW31208   2.581   5.365   5.640  1.0459 -0.2429 -0.0993
10133SOL    HW131209   2.582   5.400   5.729 -0.9241 -0.2876 -0.0228
10133SOL    HW231210   2.574   5.442   5.584  1.1523 -0.2814 -0.1663
10134SOL     OW31211   5.305   7.793   0.253  0.5252 -0.5639  0.2577
10134SOL    HW131212   5.320   7.752   0.168 -0.7465 -1.9205  0.6392
10134SOL    HW231213   5.354   7.875   0.250 -0.1511 -0.1892 -2.0852
10135SOL     OW31214   4.400   0.270   6.013  0.5345  0.0056  0.2443
10135SOL    HW131215   4.384   0.259   6.107  0.5301 -0.3127  0.2053
10135SOL    HW231216   4.365   0.191   5.973 -0.2749  0.5259 -0.1177
10136SOL     OW31217   5.696   0.911   2.247 -0.1863  0.0838 -0.3711
10136SOL    HW131218   5.671   0.995   2.286 -2.6506 -0.4976 -0.5690
10136SOL    HW231219   5.774   0.931   2.195 -0.0527  1.9890  0.4768
10137SOL     OW31220   6.547   4.038   0.849 -0.1083 -0.6288 -0.3995
10137SOL    HW131221   6.614   4.032   0.917  0.1145 -1.3902 -0.6821
10137SOL    HW231222   6.541   3.950   0.812  2.1144  0.3633 -3.5993
10138SOL     OW31223   4.030   3.237   7.538  0.0927  0.4600  0.0821
10138SOL    HW131224   4.049   3.144   7.553  0.1423  0.2327 -1.2429
10138SOL    HW231225   4.116   3.276   7.520 -0.0611  0.5120 -0.5678
10139SOL     OW31226   3.500   1.953   2.441  0.0564 -0.4724 -0.1201
10139SOL    HW131227   3.556   2.004   2.382 -0.9629 -0.5584 -1.2138
10139SOL    HW231228   3.423   2.009   2.454  0.1989 -0.5303  1.0052
10140SOL     OW31229   5.432   6.266   4.210  0.0833 -0.3432 -0.2315
10140SOL    HW131230   5.428   6.171   4.217 -1.1944 -0.5616 -2.6967
10140SOL    HW231231   5.341   6.295   4.222  0.1981  0.4039 -1.0544
10141SOL     OW31232   1.844   1.483   5.309 -0.3334  0.5049 -0.3047
10141SOL    HW131233   1.928   1.444   5.333  0.1228  2.5184  1.7303
10141SOL    HW231234   1.784   1.457   5.378 -0.5041  1.7760  0.0509
10142SOL     OW31235   3.001   3.934   4.607  0.3471 -0.6330  0.9073
10142SOL    HW131236   2.927   3.876   4.590 -0.6716  1.4118 -3.0835
10142SOL    HW231237   2.963   4.006   4.658 -0.7851  0.6733 -1.5665
10143SOL     OW31238   2.404   2.957   0.843  0.2335 -0.4194  0.0418
10143SOL    HW131239   2.409   3.053   0.840  0.2313 -0.4283 -0.3359
10143SOL    HW231240   2.437   2.929   0.758 -0.4681 -0.7261 -0.1324
10144SOL     OW31241   7.807   1.459   1.728 -0.0367  0.4753 -0.2182
10144SOL    HW131242   7.848   1.430   1.647  3.0872  2.6107  0.4100
10144SOL    HW231243   7.774   1.379   1.769 -1.6261 -0.6723 -3.4260
10145SOL     OW31244   3.429   5.569   2.716  0.0560  0.0548 -0.0403
10145SOL    HW131245   3.392   5.597   2.800  0.1242 -0.4577  0.1630
10145SOL    HW231246   3.380   5.490   2.693  1.1997 -0.7972  0.3735
10146SOL     OW31247   4.454   0.504   5.874 -0.2844  0.6094  0.2330
10146SOL    HW131248   4.447   0.417   5.914  0.0876  0.2195 -0.5162
10146SOL    HW231249   4.369   0.545   5.890 -0.2348  0.3664  1.1712
10147SOL     OW31250   6.134   2.020   3.997  0.0621  0.4298  0.4038
10147SOL    HW131251   6.223   2.002   3.965 -0.2923 -0.1438 -0.2960
10147SOL    HW231252   6.120   1.955   4.065 -0.0063  0.1789  0.1536
10148SOL     OW31253   6.425   4.908   5.451  0.2831 -0.2205 -0.4952
10148SOL    HW131254   6.502   4.904   5.507  1.2813  1.0062 -1.7092
10148SOL    HW231255   6.437   4.836   5.389 -0.1866 -0.7922  0.0652
10149SOL     OW31256   4.780   2.367   0.248 -0.5415  0.6301  0.2755
10149SOL    HW131257   4.690   2.383   0.220 -0.0987  1.0373 -1.0089
10149SOL    HW231258   4.813   2.454   0.271 -0.3451  0.5454  0.3129
10150SOL     OW31259   5.112   2.932   7.539  0.4157  0.2341 -0.2521
10150SOL    HW131260   5.085   3.013   7.497  1.0510  0.2204 -0.7125
10150SOL    HW231261   5.203   2.920   7.511  0.8626  0.2272  1.1322
10151SOL     OW31262   7.940   4.075   1.380 -0.0983  0.0431 -0.0416
10151SOL    HW131263   7.875   4.016   1.417 -0.4984  0.3619 -0.2206
10151SOL    HW231264   8.024   4.030   1.393 -0.4360 -0.7669 -0.5730
10152SOL     OW31265   0.838   6.296   2.507 -0.3393  0.3199 -0.1707
10152SOL    HW131266   0.815   6.345   2.428  0.4526 -0.3500 -0.8329
10152SOL    HW231267   0.933   6.309   2.517  0.1629 -2.1259 -1.1336
10153SOL     OW31268   5.329   2.422   6.782 -0.1219 -0.0137 -0.0606
10153SOL    HW131269   5.403   2.437   6.722  0.9575  0.3903  1.3123
10153SOL    HW231270   5.281   2.505   6.780 -0.2587 -0.1018 -0.5854
10154SOL     OW31271   6.052   7.162   2.382 -0.1227  0.1193  0.3744
10154SOL    HW131272   6.015   7.167   2.294 -2.0426 -3.7251  0.7157
10154SOL    HW231273   5.990   7.209   2.437 -1.8371 -1.7966  0.2173
10155SOL     OW31274   6.068   7.204   5.435  0.5821 -0.6688 -0.0024
10155SOL    HW131275   6.016   7.256   5.374  1.6027  1.7362  1.0566
10155SOL    HW231276   6.066   7.116   5.398 -0.6834  0.2112 -2.2704
10156SOL     OW31277   3.258   7.143   3.140  0.1254  0.4048  0.3056
10156SOL    HW131278   3.352   7.126   3.133  0.2480  0.5721  1.3058
10156SOL    HW231279   3.225   7.138   3.051  0.9107 -0.6871  0.0691
10157SOL     OW31280   6.061   5.025   2.587 -0.5577 -0.5884 -0.3064
10157SOL    HW131281   6.124   5.093   2.611  0.8850 -1.1836 -2.1747
10157SOL    HW231282   6.003   5.068   2.524 -1.4162 -0.3373  0.6299
10158SOL     OW31283   0.474   2.426   1.025 -0.5221 -0.2135  0.5257
10158SOL    HW131284   0.454   2.345   0.978  1.9394  0.6376 -2.3384
10158SOL    HW231285   0.399   2.483   1.007 -0.4164 -0.5110 -0.9775
10159SOL     OW31286   3.494   3.065   6.519 -0.2987 -0.2344  0.1108
10159SOL    HW131287   3.514   3.076   6.426 -0.9884  4.1237  0.2937
10159SOL    HW231288   3.400   3.083   6.526 -0.1615  0.0154  1.7003
10160SOL     OW31289   2.064   3.897   2.452  0.2656  0.7323  0.2692
10160SOL    HW131290   1.979   3.872   2.416  1.2192 -2.4882 -0.0850
10160SOL    HW231291   2.067   3.857   2.539  1.8159 -0.3602 -0.2177
10161SOL     OW31292   4.079   7.202   3.941  0.5966  0.7384  0.2182
10161SOL    HW131293   4.096   7.109   3.952 -1.2897  0.1129 -1.5004
10161SOL    HW231294   4.137   7.230   3.870 -0.1138  0.4029 -0.5130
10162SOL     OW31295   6.818   6.445   5.813 -0.3978  0.4757 -0.0121
10162SOL    HW131296   6.777   6.472   5.731  1.1925  2.4049 -0.2384
10162SOL    HW231297   6.773   6.495   5.881  0.5032  1.4027 -0.0890
10163SOL     OW31298   1.670   1.984   5.711  0.2730  0.1831  0.1226
10163SOL    HW131299   1.598   2.043   5.733  0.0403  0.1785 -0.5959
10163SOL    HW231300   1.745   2.042   5.696  0.4434  0.1833  0.9334
10164SOL     OW31301   0.291   7.282   7.918 -0.6350  0.0679  0.1294
10164SOL    HW131302   0.368   7.255   7.867 -0.8549 -1.0328  0.3787
10164SOL    HW231303   0.327   7.330   7.992 -0.2115 -0.1484  0.0638
10165SOL     OW31304   0.456   5.303   3.348  0.1869 -0.4056  0.3180
10165SOL    HW131305   0.432   5.211   3.362  2.0694 -1.0285 -0.2211
10165SOL    HW231306   0.478   5.308   3.255  1.6735  0.1857  0.6815
10166SOL     OW31307   3.399   7.600   0.386 -0.2441  0.0505 -0.4335
10166SOL    HW131308   3.388   7.577   0.478 -0.5761 -0.9493 -0.7020
10166SOL    HW231309   3.441   7.686   0.387  0.0798 -0.1032  0.6470
10167SOL     OW31310   3.861   3.831   4.726 -0.4017 -0.1943  0.0026
10167SOL    HW131311   3.877   3.758   4.787 -1.1907 -1.4404 -1.2154
10167SOL    HW231312   3.776   3.866   4.752 -0.5403 -0.4489 -0.0998
10168SOL     OW31313   0.246   5.498   3.972 -0.1462  0.0429  0.0500
10168SOL    HW131314   0.300   5.532   3.900 -0.7935 -0.9207 -0.9226
10168SOL    HW231315   0.285   5.535   4.051  0.6383  1.0619 -0.7888
10169SOL     OW31316   2.937   4.872   3.808 -0.1105  0.4244 -0.0732
10169SOL    HW131317   2.969   4.891   3.720 -1.7710  1.5996 -0.4763
10169SOL    HW231318   3.016   4.856   3.859  0.8564 -2.3508 -2.1754
10170SOL     OW31319   0.008   4.952   7.582 -0.5960  0.1036  0.3636
10170SOL    HW131320  -0.086   4.955   7.568 -0.4451  0.3154 -0.6905
10170SOL    HW231321   0.043   4.910   7.503  0.5455  3.5829 -1.2083
10171SOL     OW31322   4.537   4.194   1.608 -0.4345 -0.3573  0.2918
10171SOL    HW131323   4.582   4.116   1.573 -0.2570 -0.3467  0.4919
10171SOL    HW231324   4.551   4.189   1.703 -0.4515 -0.0991  0.3088
10172SOL     OW31325   6.464   3.969   2.639  0.5300  0.2231 -0.0663
10172SOL    HW131326   6.424   3.904   2.697  1.5167  0.4420  0.8736
10172SOL    HW231327   6.449   3.934   2.551 -0.8182 -0.2074  0.3087
10173SOL     OW31328   0.655   5.015   0.875 -0.1091 -0.4736  0.0190
10173SOL    HW131329   0.699   4.931   0.862 -2.6676 -1.7390 -1.1394
10173SOL    HW231330   0.662   5.031   0.969  2.8027 -0.5150 -0.1047
10174SOL     OW31331   7.204   3.452   4.875  0.0136 -0.5061  0.0005
10174SOL    HW131332   7.143   3.457   4.802  0.0665  0.5663  0.0133
10174SOL    HW231333   7.190   3.365   4.912 -0.3987 -0.8527 -0.9452
10175SOL     OW31334   5.402   4.110   7.995  0.2662 -0.0624 -0.5684
10175SOL    HW131335   5.489   4.104   7.956  0.6083  1.8309 -0.2342
10175SOL    HW231336   5.345   4.137   7.923 -0.0356 -1.1664 -0.7562
10176SOL     OW31337   0.804   0.008   4.041 -0.6474 -0.4738 -0.1866
10176SOL    HW131338   0.831   0.091   4.000  0.9229 -0.9530 -0.2015
10176SOL    HW231339   0.713  -0.004   4.013 -1.3183  1.8221  0.7727
10177SOL     OW31340   0.323   7.077   0.971 -0.2806 -0.2179 -0.0119
10177SOL    HW131341   0.335   7.022   0.894 -1.2777 -0.0513 -0.3013
10177SOL    HW231342   0.362   7.161   0.946  2.5164 -1.1361  0.9359
10178SOL     OW31343   5.610   3.029   6.366  0.0688  0.3893 -0.0251
10178SOL    HW131344   5.614   2.949   6.313  0.8719 -0.8786  1.7841
10178SOL    HW231345   5.678   3.086   6.330 -1.4201  0.8736 -2.1929
10179SOL     OW31346   6.632   1.319   2.864  0.3712  0.7590 -0.2158
10179SOL    HW131347   6.624   1.269   2.783  1.2440 -0.5969  0.5077
10179SOL    HW231348   6.701   1.383   2.846  1.5294 -0.4315 -0.1350
10180SOL     OW31349   5.434   2.778   2.591  0.6189  0.4913  0.5629
10180SOL    HW131350   5.415   2.823   2.673 -0.2496  0.5756  0.3213
10180SOL    HW231351   5.402   2.837   2.523 -0.5012 -0.4449  0.2335
10181SOL     OW31352   4.018   6.000   6.841  0.1014  0.6766 -0.0232
10181SOL    HW131353   4.057   5.937   6.901 -0.2810 -0.4692 -0.9529
10181SOL    HW231354   4.050   6.085   6.871 -0.2495  0.1624  1.9262
10182SOL     OW31355   0.669   6.560   1.865  0.1582 -0.3499 -0.1239
10182SOL    HW131356   0.700   6.496   1.930 -1.9235 -0.5710  0.7512
10182SOL    HW231357   0.742   6.570   1.804  2.2049 -0.1772  2.1935
10183SOL     OW31358   1.123   2.503   6.003  0.2020  0.2596 -0.2899
10183SOL    HW131359   1.098   2.596   6.002  0.1344  0.2320 -1.2115
10183SOL    HW231360   1.127   2.481   6.097 -0.7563  0.9289 -0.0793
10184SOL     OW31361   0.235   1.365   3.610 -0.1979  0.2562  0.5227
10184SOL    HW131362   0.313   1.347   3.663  0.3105 -0.4636 -0.4357
10184SOL    HW231363   0.256   1.446   3.564  0.5386 -0.5813 -0.6868
10185SOL     OW31364   4.236   2.102   4.638  0.0709 -0.0596 -0.4139
10185SOL    HW131365   4.258   2.044   4.711  0.2955 -1.6498 -1.6893
10185SOL    HW231366   4.295   2.075   4.567 -1.3241  0.2278 -1.7408
10186SOL     OW31367   2.607   6.989   4.100 -0.0568 -0.0611 -0.1392
10186SOL    HW131368   2.523   6.945   4.090 -1.6247  2.8797 -1.1923
10186SOL    HW231369   2.618   7.039   4.019  0.9239  2.4190  1.4109
10187SOL     OW31370   7.824   5.110   2.681  0.1430 -0.5621 -0.1518
10187SOL    HW131371   7.812   5.045   2.612  0.7653 -0.4065 -0.4103
10187SOL    HW231372   7.744   5.104   2.734 -0.8470  0.0928 -1.5160
10188SOL     OW31373   7.480   0.787   4.937 -0.1434  0.3714 -0.8318
10188SOL    HW131374   7.460   0.867   4.986  1.2989  0.8387 -0.9423
10188SOL    HW231375   7.543   0.740   4.993  0.0444 -0.0318 -1.3700
10189SOL     OW31376   0.303   7.521   2.329  0.4012 -0.1361 -0.0540
10189SOL    HW131377   0.275   7.449   2.386 -0.9088 -0.5516 -1.1911
10189SOL    HW231378   0.399   7.519   2.334  0.3553 -1.2399  0.7910
10190SOL     OW31379   0.538   3.262   0.310 -0.1430  0.5529 -0.3435
10190SOL    HW131380   0.478   3.273   0.384  1.0049 -0.4965  0.8015
10190SOL    HW231381   0.602   3.332   0.322  1.2962 -0.9094  0.9907
10191SOL     OW31382   2.337   0.678   7.017 -0.3904 -0.3528  0.2029
10191SOL    HW131383   2.427   0.706   6.997 -0.8053  0.7071 -0.2751
10191SOL    HW231384   2.343   0.636   7.103  0.3018  1.2016  0.9620
10192SOL     OW31385   4.433   7.599   1.210  0.0604 -0.2215  0.0121
10192SOL    HW131386   4.506   7.648   1.172 -0.4459  0.5299 -0.0152
10192SOL    HW231387   4.382   7.569   1.135 -0.0892 -0.0627  0.0484
10193SOL     OW31388   6.194   6.508   1.470 -0.2305 -0.6434  0.0383
10193SOL    HW131389   6.140   6.538   1.397 -1.0834  1.4905  1.4205
10193SOL    HW231390   6.141   6.527   1.548 -0.0698 -4.2962  1.2473
10194SOL     OW31391   5.364   2.988   1.155  0.5680  0.1537 -0.1512
10194SOL    HW131392   5.337   2.916   1.211  0.0696  0.6357  0.2320
10194SOL    HW231393   5.363   3.065   1.212 -0.7948  0.8088 -0.9966
10195SOL     OW31394   4.426   2.306   1.676 -0.3412  0.1978 -0.5908
10195SOL    HW131395   4.345   2.313   1.725 -0.4051  0.8679 -0.7843
10195SOL    HW231396   4.408   2.239   1.610 -0.2074 -0.8026  0.3709
10196SOL     OW31397   2.251   1.029   7.188 -0.4903 -0.1246  0.5035
10196SOL    HW131398   2.272   0.984   7.269 -0.7412  0.4292  0.8812
10196SOL    HW231399   2.332   1.073   7.163 -1.0551  1.7580  1.7964
10197SOL     OW31400   7.023   4.054   5.076 -0.0354  0.3837 -0.3798
10197SOL    HW131401   7.025   4.020   4.987 -0.2726  1.6037 -0.8660
10197SOL    HW231402   7.102   4.018   5.117 -0.8308 -1.6234 -0.5097
10198SOL     OW31403   6.816   0.240   2.638  0.1594 -0.3080  0.2401
10198SOL    HW131404   6.819   0.305   2.708 -1.0795  1.2567 -1.1050
10198SOL    HW231405   6.807   0.291   2.558  0.9926 -2.0779 -1.0526
10199SOL     OW31406   5.911   3.155   4.163  0.0997 -0.7552  0.2438
10199SOL    HW131407   5.849   3.102   4.213 -1.5142  0.9856  0.2003
10199SOL    HW231408   5.970   3.191   4.229 -1.8221  1.2747  0.9800
10200SOL     OW31409   6.913   0.612   3.053 -0.4101 -0.2375  0.0289
10200SOL    HW131410   6.941   0.689   3.103 -1.0046  0.8800 -1.2990
10200SOL    HW231411   6.991   0.556   3.051  0.2071  0.5741  0.5655
10201SOL     OW31412   5.111   2.952   3.429  0.2589 -0.2277  0.0103
10201SOL    HW131413   5.079   2.880   3.483  0.1764 -1.3023 -1.4185
10201SOL    HW231414   5.130   3.022   3.492  0.0014 -1.3505  1.3992
10202SOL     OW31415   6.326   4.342   6.630 -0.1447  0.1368 -0.3821
10202SOL    HW131416   6.304   4.267   6.575  0.2051  1.2089 -2.0763
10202SOL    HW231417   6.241   4.382   6.650 -0.2192  0.3484 -1.0791
10203SOL     OW31418   1.834   5.337   3.124 -0.0830  0.6216 -0.0150
10203SOL    HW131419   1.827   5.368   3.214 -1.4165 -0.3774  0.2517
10203SOL    HW231420   1.787   5.403   3.073  1.0873  1.4439 -0.0693
10204SOL     OW31421   5.112   4.558   3.447 -0.0785  0.6908 -0.2303
10204SOL    HW131422   5.065   4.498   3.389 -1.2887  0.6126  0.7672
10204SOL    HW231423   5.044   4.590   3.508  1.0037  1.2810  0.7051
10205SOL     OW31424   0.867   5.951   1.128  0.4031 -0.3425 -0.1955
10205SOL    HW131425   0.812   5.995   1.194  0.2742 -0.9684  0.1175
10205SOL    HW231426   0.829   5.979   1.045 -1.3062 -1.8544  0.0120
10206SOL     OW31427   5.971   6.786   4.883 -0.0386 -0.1564  1.0899
10206SOL    HW131428   5.997   6.876   4.867  0.1546 -0.3486  0.2560
10206SOL    HW231429   5.884   6.792   4.921 -0.8949  0.3474 -0.8127
10207SOL     OW31430   7.364   4.225   7.529 -0.4735 -0.4909  0.0761
10207SOL    HW131431   7.324   4.175   7.459  0.0196 -1.1801  0.2737
10207SOL    HW231432   7.298   4.289   7.554 -1.4057 -1.5274  0.3186
10208SOL     OW31433   6.176   6.257   3.626 -0.2469  0.1965 -0.3594
10208SOL    HW131434   6.236   6.221   3.561 -1.3048 -1.1550 -0.6234
10208SOL    HW231435   6.233   6.298   3.691  1.1668 -3.0223  0.6423
10209SOL     OW31436   4.275   2.757   7.875 -0.2871  0.4109  0.0290
10209SOL    HW131437   4.297   2.848   7.895  0.9793  0.1436 -0.1083
10209SOL    HW231438   4.259   2.717   7.960  0.2188  0.5025  0.1710
10210SOL     OW31439   5.779   4.436   0.490  0.6011 -0.4198 -0.5668
10210SOL    HW131440   5.778   4.529   0.512  1.9335 -0.4972 -0.1213
10210SOL    HW231441   5.702   4.425   0.433  0.9786  1.1495 -1.4604
10211SOL     OW31442   0.061   0.018   2.371 -0.4201 -0.0052 -1.1953
10211SOL    HW131443   0.075   0.033   2.464 -1.1617  2.5497 -1.4036
10211SOL    HW231444   0.051  -0.076   2.362  3.7017 -0.8251  0.6762
10212SOL     OW31445   5.857   4.687   1.082 -0.0032  0.3317  0.2409
10212SOL    HW131446   5.883   4.772   1.048  2.1803 -0.2258  0.3462
10212SOL    HW231447   5.871   4.627   1.009 -1.0573 -0.0188  0.3148
10213SOL     OW31448   2.931   0.579   6.347  0.0960 -0.6819  0.6419
10213SOL    HW131449   2.970   0.511   6.293 -0.0087  0.9145 -1.5805
10213SOL    HW231450   2.838   0.555   6.352 -0.1334 -0.2544 -0.9529
10214SOL     OW31451   1.565   7.991   3.532 -0.6176 -0.1195 -0.2248
10214SOL    HW131452   1.488   7.935   3.536 -1.3019  0.8188  0.1235
10214SOL    HW231453   1.568   8.023   3.441 -0.3989 -0.4724 -0.3438
10215SOL     OW31454   3.281   4.340   6.337  0.0348  0.1407 -0.3986
10215SOL    HW131455   3.330   4.322   6.256  0.7106  1.4704 -0.3204
10215SOL    HW231456   3.282   4.435   6.344 -0.2299  0.0561  1.0480
10216SOL     OW31457   0.119   6.532   3.396 -0.5285  0.7392  0.0318
10216SOL    HW131458   0.058   6.467   3.360 -1.7275  1.2077  1.1260
10216SOL    HW231459   0.188   6.539   3.330 -0.9103 -0.8662 -0.5941
10217SOL     OW31460   2.434   0.595   7.786 -0.1344 -0.1154 -0.2895
10217SOL    HW131461   2.343   0.563   7.783 -0.0689 -0.2610 -0.7946
10217SOL    HW231462   2.437   0.664   7.720 -0.0197  0.2763  0.1212
10218SOL     OW31463   6.886   3.654   2.041 -0.1354 -0.2191 -0.1668
10218SOL    HW131464   6.916   3.575   2.086  1.2613  0.1724 -0.3570
10218SOL    HW231465   6.891   3.723   2.108  2.5581  0.4967 -0.9805
10219SOL     OW31466   7.754   4.673   0.089  0.7116  0.4198  0.5744
10219SOL    HW131467   7.804   4.592   0.079  0.0627  0.1242 -0.5013
10219SOL    HW231468   7.735   4.701  -0.001 -2.8408 -0.6473  0.8301
10220SOL     OW31469   2.724   7.671   1.946  0.2573 -0.0275  0.0352
10220SOL    HW131470   2.808   7.705   1.976  0.6080 -0.6831 -0.1790
10220SOL    HW231471   2.745   7.586   1.908 -0.2052  0.6284 -1.7928
10221SOL     OW31472   6.340   4.224   5.411  0.5970 -0.5286  0.1130
10221SOL    HW131473   6.307   4.296   5.358  1.0327  0.1088  0.6824
10221SOL    HW231474   6.424   4.201   5.371  1.9311  1.3247  1.6633
10222SOL     OW31475   1.363   2.767   2.009 -0.2270  0.4243 -0.1702
10222SOL    HW131476   1.360   2.729   1.921  0.4082 -0.5169  0.2012
10222SOL    HW231477   1.295   2.721   2.057 -0.4705  0.8310 -0.1255
10223SOL     OW31478   6.688   4.409   5.147  0.4409  0.7099 -0.2599
10223SOL    HW131479   6.772   4.446   5.119 -0.0758  1.0334 -1.4763
10223SOL    HW231480   6.700   4.315   5.142 -0.3365  0.6533 -4.2107
10224SOL     OW31481   5.261   5.981   7.377 -0.0753 -0.2161 -0.0679
10224SOL    HW131482   5.215   5.980   7.293 -0.7509  0.6444  0.2874
10224SOL    HW231483   5.203   6.027   7.437  1.1444  0.6933  0.4597
10225SOL     OW31484   6.604   0.233   3.298  0.6128 -0.2920 -0.0882
10225SOL    HW131485   6.643   0.193   3.376  1.5485 -0.7196 -0.7511
10225SOL    HW231486   6.565   0.159   3.251  2.8684 -0.6050 -1.6224
10226SOL     OW31487   6.273   4.141   0.517 -0.0295 -0.1173  0.2839
10226SOL    HW131488   6.262   4.230   0.550 -0.4981  0.7264 -1.9552
10226SOL    HW231489   6.282   4.151   0.422  0.5015 -2.4202  0.0171
10227SOL     OW31490   1.424   0.806   4.867  0.0089 -0.0130 -0.0381
10227SOL    HW131491   1.354   0.869   4.884  0.9712  0.7568  1.3468
10227SOL    HW231492   1.408   0.734   4.928  1.5527  1.1609  1.8769
10228SOL     OW31493   3.543   5.765   6.416 -0.2327 -0.5816 -0.2508
10228SOL    HW131494   3.556   5.743   6.324  1.2372 -1.7205  0.2002
10228SOL    HW231495   3.496   5.690   6.452 -1.5187  0.2086 -0.2135
10229SOL     OW31496   6.882   1.672   0.784 -0.1428 -0.2459 -0.8125
10229SOL    HW131497   6.959   1.676   0.841  0.2308 -0.1296 -1.3180
10229SOL    HW231498   6.903   1.605   0.719  0.4393  1.2453 -2.2409
10230SOL     OW31499   2.643   3.939   5.859 -0.0478 -0.0510 -0.2342
10230SOL    HW131500   2.729   3.954   5.899  0.7164 -0.4377 -1.6497
10230SOL    HW231501   2.613   4.027   5.835 -0.5032  0.1838  1.0974
10231SOL     OW31502   1.624   4.597   2.367  0.4955  0.1159  0.3106
10231SOL    HW131503   1.600   4.504   2.374 -2.2853  0.5726 -1.6714
10231SOL    HW231504   1.616   4.631   2.456  2.0523 -1.5692  1.1694
10232SOL     OW31505   4.458   4.768   3.202  0.5863 -0.1727 -0.5290
10232SOL    HW131506   4.379   4.715   3.213 -0.0386  0.6895 -0.7589
10232SOL    HW231507   4.471   4.775   3.108  1.7279 -1.4272 -0.4935
10233SOL     OW31508   1.750   6.830   6.206 -0.5207 -0.3057  0.1661
10233SOL    HW131509   1.754   6.807   6.299 -0.1526 -2.8734 -0.4084
10233SOL    HW231510   1.804   6.909   6.198 -3.2135  1.9937  2.5898
10234SOL     OW31511   6.596   3.418   2.023 -0.2817  0.2076 -0.3226
10234SOL    HW131512   6.635   3.468   2.094  1.3389  1.5869 -2.0789
10234SOL    HW231513   6.635   3.331   2.029  1.1600  0.8164 -0.5056
10235SOL     OW31514   0.239   5.387   7.765  0.3113 -0.2417 -0.3658
10235SOL    HW131515   0.219   5.395   7.858 -3.6300  0.4623 -1.1164
10235SOL    HW231516   0.221   5.296   7.744 -2.0874  0.2994 -0.9624
10236SOL     OW31517   2.580   5.847   6.698 -0.4609  0.6958 -0.4355
10236SOL    HW131518   2.484   5.844   6.703 -0.4945  0.7046 -1.0348
10236SOL    HW231519   2.602   5.937   6.721 -0.3828  0.0187  2.7074
10237SOL     OW31520   6.777   3.910   4.710 -0.5332  0.0801  0.1896
10237SOL    HW131521   6.842   3.936   4.775  0.4828 -1.2328 -0.2530
10237SOL    HW231522   6.817   3.835   4.665 -1.5119  0.5105 -1.4625
10238SOL     OW31523   3.913   2.376   0.786  0.5842 -0.3883  0.0085
10238SOL    HW131524   3.928   2.300   0.842 -1.1353 -0.9613 -0.2480
10238SOL    HW231525   3.981   2.370   0.719  0.0387 -2.1307 -0.4305
10239SOL     OW31526   0.398   1.261   1.077 -0.0600 -0.1185 -0.2316
10239SOL    HW131527   0.452   1.254   1.156  0.4969 -0.2188 -0.6134
10239SOL    HW231528   0.441   1.328   1.024 -1.5324  1.3686  0.3940
10240SOL     OW31529   0.054   4.062   0.636 -0.0409 -0.0414 -0.0260
10240SOL    HW131530   0.009   4.035   0.557  0.8983 -3.3818  0.4390
10240SOL    HW231531  -0.016   4.087   0.696 -0.9074  0.0578 -1.0536
10241SOL     OW31532   3.360   0.307   7.390 -0.0310  0.7070 -0.0524
10241SOL    HW131533   3.427   0.375   7.392  1.9743 -1.1687  1.4137
10241SOL    HW231534   3.409   0.225   7.382 -2.2860 -0.6546 -0.8670
10242SOL     OW31535   4.212   4.237   6.777 -0.1939  0.4277  0.3029
10242SOL    HW131536   4.128   4.196   6.754 -1.0370  1.9955  0.4867
10242SOL    HW231537   4.229   4.298   6.706  1.1890 -0.3873 -0.1026
10243SOL     OW31538   4.980   6.971   0.156 -0.4556  0.2010 -0.5382
10243SOL    HW131539   4.975   6.893   0.212  0.5982  0.5897  0.1126
10243SOL    HW231540   4.912   7.029   0.190  0.2928  0.5086  0.4779
10244SOL     OW31541   4.897   4.491   6.367  0.1203 -0.3208 -0.0288
10244SOL    HW131542   4.808   4.522   6.351  0.1318 -1.4297 -2.6543
10244SOL    HW231543   4.885   4.414   6.424 -0.6539 -0.6601 -0.6276
10245SOL     OW31544   2.952   7.360   4.249 -0.0853  0.3634 -0.8313
10245SOL    HW131545   2.980   7.424   4.184 -1.7666 -0.4842 -2.4771
10245SOL    HW231546   2.862   7.385   4.270 -0.2913 -0.6339 -0.4773
10246SOL     OW31547   5.020   3.580   3.778  0.1797 -0.2664 -0.5173
10246SOL    HW131548   5.056   3.600   3.692  0.3020  0.7197 -0.2517
10246SOL    HW231549   5.090   3.603   3.839 -0.5889  0.9251 -0.0465
10247SOL     OW31550   6.687   2.374   5.048  0.0299 -0.1931  0.0187
10247SOL    HW131551   6.713   2.446   4.990 -0.4512  1.3531  1.6235
10247SOL    HW231552   6.728   2.395   5.132  2.3167 -3.3719 -0.1090
10248SOL     OW31553   7.654   6.717   2.502 -0.1716 -0.0708  0.1621
10248SOL    HW131554   7.598   6.746   2.574 -0.9147 -1.1975  0.0575
10248SOL    HW231555   7.695   6.797   2.469  0.9805  0.3900  2.4799
10249SOL     OW31556   3.387   5.761   4.122 -0.2288  0.5531  0.0946
10249SOL    HW131557   3.375   5.848   4.085 -1.2679  0.6133  0.5616
10249SOL    HW231558   3.414   5.777   4.213 -1.2676  0.3951  0.4407
10250SOL     OW31559   2.504   2.625   3.741 -0.2217  0.1756 -0.2073
10250SOL    HW131560   2.572   2.613   3.675 -0.7519 -0.3531 -0.6711
10250SOL    HW231561   2.492   2.538   3.779  0.8847  0.6874  1.4209
10251SOL     OW31562   7.451   2.997   6.793  0.6736  0.0166  0.2074
10251SOL    HW131563   7.407   3.042   6.865  1.4011  0.1253  0.5900
10251SOL    HW231564   7.471   3.066   6.729  1.3503  0.1682  0.5735
10252SOL     OW31565   3.686   3.941   5.394 -0.9072 -0.0425  0.4027
10252SOL    HW131566   3.643   3.859   5.372 -1.2326  0.2104  0.0864
10252SOL    HW231567   3.662   4.001   5.323  0.6776 -0.1419 -0.2771
10253SOL     OW31568   7.212   5.395   7.435  0.3173 -0.1677  0.2486
10253SOL    HW131569   7.223   5.489   7.427 -0.6664  0.1997  2.4882
10253SOL    HW231570   7.146   5.384   7.504 -0.3112 -2.4789 -0.6019
10254SOL     OW31571   5.378   5.869   3.961 -0.2667  0.2530 -0.0476
10254SOL    HW131572   5.373   5.919   4.042 -1.8946  0.9170 -0.5299
10254SOL    HW231573   5.434   5.794   3.982 -0.0451  0.8142  1.4505
10255SOL     OW31574   2.101   7.517   7.360  0.2414  0.3052 -0.3479
10255SOL    HW131575   2.152   7.469   7.425  1.0394  1.1123 -0.3573
10255SOL    HW231576   2.090   7.456   7.287  0.3912 -0.1865  0.0369
10256SOL     OW31577   5.767   7.452   5.877  0.2943 -0.0677 -0.7250
10256SOL    HW131578   5.841   7.437   5.937 -1.9173 -2.2822  1.7126
10256SOL    HW231579   5.751   7.546   5.883  1.5703  0.1227  0.3901
10257SOL     OW31580   7.715   1.087   6.303  0.0056 -0.0862  0.0745
10257SOL    HW131581   7.803   1.055   6.326 -0.6860 -1.5923  0.7590
10257SOL    HW231582   7.701   1.056   6.214 -0.2772 -0.8837  0.3873
10258SOL     OW31583   5.474   2.623   2.999  0.3262 -0.2186 -0.0430
10258SOL    HW131584   5.487   2.569   2.921 -1.2012 -0.0322 -0.4581
10258SOL    HW231585   5.504   2.710   2.973 -0.3934 -0.1021 -0.5187
10259SOL     OW31586   0.939   2.760   4.848 -0.1360 -0.2265 -0.1745
10259SOL    HW131587   0.952   2.688   4.786  0.0453  0.4246 -0.8925
10259SOL    HW231588   0.859   2.803   4.818  1.2914  1.6554 -1.5286
10260SOL     OW31589   4.270   7.174   3.037  0.1760  0.7100  0.3453
10260SOL    HW131590   4.288   7.130   3.119 -0.8914 -0.0740  0.1785
10260SOL    HW231591   4.313   7.121   2.970  0.7958  1.1830  0.3622
10261SOL     OW31592   7.212   1.521   5.887 -0.0289 -0.2974 -0.3246
10261SOL    HW131593   7.188   1.519   5.980 -0.3233  0.3986 -0.3827
10261SOL    HW231594   7.308   1.523   5.888  0.0406 -1.8293 -0.0748
10262SOL     OW31595   1.188   6.522   1.709 -0.0709 -0.7343 -0.0378
10262SOL    HW131596   1.165   6.534   1.801  0.7779  1.3698 -0.0417
10262SOL    HW231597   1.104   6.513   1.664 -0.5789 -0.0385  0.7477
10263SOL     OW31598   2.009   1.661   0.751 -0.4316 -0.6499  0.1964
10263SOL    HW131599   2.042   1.672   0.841  0.0217  1.2278 -0.1558
10263SOL    HW231600   2.086   1.635   0.700 -0.1488  0.5885 -0.0439
10264SOL     OW31601   5.365   4.815   6.437  0.1564 -0.4451 -0.5508
10264SOL    HW131602   5.336   4.880   6.372 -1.9215  1.1510  1.7855
10264SOL    HW231603   5.290   4.755   6.444  0.3449 -0.5773  0.3692
10265SOL     OW31604   3.315   7.393   5.759  0.4559 -0.1507 -0.2623
10265SOL    HW131605   3.247   7.432   5.704  0.5662 -1.5662 -1.5018
10265SOL    HW231606   3.267   7.334   5.817  0.3779  1.0529  0.9236
10266SOL     OW31607   7.652   4.785   3.132 -0.0537  0.1095  0.0394
10266SOL    HW131608   7.608   4.859   3.174  0.2621 -0.4410  1.3723
10266SOL    HW231609   7.594   4.710   3.147  0.4509 -0.2542  0.2191
10267SOL     OW31610   1.494   4.346   2.405  0.0508  0.1174  0.1113
10267SOL    HW131611   1.440   4.323   2.330  0.4194 -0.6345  0.0732
10267SOL    HW231612   1.493   4.269   2.461  0.0195  0.5680  0.7452
10268SOL     OW31613   3.973   0.282   0.993 -0.0950  0.3116 -0.1031
10268SOL    HW131614   3.883   0.313   0.996 -0.3344 -0.2460 -0.9369
10268SOL    HW231615   4.024   0.355   0.958 -0.2133  0.6537  0.4481
10269SOL     OW31616   5.004   3.308   3.530 -0.1762  0.2339 -0.3290
10269SOL    HW131617   4.928   3.343   3.482  0.3933  1.3475 -0.4405
10269SOL    HW231618   5.068   3.286   3.462 -0.6230 -1.3539 -0.2865
10270SOL     OW31619   4.284   5.167   3.757  0.0696  0.1526  0.0774
10270SOL    HW131620   4.216   5.184   3.823 -0.1496  1.6777 -0.4859
10270SOL    HW231621   4.244   5.194   3.674  0.5584 -1.1515 -0.6025
10271SOL     OW31622   2.042   3.365   7.774 -0.5672 -0.4738  0.7174
10271SOL    HW131623   2.071   3.406   7.856  0.4820  0.9667 -0.3258
10271SOL    HW231624   1.992   3.288   7.802  0.3142 -0.3814  2.6883
10272SOL     OW31625   2.020   4.641   7.295  0.2306  0.3258  0.6874
10272SOL    HW131626   2.048   4.654   7.205  1.0477 -0.1299  0.8673
10272SOL    HW231627   2.056   4.716   7.342  1.4235 -0.3825  0.9642
10273SOL     OW31628   7.690   6.402   4.905 -0.5402 -0.4463  0.6144
10273SOL    HW131629   7.675   6.482   4.856 -1.7963  0.1941  1.9718
10273SOL    HW231630   7.711   6.431   4.994  1.6423 -1.5730  0.5346
10274SOL     OW31631   6.883   1.798   3.679 -0.1071  0.1044  0.4937
10274SOL    HW131632   6.808   1.805   3.620 -0.9008  1.4082  1.5908
10274SOL    HW231633   6.872   1.713   3.721 -1.0169  0.2910  0.6652
10275SOL     OW31634   1.055   0.578   7.519 -0.8773  0.2150  0.2759
10275SOL    HW131635   1.053   0.674   7.515 -0.6540  0.1964 -0.2818
10275SOL    HW231636   1.083   0.551   7.432  0.7721 -0.3002  0.9234
10276SOL     OW31637   4.060   0.003   7.782 -0.1223  0.1968 -0.7817
10276SOL    HW131638   3.992   0.035   7.842 -0.1472  0.6289 -1.0316
10276SOL    HW231639   4.122  -0.042   7.839 -1.0308 -0.9382 -0.6409
10277SOL     OW31640   4.142   4.371   5.290  0.0022  0.6488 -0.0078
10277SOL    HW131641   4.233   4.399   5.288  0.2709  0.2681  2.7924
10277SOL    HW231642   4.094   4.449   5.318 -0.6013  0.8891 -1.6031
10278SOL     OW31643   2.275   7.362   0.181 -0.2222  0.2796  0.0242
10278SOL    HW131644   2.310   7.390   0.096 -0.7067  1.0504  0.0632
10278SOL    HW231645   2.251   7.444   0.224  2.3923  0.1284  1.9921
10279SOL     OW31646   7.595   3.105   1.030  0.0054  0.0085  0.1817
10279SOL    HW131647   7.638   3.175   0.981 -1.1476  0.6455  0.0404
10279SOL    HW231648   7.558   3.048   0.963 -0.4776  0.1844  0.2898
10280SOL     OW31649   2.635   1.481   7.057  0.1005 -0.8687 -0.1574
10280SOL    HW131650   2.697   1.520   6.996 -0.7984  3.0213  1.1420
10280SOL    HW231651   2.582   1.422   7.002  3.0926 -2.2460 -1.7929
10281SOL     OW31652   5.804   1.574   3.141 -0.1413  0.3595 -0.4704
10281SOL    HW131653   5.778   1.509   3.075 -2.2358  1.6201 -0.9891
10281SOL    HW231654   5.858   1.636   3.092 -1.6468  1.2628 -1.0543
10282SOL     OW31655   4.873   7.544   3.081 -0.1610  0.2091 -0.1698
10282SOL    HW131656   4.818   7.619   3.104  0.3984  0.7657 -0.6018
10282SOL    HW231657   4.842   7.473   3.137 -2.0268  0.2019 -1.1147
10283SOL     OW31658   7.653   5.410   0.021  0.3491 -0.4297  0.1042
10283SOL    HW131659   7.734   5.407  -0.030  0.4749  0.3821  0.2438
10283SOL    HW231660   7.628   5.318   0.031  0.2458 -0.5959 -1.5200
10284SOL     OW31661   0.264   5.614   0.514 -0.6130 -0.2367 -0.5783
10284SOL    HW131662   0.213   5.637   0.592  1.0651 -0.2909  0.5896
10284SOL    HW231663   0.295   5.698   0.480 -1.2490 -0.2221 -1.1512
10285SOL     OW31664   2.194   1.740   7.511  0.3458  0.0338  0.1824
10285SOL    HW131665   2.142   1.712   7.586  0.7825 -0.0327  0.4610
10285SOL    HW231666   2.280   1.703   7.526  1.2860  2.4152  1.1628
10286SOL     OW31667   4.910   3.353   6.765 -0.4149 -0.1887 -0.2210
10286SOL    HW131668   4.872   3.333   6.851 -1.9519  0.4505 -0.7309
10286SOL    HW231669   4.839   3.391   6.715  0.5270 -0.3254 -1.7245
10287SOL     OW31670   1.616   6.221   2.462 -0.1680  0.5017 -0.2465
10287SOL    HW131671   1.591   6.314   2.464 -1.2217  0.2289  0.5048
10287SOL    HW231672   1.662   6.207   2.545 -1.0316  0.1046  0.1784
10288SOL     OW31673   0.761   3.623   2.837 -0.4336 -0.2129  0.6547
10288SOL    HW131674   0.758   3.686   2.765 -1.9537  1.3028  1.9650
10288SOL    HW231675   0.711   3.548   2.804  0.3746 -0.2670 -0.4910
10289SOL     OW31676   2.287   0.828   3.745 -0.1346  0.4152 -0.0656
10289SOL    HW131677   2.311   0.893   3.811  0.7449  0.4812 -0.4277
10289SOL    HW231678   2.247   0.878   3.674 -0.7969  0.3812  0.2800
10290SOL     OW31679   2.921   1.308   3.158  0.2832 -0.0967  0.3313
10290SOL    HW131680   2.856   1.321   3.088  1.6640  0.1895 -0.9525
10290SOL    HW231681   2.938   1.395   3.192  0.3775 -0.1091  0.3149
10291SOL     OW31682   4.191   2.598   0.102  0.1974 -0.2141 -0.6644
10291SOL    HW131683   4.120   2.631   0.157 -0.2998  2.2405 -2.5673
10291SOL    HW231684   4.271   2.633   0.140  0.0890 -0.4623 -0.2101
10292SOL     OW31685   4.826   7.363   1.960  0.0173  0.2454 -0.0215
10292SOL    HW131686   4.795   7.433   1.903 -0.8428 -0.9378 -1.0550
10292SOL    HW231687   4.918   7.352   1.937 -0.0888  0.4071 -0.5418
10293SOL     OW31688   7.375   1.337   2.740  0.0491 -0.2990 -0.0397
10293SOL    HW131689   7.450   1.277   2.736  0.0434 -0.2773 -0.5558
10293SOL    HW231690   7.413   1.424   2.728 -0.1806 -0.3824 -1.5128
10294SOL     OW31691   7.872   1.681   5.161 -0.2126 -0.0539  0.3706
10294SOL    HW131692   7.927   1.614   5.203 -1.3487 -1.9862 -1.0547
10294SOL    HW231693   7.812   1.709   5.231 -0.1596 -1.0358  0.8278
10295SOL     OW31694   7.164   6.196   5.100 -0.1977 -0.3170 -0.2805
10295SOL    HW131695   7.164   6.288   5.129 -2.1488 -0.0406 -1.0250
10295SOL    HW231696   7.202   6.199   5.012  0.9281 -0.4290  0.1856
10296SOL     OW31697   7.535   3.438   1.297  0.4181 -0.4105  0.1267
10296SOL    HW131698   7.610   3.379   1.293 -0.9588 -2.2427  0.0065
10296SOL    HW231699   7.459   3.381   1.286 -0.9245  1.6723 -2.7109
10297SOL     OW31700   5.408   1.337   2.633 -0.7562 -0.4228  0.5478
10297SOL    HW131701   5.400   1.269   2.700  1.7258 -1.6521 -0.2687
10297SOL    HW231702   5.388   1.292   2.551 -1.3929  0.4462  0.2214
10298SOL     OW31703   6.008   0.420   5.942  0.4810  0.2348 -0.0677
10298SOL    HW131704   5.952   0.423   6.020 -0.2270  0.5686 -0.5792
10298SOL    HW231705   6.062   0.342   5.955  0.1331  0.0906  0.5968
10299SOL     OW31706   1.515   4.033   1.039 -0.1043  0.6049  0.0719
10299SOL    HW131707   1.541   4.031   1.131  0.1692 -0.6333 -0.0184
10299SOL    HW231708   1.527   4.125   1.013  0.1469  0.8960  1.1677
10300SOL     OW31709   0.489   2.143   4.798  0.1662 -0.6922  0.4970
10300SOL    HW131710   0.435   2.109   4.728  2.0476 -2.2120 -0.2852
10300SOL    HW231711   0.575   2.159   4.758  1.5469 -2.3605  2.5300
10301SOL     OW31712   6.515   7.227   7.783 -0.4741  0.2965  0.6589
10301SOL    HW131713   6.522   7.134   7.762  0.6195  0.7531 -1.1648
10301SOL    HW231714   6.430   7.236   7.826 -2.0382 -1.0842 -1.8993
10302SOL     OW31715   7.841   2.836   2.078 -0.0623  0.2220 -0.5973
10302SOL    HW131716   7.747   2.852   2.081  0.1290  1.8745 -1.9152
10302SOL    HW231717   7.873   2.897   2.011  1.7035 -1.4991 -1.4028
10303SOL     OW31718   4.455   5.769   4.897 -0.5704  0.2947  0.4857
10303SOL    HW131719   4.503   5.700   4.943 -0.8813  0.4968  1.1331
10303SOL    HW231720   4.368   5.732   4.883 -0.8507  0.6797  1.1617
10304SOL     OW31721   1.978   5.749   4.028 -0.1308 -0.3497 -0.0386
10304SOL    HW131722   2.042   5.784   4.090  0.1739  1.3296 -1.2450
10304SOL    HW231723   1.931   5.682   4.078  3.0951 -2.3001  0.6638
10305SOL     OW31724   7.609   5.194   0.640 -0.1056 -0.0678 -0.4463
10305SOL    HW131725   7.538   5.136   0.665  0.8140 -0.4003  1.5740
10305SOL    HW231726   7.681   5.135   0.616  0.0794  0.2622 -0.7253
10306SOL     OW31727   0.446   2.644   2.807 -0.1624  0.0960  0.0261
10306SOL    HW131728   0.373   2.700   2.833 -0.0495  0.5653 -0.6419
10306SOL    HW231729   0.475   2.604   2.889 -0.2946  0.9688  0.5195
10307SOL     OW31730   7.035   1.523   1.334 -0.0600 -0.0236  0.1385
10307SOL    HW131731   7.115   1.485   1.370  0.4854  2.0832  1.3558
10307SOL    HW231732   7.000   1.576   1.405 -1.5030  0.6015 -0.9872
10308SOL     OW31733   0.974   5.995   4.304 -0.0310  0.2664  0.0670
10308SOL    HW131734   0.939   6.044   4.230 -1.5444 -0.5668  0.1839
10308SOL    HW231735   0.897   5.971   4.355  0.5682 -2.4845 -0.1499
10309SOL     OW31736   1.894   7.184   0.802 -0.0791  0.3169 -0.5792
10309SOL    HW131737   1.812   7.231   0.790 -0.5835  0.1271  1.7368
10309SOL    HW231738   1.917   7.197   0.894  0.8630 -2.2102 -0.3739
10310SOL     OW31739   5.896   5.529   2.237 -0.2425 -0.7439  0.3151
10310SOL    HW131740   5.872   5.583   2.161  0.1549 -2.3931 -1.0241
10310SOL    HW231741   5.813   5.490   2.266 -0.0899 -1.7442 -0.5783
10311SOL     OW31742   6.904   0.381   5.000 -0.2289  0.4508 -0.6983
10311SOL    HW131743   6.832   0.318   5.005 -0.0566  0.3478  3.3136
10311SOL    HW231744   6.879   0.452   5.058  1.4015  2.1967 -1.9868
10312SOL     OW31745   6.115   2.280   3.040 -0.4642 -0.9839  0.3915
10312SOL    HW131746   6.046   2.301   2.978  0.0478 -1.4319 -0.3429
10312SOL    HW231747   6.136   2.188   3.023  1.7072 -0.3347 -0.8254
10313SOL     OW31748   7.913   2.531   6.228  0.0460 -0.3579 -0.5589
10313SOL    HW131749   7.872   2.548   6.312 -0.7261  0.5903 -1.1147
10313SOL    HW231750   8.007   2.544   6.244 -0.0641 -0.4887  0.2174
10314SOL     OW31751   6.651   4.091   2.808 -0.9731 -0.5804  0.0420
10314SOL    HW131752   6.582   4.062   2.749 -1.3330  0.4523 -0.0778
10314SOL    HW231753   6.656   4.023   2.875  0.4855 -2.5723 -1.9397
10315SOL     OW31754   3.327   0.103   5.681  0.0143 -0.4616  0.4098
10315SOL    HW131755   3.243   0.084   5.723  0.3955  1.5098  2.2630
10315SOL    HW231756   3.391   0.100   5.752  0.4703  4.5132  0.5769
10316SOL     OW31757   1.012   2.583   6.960 -0.0130  0.4106  0.0051
10316SOL    HW131758   1.089   2.592   7.016 -0.4851 -1.1902  0.9498
10316SOL    HW231759   1.042   2.531   6.886 -0.2120 -0.3203  0.4358
10317SOL     OW31760   4.453   2.645   0.815 -0.4277  0.4406 -0.0868
10317SOL    HW131761   4.543   2.652   0.783  0.0214  0.7858  1.2118
10317SOL    HW231762   4.434   2.731   0.853 -0.5094 -0.3142  1.6485
10318SOL     OW31763   6.106   6.325   7.721 -0.1705 -0.1382  0.1228
10318SOL    HW131764   6.184   6.288   7.681  0.6397  0.7176  0.8378
10318SOL    HW231765   6.068   6.254   7.772  1.2239 -0.0765  1.2916
10319SOL     OW31766   6.466   0.852   2.043 -0.0369 -0.1698  0.1843
10319SOL    HW131767   6.393   0.814   1.994 -1.6479 -0.2378  2.4308
10319SOL    HW231768   6.535   0.786   2.040 -1.4424 -1.7460  0.9805
10320SOL     OW31769   1.952   4.465   2.422 -0.4974  0.3671  0.4344
10320SOL    HW131770   1.857   4.460   2.408 -0.4107 -1.5261  0.2277
10320SOL    HW231771   1.982   4.375   2.410  1.4928  1.1177 -0.6256
10321SOL     OW31772   0.687   0.701   4.196  0.1119  0.2944 -0.2047
10321SOL    HW131773   0.671   0.721   4.289 -1.0380  1.4711 -0.6232
10321SOL    HW231774   0.741   0.623   4.198  0.4996  0.5539  1.4784
10322SOL     OW31775   3.228   2.361   7.093  0.1580 -0.4189  0.6966
10322SOL    HW131776   3.155   2.319   7.047  0.8041 -0.6833 -0.0929
10322SOL    HW231777   3.304   2.309   7.071  0.7725  0.4576  0.6981
10323SOL     OW31778   1.456   5.829   0.510  0.7044 -0.4083  0.1550
10323SOL    HW131779   1.418   5.743   0.529 -0.2568 -0.4340 -1.6994
10323SOL    HW231780   1.455   5.875   0.594 -0.1732 -1.6633  0.8620
10324SOL     OW31781   2.490   4.630   0.552  0.3403  0.0551 -0.2505
10324SOL    HW131782   2.457   4.684   0.624 -0.9673  0.7791 -1.3354
10324SOL    HW231783   2.544   4.563   0.595 -1.7518 -0.5912  1.5930
10325SOL     OW31784   7.346   3.731   6.540 -0.2730 -0.3458  0.5825
10325SOL    HW131785   7.261   3.721   6.583 -0.4862 -0.5906  0.1070
10325SOL    HW231786   7.402   3.665   6.581 -0.3061 -0.1831  0.8979
10326SOL     OW31787   5.285   3.140   4.151 -0.0381  0.3889  0.0886
10326SOL    HW131788   5.228   3.181   4.086  0.7235  0.2126 -0.7112
10326SOL    HW231789   5.227   3.080   4.199 -0.8758  1.4323  0.4140
10327SOL     OW31790   2.596   7.391   2.344 -0.1967  0.1403  0.3276
10327SOL    HW131791   2.600   7.367   2.252 -0.3028  1.2402  0.0243
10327SOL    HW231792   2.505   7.416   2.359 -0.3618 -0.7668  0.9366
10328SOL     OW31793   6.602   3.283   1.222  0.1656 -0.7553 -0.1369
10328SOL    HW131794   6.592   3.308   1.130 -0.7232 -3.3112 -0.8108
10328SOL    HW231795   6.519   3.309   1.263 -0.8376 -2.6378 -0.8724
10329SOL     OW31796   3.325   0.733   3.412  0.0326 -0.2715 -0.4878
10329SOL    HW131797   3.328   0.797   3.341  0.1250 -0.4478 -0.6425
10329SOL    HW231798   3.290   0.782   3.487 -0.3075 -0.1510 -0.7244
10330SOL     OW31799   6.402   0.684   5.730  0.5096 -0.2963  0.4279
10330SOL    HW131800   6.482   0.645   5.766  0.6649  0.3509  0.7946
10330SOL    HW231801   6.334   0.619   5.748  0.7590 -0.3898  1.0558
10331SOL     OW31802   6.069   7.894   5.802  0.4265  0.5030  0.0162
10331SOL    HW131803   6.117   7.905   5.720 -0.2803  0.6236 -0.3840
10331SOL    HW231804   6.065   7.982   5.840  0.6153  0.4742  0.1033
10332SOL     OW31805   7.289   5.812   2.486  0.2493 -0.7411  0.3277
10332SOL    HW131806   7.304   5.724   2.452  0.1569 -0.9219  0.7477
10332SOL    HW231807   7.317   5.808   2.578 -1.2985 -0.8006  0.8352
10333SOL     OW31808   2.518   5.091   6.334 -0.1237 -0.0037  0.5144
10333SOL    HW131809   2.584   5.146   6.375 -1.5172  1.1297  1.2904
10333SOL    HW231810   2.564   5.009   6.316  1.0992  0.2043  2.3971
10334SOL     OW31811   7.669   5.568   2.487 -0.0316  0.5967 -0.0200
10334SOL    HW131812   7.640   5.504   2.552  0.1040 -1.5347 -1.9359
10334SOL    HW231813   7.759   5.589   2.513  0.8876 -2.0880 -0.7883
10335SOL     OW31814   3.140   4.307   5.578 -0.9327  0.0682  0.3901
10335SOL    HW131815   3.215   4.268   5.535 -0.7279  0.1602  0.6603
10335SOL    HW231816   3.090   4.233   5.611 -2.0575 -0.1093 -1.5537
10336SOL     OW31817   7.136   5.341   6.071  0.3394 -0.3760  0.4734
10336SOL    HW131818   7.141   5.334   5.976 -0.5052 -0.4248  0.4252
10336SOL    HW231819   7.130   5.250   6.101 -2.0652 -0.3201  0.3818
10337SOL     OW31820   1.282   1.667   7.281 -0.2090  0.0533  0.1525
10337SOL    HW131821   1.252   1.757   7.268 -1.1898 -0.3445 -0.4355
10337SOL    HW231822   1.293   1.659   7.376 -0.3801  0.7086  0.2339
10338SOL     OW31823   1.156   4.088   2.305  0.0612  0.2802 -0.2361
10338SOL    HW131824   1.094   4.099   2.232  0.2044 -2.9766 -0.9863
10338SOL    HW231825   1.123   4.012   2.353  2.7539 -0.8164  0.0504
10339SOL     OW31826   0.752   1.665   5.413 -0.7943  0.5321 -0.0732
10339SOL    HW131827   0.682   1.645   5.351 -0.9072 -1.1310  0.5539
10339SOL    HW231828   0.817   1.713   5.361 -1.5625  0.4965 -1.0985
10340SOL     OW31829   4.620   6.449   6.976 -0.0098  0.2258  0.0905
10340SOL    HW131830   4.657   6.370   7.015  0.9414  2.1598  3.5517
10340SOL    HW231831   4.695   6.506   6.960 -0.7360  0.7724 -1.5828
10341SOL     OW31832   1.973   2.016   2.815  0.4651 -0.4268 -0.5013
10341SOL    HW131833   1.913   2.044   2.885 -0.0505  1.7931 -1.7409
10341SOL    HW231834   1.942   1.929   2.790 -0.5080 -0.4670  0.7396
10342SOL     OW31835   3.604   6.327   0.216  0.2082 -0.1772 -0.2955
10342SOL    HW131836   3.585   6.296   0.304  1.6527 -0.9710 -0.2383
10342SOL    HW231837   3.545   6.277   0.160  0.3238 -0.7534  0.0921
10343SOL     OW31838   1.237   5.604   1.175 -0.4273 -0.3401 -0.4286
10343SOL    HW131839   1.314   5.650   1.208 -0.3073 -0.9502  0.1479
10343SOL    HW231840   1.235   5.625   1.081  0.9054 -0.9841 -0.6142
10344SOL     OW31841   7.731   4.009   4.458 -0.1701 -0.6128 -0.4141
10344SOL    HW131842   7.691   4.009   4.545 -0.5152 -1.1217 -0.5696
10344SOL    HW231843   7.816   4.050   4.472 -1.0838  1.3328 -0.2546
10345SOL     OW31844   3.589   7.798   5.932  0.5320 -0.4198 -0.5780
10345SOL    HW131845   3.539   7.718   5.915  0.6192 -1.0345  1.8068
10345SOL    HW231846   3.680   7.770   5.929  0.5755 -0.3215 -0.1264
10346SOL     OW31847   0.488   4.096   0.748 -0.2257  0.0213 -0.4714
10346SOL    HW131848   0.421   4.029   0.741 -0.2374 -0.0143 -0.0450
10346SOL    HW231849   0.571   4.048   0.745 -0.2333 -0.0112 -0.2337
10347SOL     OW31850   7.554   6.372   4.602 -0.0200  0.0408  0.1671
10347SOL    HW131851   7.619   6.318   4.649  1.6647  0.4417 -1.5741
10347SOL    HW231852   7.556   6.339   4.513 -1.9455  0.3818 -0.0361
10348SOL     OW31853   7.373   4.724   5.350 -0.1117  0.2562 -0.5043
10348SOL    HW131854   7.290   4.676   5.358  1.1610 -2.0352 -0.3247
10348SOL    HW231855   7.385   4.766   5.435 -0.1923 -0.9681  0.1298
10349SOL     OW31856   0.989   7.060   0.558  0.2214 -0.3431 -0.6196
10349SOL    HW131857   0.995   7.078   0.464  1.1676 -0.5197 -0.6001
10349SOL    HW231858   1.063   7.106   0.596 -0.1957 -0.2131  0.0614
10350SOL     OW31859   6.323   3.024   2.743 -0.2584 -0.0858  0.1579
10350SOL    HW131860   6.235   2.992   2.759 -0.2675  0.2548  0.8175
10350SOL    HW231861   6.353   2.975   2.666 -0.5230 -1.1609  0.7289
10351SOL     OW31862   0.241   6.638   7.602  0.4135  0.0797  0.5010
10351SOL    HW131863   0.160   6.640   7.551  0.4359  0.3061  0.4717
10351SOL    HW231864   0.297   6.704   7.560  0.2590  0.6101  1.1051
10352SOL     OW31865   4.966   7.391   2.311 -0.0640 -0.7219 -0.0976
10352SOL    HW131866   4.974   7.359   2.401 -4.5945  1.1838  1.2607
10352SOL    HW231867   4.872   7.395   2.295  0.4593  1.8816 -3.9003
10353SOL     OW31868   4.058   7.347   7.467  0.2371 -0.0246 -0.0744
10353SOL    HW131869   3.983   7.336   7.525 -0.4296 -0.1104 -0.9325
10353SOL    HW231870   4.020   7.351   7.379  1.3165 -1.0128 -0.6094
10354SOL     OW31871   5.425   6.187   4.982  0.3763 -0.3763  0.1280
10354SOL    HW131872   5.388   6.250   5.044 -0.1957 -0.0370 -0.5525
10354SOL    HW231873   5.494   6.235   4.937 -0.4227 -0.0474 -0.7781
10355SOL     OW31874   0.602   6.526   6.778 -0.1050 -0.4205 -0.8598
10355SOL    HW131875   0.600   6.506   6.684 -0.0809 -0.9931 -0.7467
10355SOL    HW231876   0.523   6.576   6.794 -0.8539 -1.5348 -0.9354
10356SOL     OW31877   7.520   3.600   4.808 -0.1473  0.3427  0.0913
10356SOL    HW131878   7.515   3.505   4.818  0.8864  0.0700 -1.6357
10356SOL    HW231879   7.472   3.634   4.883  1.2444 -1.4933  1.9048
10357SOL     OW31880   4.780   2.782   6.222  0.9336  0.1257  0.4060
10357SOL    HW131881   4.855   2.782   6.281  1.5432 -0.5025 -0.3420
10357SOL    HW231882   4.781   2.695   6.183  0.3919  0.4401 -0.3302
10358SOL     OW31883   4.233   6.372   6.250 -0.1451  0.6949  0.0746
10358SOL    HW131884   4.232   6.458   6.292  1.6590  1.1028 -0.6327
10358SOL    HW231885   4.324   6.358   6.225  0.3719 -2.8728  3.0520
10359SOL     OW31886   1.525   5.188   3.334 -1.0129  0.0107 -0.5505
10359SOL    HW131887   1.441   5.165   3.375 -1.1321 -0.7836 -1.2037
10359SOL    HW231888   1.516   5.156   3.244 -0.7585  1.6826 -1.2159
10360SOL     OW31889   1.868   1.344   3.818 -0.1722 -0.4904 -0.1144
10360SOL    HW131890   1.876   1.270   3.758 -0.2891 -0.8354  0.2895
10360SOL    HW231891   1.948   1.394   3.804  0.1739 -0.9976  0.0102
10361SOL     OW31892   2.928   6.098   5.727  0.1438 -0.2625  0.3377
10361SOL    HW131893   2.979   6.167   5.769  0.6068 -1.2639  1.4829
10361SOL    HW231894   2.870   6.065   5.795  0.1576 -1.2182 -0.0927
10362SOL     OW31895   2.370   3.738   6.770 -0.2442 -0.3337  0.4292
10362SOL    HW131896   2.290   3.786   6.753  0.3067  1.1428  1.7839
10362SOL    HW231897   2.438   3.786   6.724  0.0932 -0.6742  0.5597
10363SOL     OW31898   0.604   0.308   1.615  0.2878  0.3366 -0.0202
10363SOL    HW131899   0.586   0.331   1.524  1.2088 -0.2288 -0.3599
10363SOL    HW231900   0.577   0.217   1.622 -1.1332  0.7869  0.6795
10364SOL     OW31901   5.709   3.902   3.751  0.0981 -0.5809  0.2283
10364SOL    HW131902   5.768   3.843   3.798  1.7256  0.7998  0.0190
10364SOL    HW231903   5.675   3.850   3.678  1.8686 -1.1344 -0.2385
10365SOL     OW31904   5.791   7.760   5.848  0.1129 -0.4442 -0.0068
10365SOL    HW131905   5.842   7.825   5.800  2.0925 -1.1037  1.0687
10365SOL    HW231906   5.719   7.737   5.789  0.9046  0.7429 -1.4948
10366SOL     OW31907   2.768   4.657   7.194 -0.0024  0.0338 -0.2299
10366SOL    HW131908   2.717   4.591   7.148  0.2910 -0.4744  0.1766
10366SOL    HW231909   2.854   4.653   7.153  0.5226 -1.0259  0.9305
10367SOL     OW31910   3.632   3.659   4.509  0.4019 -0.1845 -0.3573
10367SOL    HW131911   3.607   3.584   4.563  1.4739 -1.7600 -1.9323
10367SOL    HW231912   3.563   3.724   4.524 -0.0505 -1.0621  1.8028
10368SOL     OW31913   7.724   6.610   1.256 -0.0759  0.3540  0.3462
10368SOL    HW131914   7.642   6.566   1.237 -1.7872  3.6891 -0.8363
10368SOL    HW231915   7.778   6.596   1.179  0.0898 -0.9689  0.6816
10369SOL     OW31916   0.893   0.651   7.903 -0.1192  0.2841  0.3343
10369SOL    HW131917   0.937   0.599   7.970 -2.4144 -0.9505  1.0179
10369SOL    HW231918   0.931   0.738   7.911  2.8400 -0.8894  0.1329
10370SOL     OW31919   5.030   5.011   3.043 -0.3249 -0.1945  0.7497
10370SOL    HW131920   5.034   5.020   2.947 -1.8473  2.2487  0.8199
10370SOL    HW231921   5.121   5.012   3.071  0.1051  0.9380 -0.5703
10371SOL     OW31922   1.228   1.353   3.654 -0.2424 -0.2883 -0.3133
10371SOL    HW131923   1.309   1.350   3.706  1.1307 -0.6064 -2.3521
10371SOL    HW231924   1.167   1.297   3.702  0.8610 -0.3781  1.0785
10372SOL     OW31925   5.262   5.359   0.138  0.2825 -0.2437  0.0852
10372SOL    HW131926   5.348   5.371   0.099  1.6075 -1.3983  2.4778
10372SOL    HW231927   5.241   5.267   0.123 -0.5054 -0.0024 -0.3692
10373SOL     OW31928   4.725   3.969   1.538 -0.0665  0.2107 -0.2270
10373SOL    HW131929   4.805   4.003   1.497  0.0312  0.0177 -0.1967
10373SOL    HW231930   4.744   3.877   1.556 -0.3183  0.1497 -0.2714
10374SOL     OW31931   4.657   6.142   3.406  0.5634 -0.5387  0.3466
10374SOL    HW131932   4.726   6.089   3.367  1.1588  0.1388  0.4651
10374SOL    HW231933   4.678   6.144   3.499  0.6929  0.1172  0.3062
10375SOL     OW31934   1.783   6.910   0.936 -0.4456  0.6677  0.1640
10375SOL    HW131935   1.820   6.923   1.023 -2.4161 -0.0935  1.1630
10375SOL    HW231936   1.822   6.979   0.882  0.0234  1.7842  1.8777
10376SOL     OW31937   7.503   7.618   4.402  0.3605  0.6987 -0.0662
10376SOL    HW131938   7.486   7.651   4.313 -2.0636  0.4789  0.2525
10376SOL    HW231939   7.592   7.582   4.397  0.2052  0.4537 -2.4872
10377SOL     OW31940   3.092   6.202   7.706  0.4552  0.0692  0.3772
10377SOL    HW131941   3.125   6.289   7.681  2.3951 -1.1894 -1.9847
10377SOL    HW231942   3.169   6.156   7.737 -0.1592 -1.3288 -0.0934
10378SOL     OW31943   4.134   1.646   2.801 -0.0048 -0.4902  0.0619
10378SOL    HW131944   4.089   1.730   2.789  0.9615  0.1605  0.7942
10378SOL    HW231945   4.208   1.651   2.741  0.1742 -0.7243  0.2646
10379SOL     OW31946   3.169   6.141   2.034 -0.2530  0.3148 -0.2720
10379SOL    HW131947   3.114   6.138   2.113 -0.3206  1.6806 -0.2319
10379SOL    HW231948   3.242   6.083   2.053 -0.6277  0.0876  0.5203
10380SOL     OW31949   4.779   6.033   1.819 -0.3506 -0.2113 -0.2811
10380SOL    HW131950   4.717   5.979   1.869 -0.6917  1.3532  1.0807
10380SOL    HW231951   4.728   6.063   1.744 -0.5665 -0.7304 -0.3459
10381SOL     OW31952   1.686   0.692   4.876  0.1892 -0.3480  0.0947
10381SOL    HW131953   1.600   0.734   4.881  0.6418  0.6384 -0.2936
10381SOL    HW231954   1.695   0.648   4.961 -0.4903 -0.0684  0.3232
10382SOL     OW31955   1.435   1.772   1.633  0.2881 -0.2122 -0.3166
10382SOL    HW131956   1.351   1.726   1.642  0.8829 -1.0248  2.0875
10382SOL    HW231957   1.412   1.865   1.636 -0.5133 -0.4167  1.2397
10383SOL     OW31958   0.261   2.551   7.986  0.4871 -0.1013 -0.0820
10383SOL    HW131959   0.227   2.639   7.969  1.8481  0.1992 -1.6048
10383SOL    HW231960   0.306   2.558   8.070  0.7924  0.7517 -0.3021
10384SOL     OW31961   5.843   7.656   0.820 -0.5159  0.4381 -0.4041
10384SOL    HW131962   5.820   7.586   0.759  0.4811  0.9399 -1.3967
10384SOL    HW231963   5.831   7.737   0.770 -0.4947  0.9041  0.3350
10385SOL     OW31964   3.964   6.741   1.824 -0.2021  0.2078  0.8105
10385SOL    HW131965   4.018   6.819   1.832 -0.0302  0.2433 -0.4678
10385SOL    HW231966   4.023   6.669   1.845  0.4216  0.2384 -0.6890
10386SOL     OW31967   7.460   5.054   4.226 -0.4990  0.0503 -0.1178
10386SOL    HW131968   7.480   5.017   4.139  2.9009 -1.4194  1.0899
10386SOL    HW231969   7.415   4.983   4.272  1.3187 -0.7551  0.5169
10387SOL     OW31970   3.850   5.381   4.718  0.1574  0.1403  0.0508
10387SOL    HW131971   3.780   5.393   4.783  0.7963  0.9436  0.6028
10387SOL    HW231972   3.919   5.442   4.745  1.2219 -0.8886 -0.2874
10388SOL     OW31973   6.862   7.074   2.744  0.3164 -0.5766  0.2316
10388SOL    HW131974   6.852   7.088   2.650 -1.3351 -3.4707 -0.1737
10388SOL    HW231975   6.936   7.128   2.769 -1.3723  3.1740 -1.9539
10389SOL     OW31976   3.409   5.169   6.890 -0.4844 -0.1088  0.9714
10389SOL    HW131977   3.445   5.242   6.940 -0.5494  0.0433  0.7966
10389SOL    HW231978   3.478   5.103   6.891 -0.4873 -0.1076  1.2652
10390SOL     OW31979   8.003   2.829   0.171 -0.0204  0.1526  0.6786
10390SOL    HW131980   7.977   2.919   0.190 -1.5462 -0.4724  1.7229
10390SOL    HW231981   7.930   2.793   0.120  0.9205 -0.2867 -0.4112
10391SOL     OW31982   3.252   0.374   0.716  0.0803  0.1374  0.0031
10391SOL    HW131983   3.212   0.368   0.629 -0.6757  1.2579  0.2528
10391SOL    HW231984   3.212   0.451   0.755  0.2461 -0.4728  1.4335
10392SOL     OW31985   5.671   1.187   7.584  0.0967  0.6723 -0.4270
10392SOL    HW131986   5.686   1.104   7.629  2.0842  1.7278  1.0278
10392SOL    HW231987   5.582   1.212   7.610  0.6169  0.4890  1.7988
10393SOL     OW31988   4.568   0.956   1.189  0.7538  0.3932  0.0981
10393SOL    HW131989   4.558   0.861   1.180 -0.1960  0.4176  0.7132
10393SOL    HW231990   4.554   0.972   1.282 -1.8338  1.4114 -0.3987
10394SOL     OW31991   3.951   4.103   2.339 -0.0977 -0.3026 -0.3378
10394SOL    HW131992   4.006   4.047   2.284 -0.1935 -0.6739 -0.0625
10394SOL    HW231993   3.996   4.105   2.423 -0.3315 -0.3412 -0.2102
10395SOL     OW31994   0.881   7.428   3.683 -0.1879 -0.2151  0.3265
10395SOL    HW131995   0.954   7.442   3.622  0.8915  0.5269  1.7369
10395SOL    HW231996   0.829   7.508   3.678 -0.1909 -0.2216  0.2580
10396SOL     OW31997   3.978   7.227   6.412 -0.1855 -0.5073  0.1919
10396SOL    HW131998   3.966   7.262   6.324  3.9398  2.0401  0.3847
10396SOL    HW231999   3.997   7.134   6.398 -2.3500 -0.8191 -1.2227
10397SOL     OW32000   2.682   3.365   7.764 -0.5569  0.2819 -0.4720
10397SOL    HW132001   2.652   3.443   7.716 -1.6616  0.2459  0.1140
10397SOL    HW232002   2.751   3.397   7.822 -0.4524  0.6744 -0.8148
10398SOL     OW32003   1.650   2.313   0.244  0.7824  0.0687 -0.2988
10398SOL    HW132004   1.680   2.336   0.156  1.0102 -0.4636 -0.3671
10398SOL    HW232005   1.606   2.228   0.232  0.9187 -0.0632  0.1175
10399SOL     OW32006   2.567   3.101   2.265  0.2458  0.2380  0.1279
10399SOL    HW132007   2.582   3.191   2.291 -0.1338  0.3558 -0.0463
10399SOL    HW232008   2.623   3.049   2.323  0.1582  0.5582  0.5029
10400SOL     OW32009   1.434   6.745   5.618 -0.8677  0.0892  1.0276
10400SOL    HW132010   1.452   6.765   5.710 -0.1312 -0.7682  1.0930
10400SOL    HW232011   1.389   6.660   5.621  0.7485 -0.8271  0.5350
10401SOL     OW32012   2.382   6.520   0.811  0.5937 -0.1133 -0.2871
10401SOL    HW132013   2.362   6.427   0.801 -0.9622  0.0252  1.0205
10401SOL    HW232014   2.403   6.550   0.723 -1.6843 -1.1190 -1.2421
10402SOL     OW32015   5.930   2.820   1.088  0.1319 -0.6671  0.1193
10402SOL    HW132016   6.002   2.760   1.103  2.7277  0.7768 -4.5737
10402SOL    HW232017   5.904   2.805   0.997 -0.5871  3.5485 -0.6181
10403SOL     OW32018   7.308   4.977   3.829  0.4081 -0.6376  0.2020
10403SOL    HW132019   7.246   4.995   3.899  0.0053 -0.4245 -0.2016
10403SOL    HW232020   7.329   5.063   3.792 -0.5776 -0.8679 -0.9364
10404SOL     OW32021   4.565   3.320   7.783  0.0916  0.4110  0.1574
10404SOL    HW132022   4.600   3.262   7.850 -0.7179 -1.2257 -0.7651
10404SOL    HW232023   4.540   3.400   7.830 -0.2051 -0.5850  1.7453
10405SOL     OW32024   4.874   0.485   2.619 -0.0526  0.1491 -0.4458
10405SOL    HW132025   4.893   0.527   2.535 -0.1504 -1.2040 -1.1717
10405SOL    HW232026   4.824   0.407   2.596 -3.5563  1.6867  1.1176
10406SOL     OW32027   2.086   6.802   7.853 -0.3290 -0.5090  0.1029
10406SOL    HW132028   2.049   6.881   7.812 -0.5475 -1.2064 -1.1051
10406SOL    HW232029   2.010   6.748   7.875 -0.2229 -0.0517  1.6776
10407SOL     OW32030   6.936   4.263   6.145 -0.1497  0.3840 -0.1323
10407SOL    HW132031   6.929   4.358   6.147 -1.0099  0.3282 -0.2330
10407SOL    HW232032   7.020   4.246   6.103  0.6417  1.1102  1.0877
10408SOL     OW32033   0.863   0.894   5.378 -0.0165  0.1901 -0.3260
10408SOL    HW132034   0.956   0.912   5.361  0.0867  2.0772  1.8022
10408SOL    HW232035   0.825   0.980   5.396 -1.6791 -0.7887  1.1037
10409SOL     OW32036   7.838   3.920   5.433  0.5774  0.6352  0.0820
10409SOL    HW132037   7.817   4.002   5.478  1.1097 -0.0159  1.5884
10409SOL    HW232038   7.766   3.908   5.371 -0.1989  1.5827  0.7620
10410SOL     OW32039   7.663   6.316   7.950  0.5228 -0.2612 -0.0648
10410SOL    HW132040   7.591   6.371   7.981  0.2754 -0.5908 -0.0550
10410SOL    HW232041   7.734   6.332   8.013  0.0360 -0.8924  0.6674
10411SOL     OW32042   0.104   5.334   3.105  0.5171 -0.6265 -0.2108
10411SOL    HW132043   0.169   5.382   3.156  0.1154  0.5385 -0.7695
10411SOL    HW232044   0.023   5.383   3.117  0.1611 -0.9964 -1.0392
10412SOL     OW32045   2.821   2.362   7.018 -0.0892  0.3893  0.5260
10412SOL    HW132046   2.865   2.424   6.959 -0.7214  0.9014  0.5908
10412SOL    HW232047   2.732   2.396   7.028 -1.1759 -1.7189 -1.2195
10413SOL     OW32048   4.674   7.651   5.164 -0.2116  0.0776  0.0859
10413SOL    HW132049   4.605   7.716   5.176 -0.9400 -0.6385 -0.1204
10413SOL    HW232050   4.672   7.631   5.070  2.3471  2.2712 -0.5700
10414SOL     OW32051   1.806   0.698   5.623  0.1867  0.5583  0.3606
10414SOL    HW132052   1.799   0.708   5.718 -3.3383  1.6428  0.1321
10414SOL    HW232053   1.815   0.787   5.590  0.5151  0.2558 -0.4031
10415SOL     OW32054   2.590   6.083   5.285  0.4293 -0.0690 -0.1745
10415SOL    HW132055   2.668   6.106   5.233 -0.1474  1.3770 -0.4534
10415SOL    HW232056   2.553   6.168   5.310  1.5560 -0.5973  4.0141
10416SOL     OW32057   6.756   5.983   0.688  0.0228 -0.2337  0.2705
10416SOL    HW132058   6.777   6.047   0.620 -1.8456  2.2444  1.8729
10416SOL    HW232059   6.808   6.010   0.764 -0.5439 -0.8487  0.8921
10417SOL     OW32060   3.505   5.960   7.949  0.2792 -0.5161  0.7373
10417SOL    HW132061   3.542   5.883   7.907 -0.0787 -1.3094  1.8553
10417SOL    HW232062   3.580   6.006   7.985  0.4469 -0.5696  0.4634
10418SOL     OW32063   2.501   0.676   1.549  0.7313  0.0266 -0.2321
10418SOL    HW132064   2.433   0.705   1.610  1.1348 -0.4417  0.4577
10418SOL    HW232065   2.567   0.634   1.605  0.7402 -1.1293 -1.0782
10419SOL     OW32066   5.334   4.205   1.372  0.4549  0.0271  0.1205
10419SOL    HW132067   5.429   4.205   1.359  0.3820 -1.5771 -0.5650
10419SOL    HW232068   5.298   4.204   1.283 -0.1803 -0.5732  0.3783
10420SOL     OW32069   7.852   3.776   1.665  0.0261 -0.1001  0.1884
10420SOL    HW132070   7.792   3.849   1.681 -0.4642 -0.6333  0.8364
10420SOL    HW232071   7.920   3.787   1.731  0.5837  0.4227 -0.4558
10421SOL     OW32072   6.949   5.480   5.372  0.0454  0.2119  0.0498
10421SOL    HW132073   7.022   5.543   5.367  0.8185 -0.7461 -2.7269
10421SOL    HW232074   6.967   5.430   5.451  2.2566  0.2697 -0.3273
10422SOL     OW32075   7.506   2.941   7.757  0.1947  0.4658 -0.8452
10422SOL    HW132076   7.505   2.989   7.674 -1.2587  2.1811  0.0824
10422SOL    HW232077   7.551   3.000   7.818  0.9928 -0.6518 -0.3210
10423SOL     OW32078   7.509   2.934   3.677  0.2857  0.7432 -0.2606
10423SOL    HW132079   7.517   2.950   3.771 -0.6563 -0.0120 -0.0340
10423SOL    HW232080   7.598   2.917   3.648  0.3723 -1.0589  0.9050
10424SOL     OW32081   2.624   4.658   1.880 -0.0784  0.1077  0.2737
10424SOL    HW132082   2.601   4.613   1.961 -2.6928 -0.3085 -0.6037
10424SOL    HW232083   2.540   4.683   1.841  1.1037  1.0286 -1.9152
10425SOL     OW32084   4.471   0.219   7.634 -0.7340 -0.5500 -0.2567
10425SOL    HW132085   4.561   0.224   7.667 -0.7159  0.7373 -0.4345
10425SOL    HW232086   4.461   0.298   7.580 -1.6967 -1.1249 -0.9518
10426SOL     OW32087   5.744   2.024   4.189 -0.0491  0.1102  0.1380
10426SOL    HW132088   5.805   2.065   4.250  1.0362 -1.4175  0.1582
10426SOL    HW232089   5.800   1.990   4.119 -0.9731 -0.5075 -0.3247
10427SOL     OW32090   1.344   0.544   2.792 -0.0011 -0.1286 -0.0022
10427SOL    HW132091   1.272   0.498   2.749 -1.6041  1.4659  0.8149
10427SOL    HW232092   1.361   0.493   2.872 -0.0799 -0.6220 -0.2978
10428SOL     OW32093   6.804   4.512   0.623  0.2353 -0.8958  0.6242
10428SOL    HW132094   6.718   4.482   0.593 -0.3248  2.3939 -1.5786
10428SOL    HW232095   6.851   4.534   0.543  1.4706  1.4786  1.9061
10429SOL     OW32096   6.527   2.089   2.886 -0.0933  0.4287 -0.5338
10429SOL    HW132097   6.482   2.025   2.941 -0.5402 -0.5575 -1.9674
10429SOL    HW232098   6.550   2.161   2.945 -0.4592 -0.6140  0.9260
10430SOL     OW32099   2.777   3.055   7.186 -0.1308 -0.4162  0.2872
10430SOL    HW132100   2.846   3.120   7.170 -1.2072  0.1379 -2.8091
10430SOL    HW232101   2.697   3.107   7.190 -0.7201 -1.3282  0.4928
10431SOL     OW32102   7.796   2.063   2.214 -0.3181 -0.2064 -0.0602
10431SOL    HW132103   7.746   2.143   2.231  0.0368  0.6040 -2.4896
10431SOL    HW232104   7.741   2.011   2.156  0.6218 -0.4424 -0.7569
10432SOL     OW32105   6.148   4.740   4.307 -0.0945  0.3019 -0.1643
10432SOL    HW132106   6.093   4.694   4.243  0.2933  0.1856 -0.4179
10432SOL    HW232107   6.211   4.787   4.254 -0.8549  1.6319  0.0668
10433SOL     OW32108   0.845   6.072   5.687  0.2504  0.6924  0.5076
10433SOL    HW132109   0.794   6.132   5.632 -1.0416 -0.5621  0.2757
10433SOL    HW232110   0.935   6.086   5.660 -0.2645  0.8141 -1.2733
10434SOL     OW32111   1.194   7.984   7.904 -0.2119  0.1643 -0.2036
10434SOL    HW132112   1.232   7.898   7.924 -0.6996 -0.3563 -1.3806
10434SOL    HW232113   1.205   7.993   7.810 -2.7214  0.0761 -0.5902
10435SOL     OW32114   7.037   3.906   1.239 -0.2113 -0.4346 -0.0993
10435SOL    HW132115   7.062   3.993   1.210  0.5839 -1.5337 -3.0436
10435SOL    HW232116   7.118   3.855   1.234 -0.9780 -1.7156  0.0732
10436SOL     OW32117   1.427   2.698   6.028  0.0814 -0.9661  0.0887
10436SOL    HW132118   1.338   2.675   6.003 -0.4261 -0.1692  1.1050
10436SOL    HW232119   1.436   2.665   6.118 -0.2063  1.4521  1.0738
10437SOL     OW32120   6.008   6.856   4.012 -1.0651  0.4207 -0.2331
10437SOL    HW132121   5.962   6.926   3.965 -1.8106  0.8319  1.0449
10437SOL    HW232122   6.032   6.793   3.944 -0.0214  2.0793 -1.4998
10438SOL     OW32123   5.382   7.476   4.479  0.5323 -0.4339  0.5864
10438SOL    HW132124   5.333   7.557   4.489 -0.4714 -1.2081  2.2884
10438SOL    HW232125   5.382   7.436   4.566  0.3848 -2.6097 -0.3411
10439SOL     OW32126   7.182   2.678   5.709 -0.1573  0.6585  0.1679
10439SOL    HW132127   7.162   2.588   5.682 -2.6718  1.0667  0.4505
10439SOL    HW232128   7.176   2.729   5.629 -1.2435  0.9085  0.3865
10440SOL     OW32129   3.050   2.497   7.989  0.5070  0.0504  0.1111
10440SOL    HW132130   2.986   2.567   8.001 -0.0080 -0.4179  0.0961
10440SOL    HW232131   3.134   2.540   8.006  0.4496  1.2885 -2.2835
10441SOL     OW32132   2.917   0.778   2.291 -0.0142 -0.4427 -0.5331
10441SOL    HW132133   2.985   0.720   2.326 -1.6400 -2.3068 -0.3097
10441SOL    HW232134   2.836   0.729   2.300 -1.5051  1.8968 -0.3723
10442SOL     OW32135   3.237   1.807   2.842 -0.0459 -0.6846 -0.2498
10442SOL    HW132136   3.318   1.853   2.820 -0.7106  0.0688 -1.2056
10442SOL    HW232137   3.230   1.739   2.775  0.2986 -1.4249  0.4373
10443SOL     OW32138   5.318   2.404   4.805 -0.0087  0.2907 -0.7623
10443SOL    HW132139   5.328   2.473   4.739 -0.6844  0.4895 -0.6597
10443SOL    HW232140   5.266   2.337   4.761  0.2136  0.0729 -0.6916
10444SOL     OW32141   5.413   0.659   2.696 -0.8191  0.1738 -0.0624
10444SOL    HW132142   5.447   0.579   2.735  0.3850 -0.3540 -2.0101
10444SOL    HW232143   5.349   0.629   2.632 -0.9054  0.8086 -0.2795
10445SOL     OW32144   1.703   0.920   2.986 -0.0371  0.2927 -0.1539
10445SOL    HW132145   1.643   0.867   2.934 -1.2793  0.7615  0.7387
10445SOL    HW232146   1.741   0.982   2.924 -1.0953  0.4985 -0.6075
10446SOL     OW32147   0.530   4.082   5.894 -0.4047 -0.3100  0.3295
10446SOL    HW132148   0.498   4.055   5.980 -0.2317 -0.8044  0.2449
10446SOL    HW232149   0.529   4.177   5.897 -0.2271 -0.3200  0.9491
10447SOL     OW32150   2.372   2.279   7.267 -0.3829 -0.2449 -0.0540
10447SOL    HW132151   2.343   2.334   7.194 -2.3259 -2.5918 -1.2272
10447SOL    HW232152   2.454   2.241   7.238  0.5571  1.3402  0.4342
10448SOL     OW32153   7.427   1.385   4.700 -0.0049 -0.4010  0.0194
10448SOL    HW132154   7.388   1.312   4.652 -1.5950  0.6922 -0.4284
10448SOL    HW232155   7.364   1.405   4.769  1.6573 -1.1359  1.8713
10449SOL     OW32156   3.461   4.254   4.147 -0.7227  0.3441 -0.2810
10449SOL    HW132157   3.544   4.221   4.112 -1.1281  0.1759 -1.1085
10449SOL    HW232158   3.460   4.226   4.238  0.3716  0.7989 -0.1166
10450SOL     OW32159   0.642   6.360   1.658 -0.0971  0.2094  0.5216
10450SOL    HW132160   0.585   6.429   1.624 -0.1600 -0.2944 -0.4399
10450SOL    HW232161   0.677   6.395   1.740 -0.6980  1.0808  0.4166
10451SOL     OW32162   5.132   4.408   3.740 -0.2814 -0.0781  0.2507
10451SOL    HW132163   5.172   4.411   3.827  0.2193  0.8382  0.0053
10451SOL    HW232164   5.039   4.393   3.757 -0.5981  2.3038  1.1044
10452SOL     OW32165   6.106   7.652   1.597 -0.1518 -0.3023  0.1407
10452SOL    HW132166   6.106   7.560   1.571  0.1510 -0.2068 -0.2051
10452SOL    HW232167   6.020   7.684   1.570 -0.3259 -0.5274  0.4230
10453SOL     OW32168   6.359   5.090   7.320 -0.0231 -0.5063 -0.0813
10453SOL    HW132169   6.444   5.083   7.363  0.5427  1.0628 -0.8511
10453SOL    HW232170   6.379   5.092   7.226 -0.6276  2.1518 -0.2413
10454SOL     OW32171   0.846   1.334   6.216  0.3060 -0.1312 -0.0897
10454SOL    HW132172   0.919   1.343   6.277 -1.1980  1.8943  1.5269
10454SOL    HW232173   0.778   1.392   6.250 -0.5859  1.2798 -3.8129
10455SOL     OW32174   6.092   2.048   4.584 -0.0127 -0.1623  0.2089
10455SOL    HW132175   6.151   1.998   4.527 -0.4892 -0.0018 -0.4347
10455SOL    HW232176   6.151   2.102   4.637  0.5284 -1.4497  1.0024
10456SOL     OW32177   1.768   6.675   3.078  0.0232 -0.6130  0.3216
10456SOL    HW132178   1.805   6.760   3.100  0.5202 -0.2328 -1.7256
10456SOL    HW232179   1.674   6.691   3.070  0.0904 -0.3005  0.1501
10457SOL     OW32180   4.467   3.679   2.856 -0.3194  0.1834  0.4991
10457SOL    HW132181   4.418   3.649   2.932  1.9298 -0.7460  1.6763
10457SOL    HW232182   4.525   3.747   2.889  1.9563 -1.4459  0.0740
10458SOL     OW32183   7.249   7.683   5.119 -0.2400  0.0121  0.3130
10458SOL    HW132184   7.270   7.749   5.054  0.7203  1.0875  1.6747
10458SOL    HW232185   7.244   7.601   5.069  0.6499  0.7648 -1.0653
10459SOL     OW32186   0.819   6.784   2.382 -0.2361 -0.0093  0.1578
10459SOL    HW132187   0.868   6.719   2.431 -1.0034 -0.6010  0.1626
10459SOL    HW232188   0.727   6.763   2.400 -0.5376 -0.1236 -1.3526
10460SOL     OW32189   3.754   0.988   4.266  0.6690 -0.2557 -0.5128
10460SOL    HW132190   3.793   1.040   4.196  0.8653  1.5140  0.8514
10460SOL    HW232191   3.737   1.050   4.336 -0.2791 -1.8292  0.7244
10461SOL     OW32192   1.367   7.076   4.329  0.3085  0.5148  0.2777
10461SOL    HW132193   1.450   7.117   4.353  0.6410 -0.6848  1.3100
10461SOL    HW232194   1.301   7.120   4.382  0.6548 -0.2099  1.3414
10462SOL     OW32195   7.149   6.630   1.884  0.1204 -0.3116  0.5546
10462SOL    HW132196   7.100   6.698   1.929  0.9000  0.3162  0.4850
10462SOL    HW232197   7.200   6.587   1.954 -0.4675 -0.9172  0.6185
10463SOL     OW32198   6.865   4.793   7.392 -0.4593  0.6344  0.5099
10463SOL    HW132199   6.850   4.699   7.385  0.4770  0.5942 -2.0197
10463SOL    HW232200   6.781   4.833   7.367 -0.3288  0.4254 -0.3163
10464SOL     OW32201   5.527   1.243   2.922 -0.5888 -0.3689  0.1782
10464SOL    HW132202   5.581   1.165   2.913 -0.5693 -0.2747 -0.5421
10464SOL    HW232203   5.444   1.220   2.879  0.6707  1.2389 -3.4815
10465SOL     OW32204   4.656   0.225   6.729 -0.4774  0.0008  0.5629
10465SOL    HW132205   4.679   0.181   6.811  0.1702 -3.5509 -1.2978
10465SOL    HW232206   4.568   0.194   6.708  0.2938 -1.2433 -1.1848
10466SOL     OW32207   2.855   7.071   6.317  0.2162 -0.1447 -0.0552
10466SOL    HW132208   2.816   6.992   6.355 -1.3593 -0.8381 -2.8785
10466SOL    HW232209   2.854   7.134   6.389 -1.9901 -1.5419  1.2754
10467SOL     OW32210   5.297   0.308   1.728  0.4899 -0.1260  0.1241
10467SOL    HW132211   5.267   0.316   1.819  0.8271  0.3782  0.1923
10467SOL    HW232212   5.319   0.216   1.718 -0.7936 -0.4622  0.1634
10468SOL     OW32213   4.380   5.554   0.171  0.0105 -0.1268 -0.0700
10468SOL    HW132214   4.341   5.619   0.113  1.6235 -0.0843 -1.1685
10468SOL    HW232215   4.420   5.490   0.112 -0.4534 -1.4394  1.0013
10469SOL     OW32216   0.206   3.267   0.721 -0.2200 -0.1758 -0.4886
10469SOL    HW132217   0.182   3.190   0.773  0.8537 -0.5122 -0.4634
10469SOL    HW232218   0.138   3.332   0.742 -0.3685 -0.6427  0.5580
10470SOL     OW32219   0.652   5.258   4.195  0.1254 -0.1396  0.2824
10470SOL    HW132220   0.706   5.268   4.116  1.8753  1.2910  1.5746
10470SOL    HW232221   0.583   5.323   4.185 -1.7228 -2.2303 -1.5598
10471SOL     OW32222   0.364   4.125   5.542 -0.2727 -0.0969  0.3406
10471SOL    HW132223   0.396   4.053   5.596  0.4726 -0.8816 -1.0928
10471SOL    HW232224   0.431   4.193   5.551 -1.2681  0.7148  2.1727
10472SOL     OW32225   5.811   5.150   3.541  0.1449  0.2263 -0.0132
10472SOL    HW132226   5.764   5.067   3.540  0.3642  0.0918  0.5633
10472SOL    HW232227   5.746   5.215   3.515 -0.4678  0.0891  1.1204
10473SOL     OW32228   1.898   4.141   7.226  0.2044  0.1130  0.3152
10473SOL    HW132229   1.938   4.223   7.200  0.2770  0.1197  0.4449
10473SOL    HW232230   1.808   4.146   7.194 -0.8643  1.6925  3.2002
10474SOL     OW32231   6.694   6.407   1.216 -0.3983 -0.3230  0.0242
10474SOL    HW132232   6.705   6.476   1.282  0.3644 -0.4381  0.0344
10474SOL    HW232233   6.678   6.327   1.267 -0.3033 -0.3228  0.0552
10475SOL     OW32234   4.584   2.115   5.358 -0.1799 -0.0218 -0.4697
10475SOL    HW132235   4.492   2.095   5.374  0.1189 -0.5653  0.7052
10475SOL    HW232236   4.628   2.030   5.366  0.4308  0.2453 -0.9672
10476SOL     OW32237   5.239   2.179   5.915 -0.2287  0.2696 -0.1640
10476SOL    HW132238   5.309   2.168   5.980  0.0072  0.1023 -0.4459
10476SOL    HW232239   5.182   2.104   5.929  1.2567 -1.2672 -1.9318
10477SOL     OW32240   4.065   1.015   6.297 -0.1557 -0.5076  0.6404
10477SOL    HW132241   3.983   1.026   6.344  0.4183  0.1757  1.5213
10477SOL    HW232242   4.126   1.075   6.340  0.2201  0.7505 -1.4740
10478SOL     OW32243   4.046   7.679   7.952 -0.0431 -0.1918 -0.4174
10478SOL    HW132244   3.961   7.663   7.913 -0.4592  0.7419  0.0677
10478SOL    HW232245   4.109   7.662   7.882 -0.7632  1.4405 -1.5066
10479SOL     OW32246   2.931   3.785   0.982  0.6939 -0.3709 -0.1786
10479SOL    HW132247   2.954   3.728   0.909 -1.5433  0.4104 -1.6020
10479SOL    HW232248   2.864   3.735   1.030  0.4936  0.0427 -0.0252
10480SOL     OW32249   0.542   0.527   1.886 -0.5000 -0.5043 -0.7997
10480SOL    HW132250   0.630   0.495   1.867  0.2641  1.4022 -0.6307
10480SOL    HW232251   0.506   0.550   1.800  0.0452  0.8509 -0.6824
10481SOL     OW32252   1.905   5.166   0.289  0.0920 -0.4260 -0.0163
10481SOL    HW132253   1.915   5.133   0.379 -1.6512 -0.8501  0.0593
10481SOL    HW232254   1.902   5.086   0.236  0.9943 -0.1778 -0.4482
10482SOL     OW32255   3.123   7.800   3.370 -0.4236 -0.3974 -0.5189
10482SOL    HW132256   3.052   7.737   3.360 -0.7899 -0.1861  0.5620
10482SOL    HW232257   3.105   7.843   3.454  0.4158  0.3813 -0.7169
10483SOL     OW32258   7.283   3.950   6.202 -0.6661  0.1901  0.1298
10483SOL    HW132259   7.356   3.953   6.139 -1.2854 -0.6241 -0.6399
10483SOL    HW232260   7.323   3.978   6.285  1.0005 -2.0461  0.1744
10484SOL     OW32261   4.802   6.128   0.117 -0.2051  0.1543 -0.0693
10484SOL    HW132262   4.712   6.161   0.113  0.1394  1.0349 -2.4142
10484SOL    HW232263   4.845   6.184   0.182 -0.8909  1.0379 -0.3488
10485SOL     OW32264   3.742   1.277   0.260  0.1226  0.1594 -0.2820
10485SOL    HW132265   3.833   1.306   0.268  0.4754  0.2823 -3.4602
10485SOL    HW232266   3.691   1.357   0.272  0.2010 -0.1625  3.1430
10486SOL     OW32267   4.711   6.428   7.648 -0.4536  0.1655 -0.0915
10486SOL    HW132268   4.719   6.453   7.556  1.5387 -0.4852 -0.1568
10486SOL    HW232269   4.741   6.505   7.697 -1.8883  0.6547  0.0631
10487SOL     OW32270   0.561   0.216   2.760  0.1956  0.3148  0.3365
10487SOL    HW132271   0.514   0.223   2.676  1.9092  1.1441 -0.6209
10487SOL    HW232272   0.548   0.301   2.801  0.1357  0.2404  0.4704
10488SOL     OW32273   2.480   1.921   6.552 -0.1648 -1.0368 -0.1440
10488SOL    HW132274   2.476   1.826   6.565  1.7429 -0.9276  1.6878
10488SOL    HW232275   2.443   1.958   6.632  1.2731 -0.2740  0.2078
10489SOL     OW32276   0.154   6.799   0.686  0.0244 -0.2291 -0.0066
10489SOL    HW132277   0.186   6.767   0.601 -0.5021 -0.2592 -0.2005
10489SOL    HW232278   0.209   6.874   0.706 -0.3660  0.2824 -0.7780
10490SOL     OW32279   0.887   3.598   4.975  0.0548 -0.3945 -0.8381
10490SOL    HW132280   0.807   3.651   4.968 -1.0728 -1.6527  1.2666
10490SOL    HW232281   0.898   3.559   4.888 -2.1372 -0.7944 -0.9998
10491SOL     OW32282   2.301   5.514   3.582  0.1019  0.0482  0.0885
10491SOL    HW132283   2.275   5.428   3.614  1.9688 -1.6512 -2.6312
10491SOL    HW232284   2.253   5.525   3.500  0.7709  1.0936 -0.1867
10492SOL     OW32285   5.552   2.773   5.626 -0.0282 -0.5164 -0.3338
10492SOL    HW132286   5.582   2.842   5.567  1.0766  0.1219  0.9144
10492SOL    HW232287   5.632   2.726   5.651 -0.6359 -1.5832 -0.3398
10493SOL     OW32288   7.117   6.402   3.999  0.1173  0.0955 -0.2111
10493SOL    HW132289   7.042   6.343   4.009 -0.1480  0.4053 -0.3738
10493SOL    HW232290   7.134   6.404   3.905 -0.1264  0.5921 -0.2478
10494SOL     OW32291   4.686   4.352   6.954  0.4636 -0.2343 -0.4471
10494SOL    HW132292   4.639   4.352   7.037 -0.9209  0.5721 -1.1982
10494SOL    HW232293   4.735   4.434   6.954 -0.4427  0.3235 -0.8933
10495SOL     OW32294   7.774   5.719   0.019  1.0086 -0.1622 -0.4513
10495SOL    HW132295   7.755   5.642   0.073 -3.9577  1.1634  0.1795
10495SOL    HW232296   7.832   5.773   0.073 -0.2406 -0.8667  1.6926
10496SOL     OW32297   3.151   5.919   2.433  0.2162 -0.1983  0.3149
10496SOL    HW132298   3.110   5.846   2.479  0.3936 -0.5510 -0.0737
10496SOL    HW232299   3.244   5.913   2.456  0.0338  0.7253  1.3613
10497SOL     OW32300   5.887   1.378   7.982  0.2027  0.2745 -0.0235
10497SOL    HW132301   5.966   1.381   8.035  0.8383 -1.1019 -0.8285
10497SOL    HW232302   5.820   1.342   8.040  1.4994 -3.7768 -0.7027
10498SOL     OW32303   1.427   5.506   3.385  0.8602 -0.5177  0.3413
10498SOL    HW132304   1.516   5.476   3.364  1.3011  2.5409 -2.9793
10498SOL    HW232305   1.389   5.531   3.301 -1.7997  1.7425  2.0429
10499SOL     OW32306   2.019   0.511   1.360  0.5823 -1.2565  0.5896
10499SOL    HW132307   2.086   0.512   1.427 -0.5342 -0.1591  1.7487
10499SOL    HW232308   2.012   0.602   1.331 -0.7448 -1.2380  0.8804
10500SOL     OW32309   3.089   5.309   1.074 -0.0936 -0.6650 -0.3282
10500SOL    HW132310   3.034   5.367   1.127 -0.9671 -1.8322  0.0648
10500SOL    HW232311   3.176   5.351   1.077 -0.8296  0.9632 -0.6061
10501SOL     OW32312   3.202   2.275   7.580 -0.1883 -0.3239  0.0119
10501SOL    HW132313   3.148   2.316   7.513 -0.0781  0.0658  0.1541
10501SOL    HW232314   3.242   2.199   7.537  0.0111  0.0183 -0.4104
10502SOL     OW32315   2.518   5.984   1.609 -0.3089 -0.3171  0.8744
10502SOL    HW132316   2.423   5.996   1.606 -0.2733 -0.0060 -1.6429
10502SOL    HW232317   2.553   6.058   1.558  1.0649 -1.8359 -0.5144
10503SOL     OW32318   7.047   2.974   5.250 -0.9871  0.3359  0.1390
10503SOL    HW132319   7.094   2.966   5.167  0.8541 -0.7669  1.2044
10503SOL    HW232320   7.065   3.063   5.280  2.1377 -0.5973  1.3973
10504SOL     OW32321   7.036   3.150   2.590  0.1530  0.0775  0.4874
10504SOL    HW132322   6.999   3.068   2.622  0.1549 -0.4792 -0.8377
10504SOL    HW232323   7.123   3.155   2.630  0.0565 -0.4418  0.7695
10505SOL     OW32324   7.190   1.660   2.442  0.9592  0.5436  0.8643
10505SOL    HW132325   7.260   1.724   2.431  1.4281 -0.2059 -0.8142
10505SOL    HW232326   7.111   1.706   2.412  1.2634  0.4045 -0.1730
10506SOL     OW32327   4.595   0.606   0.878  0.2471 -0.0820 -0.7225
10506SOL    HW132328   4.640   0.521   0.872  0.8615  0.0309  1.4638
10506SOL    HW232329   4.666   0.670   0.873  0.2124  0.1503  1.0895
10507SOL     OW32330   7.426   2.632   4.663 -0.1225 -0.1866 -0.2797
10507SOL    HW132331   7.396   2.622   4.573 -1.5611 -1.9003  0.3310
10507SOL    HW232332   7.427   2.727   4.678 -0.3571  0.0989 -1.9153
10508SOL     OW32333   5.542   0.514   0.690  0.4974 -0.0507 -0.0194
10508SOL    HW132334   5.496   0.509   0.774 -1.3638 -0.2059 -0.9742
10508SOL    HW232335   5.620   0.566   0.707 -0.1396  0.4087  1.6736
10509SOL     OW32336   7.093   0.344   2.619  0.3392 -0.8103  0.4997
10509SOL    HW132337   7.026   0.381   2.677 -0.4841 -0.1716 -0.8106
10509SOL    HW232338   7.174   0.352   2.669 -0.0429  1.4149  0.8743
10510SOL     OW32339   4.582   0.135   6.985  0.0564  0.1739  0.2736
10510SOL    HW132340   4.501   0.127   6.936 -0.2114 -0.5475  0.8212
10510SOL    HW232341   4.584   0.226   7.015  0.0693  0.5369 -0.7861
10511SOL     OW32342   0.120   3.512   6.438 -0.3417 -0.0814 -0.0078
10511SOL    HW132343   0.078   3.508   6.352 -0.8875 -0.6506  0.2765
10511SOL    HW232344   0.058   3.559   6.493 -0.6440 -0.9565  0.4240
10512SOL     OW32345   2.871   7.348   3.068  0.0995 -0.6162  0.2789
10512SOL    HW132346   2.871   7.252   3.074  2.4549 -0.6752  0.4372
10512SOL    HW232347   2.964   7.372   3.065 -0.4298  1.5921 -1.2948
10513SOL     OW32348   4.014   5.222   3.752 -0.1285  0.1431 -0.8096
10513SOL    HW132349   3.963   5.299   3.776  0.2816 -0.1435  1.1869
10513SOL    HW232350   3.972   5.150   3.800  1.2915 -0.3146 -0.1924
10514SOL     OW32351   6.699   6.289   1.951  0.0999  0.2132  0.4522
10514SOL    HW132352   6.790   6.300   1.978  0.9668  0.5250 -2.2964
10514SOL    HW232353   6.686   6.195   1.948  1.2713  0.0570 -1.7468
10515SOL     OW32354   0.646   0.567   4.642  0.2535  0.2111 -0.3386
10515SOL    HW132355   0.574   0.605   4.692  0.4768 -0.0913  0.2191
10515SOL    HW232356   0.607   0.495   4.595  0.0282  0.5371 -0.6552
10516SOL     OW32357   0.094   3.272   6.544 -0.0811  0.4199  0.2308
10516SOL    HW132358   0.087   3.366   6.531  0.1403  0.1881 -1.8791
10516SOL    HW232359   0.019   3.235   6.498  0.3383 -0.4891  0.2402
10517SOL     OW32360   4.661   0.663   2.431 -0.3850 -0.0065  0.6381
10517SOL    HW132361   4.701   0.744   2.463  2.6125 -2.1710  3.0304
10517SOL    HW232362   4.734   0.613   2.394 -2.2488 -1.3756 -1.4784
10518SOL     OW32363   5.559   1.240   5.691 -0.2730  0.6362  0.1489
10518SOL    HW132364   5.567   1.256   5.597 -1.0215  0.9524  0.1334
10518SOL    HW232365   5.621   1.168   5.708 -0.0736  0.6262 -0.5648
10519SOL     OW32366   4.640   3.888   3.076  0.5692 -0.2687 -0.2652
10519SOL    HW132367   4.714   3.831   3.057 -0.0789 -1.4711  0.6903
10519SOL    HW232368   4.603   3.853   3.157 -0.8709  0.4795 -0.5677
10520SOL     OW32369   3.633   0.231   2.575 -0.7077 -0.0720 -0.3020
10520SOL    HW132370   3.695   0.300   2.552  0.9098 -2.0742 -2.4761
10520SOL    HW232371   3.635   0.227   2.670  1.8001  0.5824 -0.2619
10521SOL     OW32372   7.751   5.522   3.571  0.6613  0.0705 -0.1972
10521SOL    HW132373   7.762   5.617   3.561  0.1412 -0.0528 -2.3352
10521SOL    HW232374   7.700   5.513   3.652  1.3857  1.5532  0.4642
10522SOL     OW32375   6.601   6.260   7.700 -0.8739 -0.1713  0.1093
10522SOL    HW132376   6.603   6.171   7.734 -0.0091 -0.7545 -1.4168
10522SOL    HW232377   6.692   6.283   7.686 -1.0900  0.9594  0.4440
10523SOL     OW32378   7.861   6.952   0.776 -0.1492  0.2810  0.5135
10523SOL    HW132379   7.873   6.896   0.853 -0.0373 -0.5331 -0.0827
10523SOL    HW232380   7.783   7.004   0.797 -0.3340 -0.1869  1.0245
10524SOL     OW32381   5.159   5.334   1.292  0.3077  0.3755  0.1893
10524SOL    HW132382   5.083   5.287   1.258 -0.9781  1.6912  1.1041
10524SOL    HW232383   5.225   5.326   1.224 -0.3433 -1.5277 -0.2762
10525SOL     OW32384   0.400   2.248   0.366  0.4495 -0.0165  0.1723
10525SOL    HW132385   0.307   2.236   0.347  0.1656  3.2509 -1.1206
10525SOL    HW232386   0.443   2.174   0.322 -1.3236  0.0998 -1.9332
10526SOL     OW32387   5.816   7.069   5.104 -0.4144 -0.0523 -0.1130
10526SOL    HW132388   5.823   6.974   5.098  1.0804 -0.0885  1.6892
10526SOL    HW232389   5.757   7.084   5.178 -1.0546  0.4439 -0.7115
10527SOL     OW32390   2.393   4.627   3.004  0.3534  0.6818 -0.4127
10527SOL    HW132391   2.406   4.681   2.926  0.2734  0.6060 -0.4790
10527SOL    HW232392   2.384   4.690   3.076 -0.5806  0.7836 -0.6132
10528SOL     OW32393   2.030   5.859   2.867 -0.7878 -0.6197 -0.9366
10528SOL    HW132394   1.957   5.830   2.813  0.5581 -1.3399 -2.4759
10528SOL    HW232395   1.993   5.924   2.927 -2.5631 -0.6492 -1.9565
10529SOL     OW32396   3.198   0.906   7.078  0.2524  0.0019 -0.1469
10529SOL    HW132397   3.207   0.928   7.171  0.3575 -0.6075 -0.0100
10529SOL    HW232398   3.112   0.864   7.072 -0.4837  1.4834 -0.6167
10530SOL     OW32399   3.982   6.474   1.980 -0.0060 -0.0254  0.2334
10530SOL    HW132400   3.950   6.543   2.038 -0.7812 -0.6989  0.6324
10530SOL    HW232401   3.903   6.427   1.953  0.5474 -1.0459  0.3356
10531SOL     OW32402   6.108   1.297   2.420 -0.1807  0.4635 -0.0556
10531SOL    HW132403   6.175   1.350   2.378 -0.7810  1.1626 -0.1638
10531SOL    HW232404   6.084   1.346   2.498  0.1694 -0.2992  0.5437
10532SOL     OW32405   5.613   7.321   1.281  0.1189  0.1967  0.0846
10532SOL    HW132406   5.537   7.364   1.320 -0.1688 -0.9301  0.8050
10532SOL    HW232407   5.688   7.368   1.318 -0.1734 -0.3604  1.4638
10533SOL     OW32408   0.856   4.577   4.059 -0.2040  0.3035 -0.1057
10533SOL    HW132409   0.945   4.595   4.029 -0.5882  0.7040 -1.0424
10533SOL    HW232410   0.833   4.494   4.017  0.1323 -0.4214  1.0743
10534SOL     OW32411   3.486   6.703   5.793  0.3362 -0.3094 -0.0314
10534SOL    HW132412   3.515   6.637   5.730  0.4813  0.1949 -0.4988
10534SOL    HW232413   3.551   6.773   5.785  0.8740 -0.6175  1.3167
10535SOL     OW32414   1.573   7.875   7.183  1.0300 -0.0075 -0.4432
10535SOL    HW132415   1.620   7.894   7.102  0.0638  0.8941 -0.8189
10535SOL    HW232416   1.613   7.931   7.249  1.2428 -0.1019 -0.4913
10536SOL     OW32417   6.035   5.396   6.516  0.1463 -0.1098 -0.0557
10536SOL    HW132418   5.992   5.440   6.443 -0.9474  2.2905  1.8548
10536SOL    HW232419   5.962   5.360   6.568  0.9680 -4.0516 -1.2783
10537SOL     OW32420   2.642   3.549   3.159 -0.1112 -0.2688 -0.0043
10537SOL    HW132421   2.674   3.514   3.075  1.1678 -0.0073  0.3426
10537SOL    HW232422   2.721   3.559   3.212 -0.5756  1.8198  0.3976
10538SOL     OW32423   4.359   2.246   5.641  0.3995  0.6233 -0.4747
10538SOL    HW132424   4.318   2.160   5.644 -0.9899  1.2552 -0.7643
10538SOL    HW232425   4.383   2.264   5.732 -0.2443  0.3733 -0.2524
10539SOL     OW32426   2.021   2.856   0.619 -0.1264  0.0695 -0.2780
10539SOL    HW132427   2.070   2.837   0.539 -0.2524 -0.9152 -0.1325
10539SOL    HW232428   1.932   2.874   0.589 -0.5103 -1.6736 -0.2704
10540SOL     OW32429   3.048   4.735   2.815  0.4725  0.3460  0.1356
10540SOL    HW132430   3.051   4.764   2.724  1.3057 -0.1198 -0.0049
10540SOL    HW232431   2.967   4.771   2.850  0.7722  1.6115 -0.4241
10541SOL     OW32432   5.179   5.683   4.204 -0.3077 -0.3379 -0.6072
10541SOL    HW132433   5.190   5.592   4.176  0.9359 -0.4614  0.1722
10541SOL    HW232434   5.269   5.712   4.222 -0.8016  0.6301  0.3821
10542SOL     OW32435   4.477   3.740   3.288 -0.1715  0.1419 -0.1467
10542SOL    HW132436   4.503   3.667   3.344  0.1437 -0.6162 -1.2397
10542SOL    HW232437   4.475   3.815   3.346  2.0294 -0.2395  0.5259
10543SOL     OW32438   7.784   7.228   2.913  0.1478  0.0309  0.0671
10543SOL    HW132439   7.738   7.308   2.936 -1.0142 -0.1366 -1.4910
10543SOL    HW232440   7.842   7.211   2.987 -1.1460  1.1236  1.3919
10544SOL     OW32441   7.245   1.551   7.418 -0.5576 -0.3171  0.1945
10544SOL    HW132442   7.338   1.572   7.419 -0.4828 -0.4757  2.8265
10544SOL    HW232443   7.203   1.629   7.381  0.4134  0.9241  1.5898
10545SOL     OW32444   5.969   7.336   1.840  0.7221 -0.7735  0.7192
10545SOL    HW132445   5.932   7.412   1.887  2.9703  0.7186  0.2566
10545SOL    HW232446   5.905   7.317   1.772  0.2798  1.0273  0.5586
10546SOL     OW32447   2.898   0.390   1.736  0.4890  0.6908 -0.3775
10546SOL    HW132448   2.969   0.442   1.773  0.4129 -0.1735  1.0519
10546SOL    HW232449   2.937   0.305   1.717 -0.1233  0.2392  0.3195
10547SOL     OW32450   7.257   0.725   6.915  0.4400 -0.0176 -0.0245
10547SOL    HW132451   7.181   0.667   6.907  0.6821 -0.3653  0.2140
10547SOL    HW232452   7.328   0.680   6.870  0.7487 -0.1225  0.5586
10548SOL     OW32453   2.308   4.691   6.761 -0.3480  0.0810  0.6158
10548SOL    HW132454   2.225   4.649   6.738  0.2287 -0.9020  0.2741
10548SOL    HW232455   2.293   4.727   6.848 -0.5125 -1.8687  1.4555
10549SOL     OW32456   4.491   5.810   6.534  0.0363  0.4553 -0.4519
10549SOL    HW132457   4.414   5.843   6.488  0.2857 -0.4714 -1.5825
10549SOL    HW232458   4.556   5.880   6.525 -0.6517  1.2208  0.4732
10550SOL     OW32459   7.103   4.384   4.204  0.2257  0.3893 -0.2402
10550SOL    HW132460   7.016   4.358   4.232  0.4804  0.2074  0.3998
10550SOL    HW232461   7.135   4.442   4.273  0.6912  0.2806 -0.3574
10551SOL     OW32462   6.685   2.051   0.807  0.1869  0.8745 -0.5057
10551SOL    HW132463   6.778   2.034   0.824 -0.4521 -2.6508  0.4300
10551SOL    HW232464   6.649   2.077   0.892  0.2052  1.5279 -0.7000
10552SOL     OW32465   3.490   6.132   4.417 -0.0668 -0.2170 -0.3188
10552SOL    HW132466   3.586   6.137   4.420  0.1070 -1.2065 -2.4018
10552SOL    HW232467   3.465   6.111   4.507  1.6039  0.7368  0.4163
10553SOL     OW32468   4.449   7.034   5.825  0.1181 -0.4704  0.1361
10553SOL    HW132469   4.434   7.092   5.900  0.8327  0.5235 -0.4625
10553SOL    HW232470   4.362   7.022   5.786 -0.2360 -0.8841  1.0296
10554SOL     OW32471   7.751   3.870   3.893  0.0383 -0.2005 -0.5846
10554SOL    HW132472   7.655   3.875   3.894 -0.0168 -0.8776  1.0771
10554SOL    HW232473   7.779   3.939   3.952  0.4755 -1.1797  0.3857
10555SOL     OW32474   4.685   1.861   5.469  0.0170 -0.0349 -0.4634
10555SOL    HW132475   4.693   1.842   5.562 -0.1983  0.9447 -0.2391
10555SOL    HW232476   4.665   1.776   5.429  1.1895 -0.6576  0.2301
10556SOL     OW32477   0.632   4.454   2.065 -0.6446 -0.5807 -0.0978
10556SOL    HW132478   0.661   4.440   1.974 -2.5798  0.0533 -0.8614
10556SOL    HW232479   0.704   4.420   2.118 -0.3929 -3.0756 -1.8460
10557SOL     OW32480   7.561   1.133   1.121 -0.4189  0.5155 -0.2806
10557SOL    HW132481   7.503   1.208   1.113 -0.0169  0.7489 -1.0069
10557SOL    HW232482   7.538   1.076   1.049  0.2533  0.6123 -0.5832
10558SOL     OW32483   5.666   1.015   2.892  0.1847 -0.1406  0.0081
10558SOL    HW132484   5.628   1.036   2.807 -3.1356  3.2782  2.0364
10558SOL    HW232485   5.619   0.936   2.919  0.3395 -0.5162 -0.7863
10559SOL     OW32486   2.687   6.531   7.275  0.6839  0.0530  0.5599
10559SOL    HW132487   2.596   6.543   7.250  1.1474  0.0306 -1.2529
10559SOL    HW232488   2.689   6.447   7.320 -0.1975  0.1034  0.7083
10560SOL     OW32489   4.272   0.645   4.644  0.2474  0.4337  0.3797
10560SOL    HW132490   4.358   0.652   4.685 -0.6469  0.1954  2.4652
10560SOL    HW232491   4.290   0.619   4.554  2.3548  0.6838  0.6758
10561SOL     OW32492   5.281   4.128   5.551  0.8419 -0.4889 -0.3121
10561SOL    HW132493   5.281   4.223   5.562 -0.7592 -0.3186 -1.4485
10561SOL    HW232494   5.265   4.094   5.639  0.2265  0.3526 -0.0827
10562SOL     OW32495   7.915   6.441   0.402 -0.1121  0.6466  0.4675
10562SOL    HW132496   7.825   6.409   0.407 -0.2183  1.0088  0.8572
10562SOL    HW232497   7.910   6.533   0.425  0.3070  0.7661  0.1005
10563SOL     OW32498   1.795   4.497   5.923 -0.0036  0.4456  0.0554
10563SOL    HW132499   1.745   4.483   6.004  1.9464  0.0309  1.2582
10563SOL    HW232500   1.872   4.547   5.952  1.2946 -0.6735 -1.3342
10564SOL     OW32501   0.192   2.597   7.512 -0.4858  0.1800  0.1523
10564SOL    HW132502   0.288   2.589   7.507 -0.6457 -1.7685 -0.8589
10564SOL    HW232503   0.174   2.681   7.471  0.6836 -0.6927 -2.4146
10565SOL     OW32504   1.623   7.227   1.908  0.1139 -0.4403 -0.1253
10565SOL    HW132505   1.653   7.297   1.851  1.4166 -2.0643 -1.5367
10565SOL    HW232506   1.636   7.261   1.997  1.9936  0.6060 -0.7587
10566SOL     OW32507   3.673   2.293   2.053  0.5888  0.3593  0.1509
10566SOL    HW132508   3.678   2.357   2.124 -0.4101  2.1635 -1.3089
10566SOL    HW232509   3.715   2.336   1.978  0.6230 -1.0335 -0.6667
10567SOL     OW32510   5.371   4.447   0.102  0.6990 -0.3682 -0.1245
10567SOL    HW132511   5.293   4.403   0.136  0.4075  0.9032  0.9558
10567SOL    HW232512   5.344   4.480   0.016 -0.5082  1.3356  0.8339
10568SOL     OW32513   4.200   2.004   1.052  0.1629 -1.1886  0.2119
10568SOL    HW132514   4.263   1.939   1.083  2.6343  1.2666  0.6271
10568SOL    HW232515   4.236   2.035   0.969 -0.5882  0.1884  0.3760
10569SOL     OW32516   0.062   6.866   3.216  0.0447 -0.0442  0.1423
10569SOL    HW132517   0.083   6.794   3.157  0.4733  1.7237 -1.9976
10569SOL    HW232518   0.144   6.884   3.263 -0.3663 -1.6215  1.5818
10570SOL     OW32519   3.769   6.349   1.383 -0.1108 -0.3530 -0.3710
10570SOL    HW132520   3.821   6.269   1.386  2.2145  1.0730  0.2460
10570SOL    HW232521   3.831   6.419   1.403 -2.0854  1.6099 -0.6422
10571SOL     OW32522   3.981   6.981   6.273  0.0121 -0.4880  0.1114
10571SOL    HW132523   3.932   6.903   6.298 -0.4542 -0.6762 -1.2617
10571SOL    HW232524   4.070   6.950   6.257  0.0582 -0.5544  0.4968
10572SOL     OW32525   3.859   0.907   7.227  0.6544 -0.7217 -0.0463
10572SOL    HW132526   3.797   0.977   7.204  0.1634 -1.7353 -2.0385
10572SOL    HW232527   3.835   0.883   7.317 -1.5341 -0.7405 -0.5773
10573SOL     OW32528   2.382   5.423   4.411  0.3947  0.4245  0.0503
10573SOL    HW132529   2.294   5.461   4.407 -0.9546 -2.2245  1.6221
10573SOL    HW232530   2.408   5.415   4.319 -1.6387 -0.0167 -0.5490
10574SOL     OW32531   3.607   5.479   0.687  0.1906  0.3600  0.0022
10574SOL    HW132532   3.590   5.520   0.602  1.7131  1.1387  0.0348
10574SOL    HW232533   3.683   5.422   0.672 -1.0807 -1.4897  0.2752
10575SOL     OW32534   6.520   1.544   1.088  0.0881 -0.2236 -0.2615
10575SOL    HW132535   6.592   1.603   1.064 -1.3848  1.3344 -1.0868
10575SOL    HW232536   6.553   1.494   1.162  2.4521 -0.4590 -1.3696
10576SOL     OW32537   6.156   2.810   5.424 -0.1962 -0.7710  0.2289
10576SOL    HW132538   6.065   2.786   5.403 -0.4751 -2.1837  2.6408
10576SOL    HW232539   6.151   2.902   5.449 -1.3421 -1.2238  1.8694
10577SOL     OW32540   5.761   0.444   3.777 -0.1830 -0.3857 -0.1696
10577SOL    HW132541   5.839   0.406   3.817  0.3304  0.5108 -0.2903
10577SOL    HW232542   5.770   0.539   3.792 -0.0380 -0.0208 -2.2574
10578SOL     OW32543   6.624   4.414   3.905 -0.5397 -0.4109 -0.1226
10578SOL    HW132544   6.682   4.444   3.836  1.3125  0.7277  1.7914
10578SOL    HW232545   6.552   4.478   3.906  0.6921  1.0314  0.5381
10579SOL     OW32546   1.325   1.329   5.670  0.0446 -0.8462 -0.7144
10579SOL    HW132547   1.316   1.334   5.765 -1.5478 -0.2431 -0.8633
10579SOL    HW232548   1.292   1.413   5.638  0.5348 -1.0551 -1.8025
10580SOL     OW32549   6.371   1.884   5.378  0.2187 -0.5703  0.0909
10580SOL    HW132550   6.386   1.977   5.397 -1.0537 -0.0451 -1.2728
10580SOL    HW232551   6.290   1.883   5.327 -0.2737 -2.5307  0.8163
10581SOL     OW32552   4.129   6.250   2.130 -0.3111  0.7858  0.3332
10581SOL    HW132553   4.225   6.254   2.135 -0.3284  0.7464  0.7760
10581SOL    HW232554   4.102   6.341   2.114 -0.1547  0.6478 -0.7690
10582SOL     OW32555   4.780   0.153   2.315 -0.1848  0.3915  0.1107
10582SOL    HW132556   4.862   0.161   2.267  0.2952  0.5003  0.9453
10582SOL    HW232557   4.724   0.100   2.258  0.6535 -0.1492 -0.2151
10583SOL     OW32558   1.857   1.956   7.774 -0.5658  0.6863  0.6431
10583SOL    HW132559   1.900   1.900   7.710  0.7596  0.9837  1.2556
10583SOL    HW232560   1.908   1.945   7.854 -1.8308  0.8000  1.4946
10584SOL     OW32561   7.593   4.002   4.228  0.3404  0.4446 -0.0305
10584SOL    HW132562   7.631   3.976   4.312  0.6394 -0.7832 -0.5197
10584SOL    HW232563   7.565   4.093   4.241  2.0708  0.8971  0.8210
10585SOL     OW32564   2.071   3.942   3.317  0.2501  0.9198  0.0595
10585SOL    HW132565   2.108   4.021   3.355 -0.9513  1.3192  0.4489
10585SOL    HW232566   1.978   3.945   3.340  0.2614 -0.8501  0.4933
10586SOL     OW32567   6.631   3.794   7.066 -0.1389  0.1533  0.1831
10586SOL    HW132568   6.652   3.709   7.027 -1.8587  0.0346 -0.5597
10586SOL    HW232569   6.629   3.854   6.991 -0.6466  0.4960  0.4693
10587SOL     OW32570   6.688   6.574   4.998  0.1682 -0.2949  0.5218
10587SOL    HW132571   6.709   6.594   4.907  0.3540 -1.6162  0.2615
10587SOL    HW232572   6.592   6.575   5.001  0.1549 -0.6665  0.2159
10588SOL     OW32573   6.505   5.738   6.938  0.6667 -0.4309  0.1001
10588SOL    HW132574   6.492   5.663   6.996 -1.2157 -0.2516 -0.0408
10588SOL    HW232575   6.597   5.731   6.910  0.9436 -1.8265  1.2412
10589SOL     OW32576   2.598   6.543   3.743 -0.8428 -0.2440 -0.0707
10589SOL    HW132577   2.576   6.621   3.692  1.1095 -0.9112 -2.1200
10589SOL    HW232578   2.556   6.471   3.696 -0.9112 -0.6452  0.5918
10590SOL     OW32579   5.939   1.785   3.487 -0.2678  0.6307  0.9336
10590SOL    HW132580   5.990   1.808   3.565  2.6037  1.1508 -0.9312
10590SOL    HW232581   5.975   1.701   3.459  3.1256  3.0029 -2.9542
10591SOL     OW32582   0.264   1.854   7.458  0.2666  0.0127 -0.1154
10591SOL    HW132583   0.299   1.854   7.547  0.7002 -0.3067 -0.2823
10591SOL    HW232584   0.332   1.897   7.406  1.1949 -2.0596 -0.7214
10592SOL     OW32585   1.707   2.088   0.882  0.0311  0.0217 -0.0977
10592SOL    HW132586   1.738   2.169   0.841  1.8481 -1.1591 -1.1722
10592SOL    HW232587   1.780   2.027   0.873  0.4630 -0.5330  4.5234
10593SOL     OW32588   6.733   6.025   6.835  0.6446  0.8650 -0.6722
10593SOL    HW132589   6.643   6.022   6.803  1.6437 -0.8902 -3.7028
10593SOL    HW232590   6.761   5.933   6.838  3.3143  1.4311 -3.1596
10594SOL     OW32591   2.853   3.481   5.504 -0.2060 -0.3996 -0.5687
10594SOL    HW132592   2.882   3.511   5.418  0.6262 -1.0754 -0.5452
10594SOL    HW232593   2.849   3.560   5.558  1.6449 -0.2570 -0.5876
10595SOL     OW32594   3.561   6.722   0.466  0.0360  0.2437 -0.2555
10595SOL    HW132595   3.617   6.673   0.406  0.8130 -0.4218  0.9686
10595SOL    HW232596   3.621   6.765   0.527 -0.7283  0.8862  0.0842
10596SOL     OW32597   6.282   2.756   3.594 -0.1166  0.2173 -0.0773
10596SOL    HW132598   6.363   2.755   3.644 -0.6777 -0.3342  0.8536
10596SOL    HW232599   6.272   2.667   3.561  0.1913  0.5475 -1.1087
10597SOL     OW32600   6.070   7.025   4.829  0.2847  0.0010  0.2473
10597SOL    HW132601   6.157   7.063   4.833 -0.3038  1.3517  0.5430
10597SOL    HW232602   6.010   7.099   4.819 -0.8124 -0.9215 -0.3992
10598SOL     OW32603   0.332   2.691   3.961 -0.7698  0.7342  0.4886
10598SOL    HW132604   0.269   2.618   3.961 -0.3060  0.3251  0.1152
10598SOL    HW232605   0.352   2.705   3.868 -1.4015  1.8308  0.4981
10599SOL     OW32606   3.559   3.708   2.960 -0.3314  0.7159 -0.1274
10599SOL    HW132607   3.576   3.796   2.926  1.4348  1.1881  1.7811
10599SOL    HW232608   3.640   3.684   3.005 -1.7931 -0.6559  1.9323
10600SOL     OW32609   3.580   6.756   5.257  0.3380 -0.3902 -0.3348
10600SOL    HW132610   3.667   6.722   5.278  0.1585 -0.5764  0.1105
10600SOL    HW232611   3.576   6.753   5.161  0.7103 -0.6607 -0.3435
10601SOL     OW32612   6.811   2.611   7.466  0.0976 -0.7695 -0.0557
10601SOL    HW132613   6.859   2.633   7.385  0.6082 -2.4162 -0.2294
10601SOL    HW232614   6.729   2.571   7.435 -0.2158 -0.3734  0.2527
10602SOL     OW32615   4.489   4.824   3.474  0.1067  0.4117 -0.0863
10602SOL    HW132616   4.477   4.814   3.379 -1.7167 -1.2309  0.2627
10602SOL    HW232617   4.571   4.873   3.482  1.2204 -0.8670 -2.4671
10603SOL     OW32618   1.099   6.367   2.501 -0.1984 -0.1056 -0.3986
10603SOL    HW132619   1.105   6.346   2.407 -0.1449  1.0601 -0.6741
10603SOL    HW232620   1.113   6.462   2.505  0.3238 -0.2162  0.8500
10604SOL     OW32621   6.679   5.480   6.302  0.0919  0.5306  0.0045
10604SOL    HW132622   6.595   5.525   6.305 -0.5984 -0.7517  1.1411
10604SOL    HW232623   6.680   5.436   6.216  0.7466  2.5467 -1.0882
10605SOL     OW32624   5.129   6.132   7.569 -0.9806 -0.4236  0.2669
10605SOL    HW132625   5.142   6.167   7.657  1.3333  0.1210 -0.2342
10605SOL    HW232626   5.176   6.193   7.512  1.0410 -2.9061 -0.9063
10606SOL     OW32627   7.883   7.427   1.232  0.1035 -0.5427 -0.2503
10606SOL    HW132628   7.930   7.392   1.156  0.4001  0.4269 -0.5246
10606SOL    HW232629   7.945   7.417   1.305  0.9282  1.0736 -0.6813
10607SOL     OW32630   2.022   2.228   2.030 -0.5783  0.3714  0.5428
10607SOL    HW132631   2.061   2.180   2.103  0.2118 -0.4362 -0.3705
10607SOL    HW232632   2.082   2.213   1.957 -1.9266  0.1664 -0.5823
10608SOL     OW32633   4.122   0.891   1.312 -0.5060  0.3068  0.7405
10608SOL    HW132634   4.179   0.815   1.312  1.1391  1.4539 -0.5879
10608SOL    HW232635   4.035   0.857   1.332 -0.1116 -2.1506 -1.3126
10609SOL     OW32636   0.007   6.461   4.784 -0.1278  0.2102 -0.1844
10609SOL    HW132637  -0.016   6.553   4.770  0.5295  0.6039  1.1125
10609SOL    HW232638   0.093   6.465   4.827  0.2172 -1.0435 -0.7305
10610SOL     OW32639   7.758   0.149   1.250 -0.2480 -0.2944 -0.3396
10610SOL    HW132640   7.679   0.096   1.257  1.0370 -2.5642 -1.8736
10610SOL    HW232641   7.727   0.232   1.212 -2.0854 -0.4786  0.6232
10611SOL     OW32642   0.027   1.358   1.622  0.0587  0.1077 -0.3895
10611SOL    HW132643   0.076   1.399   1.693  0.9028  0.9165 -1.3892
10611SOL    HW232644   0.091   1.352   1.550 -0.9746  0.0156 -1.3226
10612SOL     OW32645   2.841   3.349   0.312 -0.1472  0.8807  0.4088
10612SOL    HW132646   2.852   3.406   0.389  1.1191  0.9371  0.2135
10612SOL    HW232647   2.931   3.332   0.282 -0.5962  0.3551 -0.6938
10613SOL     OW32648   7.772   6.141   3.122 -0.0810 -0.4276 -0.4207
10613SOL    HW132649   7.807   6.176   3.204  1.4778 -2.0452 -0.3196
10613SOL    HW232650   7.712   6.072   3.149  1.7730 -2.1875 -0.5608
10614SOL     OW32651   6.605   2.919   6.492  0.1342 -0.7172  0.2126
10614SOL    HW132652   6.594   2.929   6.398  0.3980 -1.4719  0.0887
10614SOL    HW232653   6.700   2.919   6.505  0.0963  0.9235  0.6745
10615SOL     OW32654   2.966   0.332   4.148  0.3719  0.0932 -0.4241
10615SOL    HW132655   2.983   0.389   4.223  2.0401 -0.4620 -0.3213
10615SOL    HW232656   2.940   0.391   4.078  0.9047  0.8595  0.0083
10616SOL     OW32657   0.048   0.490   2.839  0.1763 -0.4858  0.0033
10616SOL    HW132658  -0.018   0.463   2.775 -0.1252 -0.2965  0.2349
10616SOL    HW232659   0.022   0.448   2.920  0.5543 -0.7155  0.0088
10617SOL     OW32660   6.304   4.708   0.432 -0.6676 -1.1972 -0.0305
10617SOL    HW132661   6.398   4.722   0.426 -0.4391 -2.5215  0.0353
10617SOL    HW232662   6.291   4.662   0.515 -1.4621 -0.4253  0.2942
10618SOL     OW32663   3.367   7.297   5.476  1.0131 -0.5481 -0.0126
10618SOL    HW132664   3.343   7.382   5.513  0.1333 -1.3459  1.3225
10618SOL    HW232665   3.453   7.312   5.437 -0.0766  1.5284 -1.8517
10619SOL     OW32666   3.946   4.829   0.408 -0.4809 -0.1717  0.5051
10619SOL    HW132667   4.027   4.880   0.408  0.3614 -1.3452 -2.2314
10619SOL    HW232668   3.924   4.819   0.501  0.0840  3.8322  1.2649
10620SOL     OW32669   7.183   7.794   7.694  0.0165 -0.5455 -0.3529
10620SOL    HW132670   7.263   7.782   7.643 -0.3040 -3.0675 -0.3698
10620SOL    HW232671   7.128   7.850   7.640  1.6202  1.0140 -0.4619
10621SOL     OW32672   1.823   6.889   1.831 -1.0101  0.1165  0.2058
10621SOL    HW132673   1.819   6.854   1.742 -1.0270  0.3630  0.1072
10621SOL    HW232674   1.868   6.973   1.820 -0.8447  0.0597  0.4567
10622SOL     OW32675   2.839   5.319   3.065  0.1079  0.0776  0.2682
10622SOL    HW132676   2.902   5.331   2.994  0.1287  0.0725  0.2857
10622SOL    HW232677   2.893   5.295   3.141  0.1021  0.2549  0.3297
10623SOL     OW32678   1.886   4.453   1.794 -0.7281 -0.3767  0.0522
10623SOL    HW132679   1.805   4.463   1.845 -0.9667 -0.6400 -0.2693
10623SOL    HW232680   1.897   4.358   1.787 -2.1892 -0.4523 -2.6983
10624SOL     OW32681   5.277   3.052   5.740 -1.1210  0.2087  0.6383
10624SOL    HW132682   5.368   3.077   5.754 -0.8629 -0.2164 -0.2215
10624SOL    HW232683   5.250   3.013   5.823  0.5173 -2.7429 -0.0742
10625SOL     OW32684   0.546   2.252   7.415 -0.1069  0.6774 -0.6527
10625SOL    HW132685   0.568   2.324   7.356  0.5266 -0.1528 -1.4532
10625SOL    HW232686   0.613   2.254   7.482 -0.6291  1.4082 -0.1404
10626SOL     OW32687   7.295   1.093   0.420 -0.0222  0.6524  0.2198
10626SOL    HW132688   7.251   1.008   0.420  2.8138 -0.9897 -0.6002
10626SOL    HW232689   7.243   1.148   0.361 -1.9134 -0.5033  0.7395
10627SOL     OW32690   0.170   2.000   5.322  0.0237  0.1336 -0.5020
10627SOL    HW132691   0.192   2.005   5.230  0.2505 -1.0135 -0.5193
10627SOL    HW232692   0.254   1.993   5.368 -0.1274 -0.5155 -0.3075
10628SOL     OW32693   5.605   5.697   4.442  0.2526 -0.3075 -0.0899
10628SOL    HW132694   5.620   5.685   4.536 -0.0313  1.0575  0.1656
10628SOL    HW232695   5.620   5.791   4.429 -0.5497 -0.3343 -1.2492
10629SOL     OW32696   5.146   3.015   5.975  0.0024 -0.0604 -0.5729
10629SOL    HW132697   5.067   2.986   6.021  0.5205 -0.2190  0.2396
10629SOL    HW232698   5.218   2.987   6.031  0.7304 -1.3573 -2.0676
10630SOL     OW32699   6.773   7.289   7.909  0.2788 -0.1558  0.2778
10630SOL    HW132700   6.743   7.326   7.992  0.1599  0.2249  0.0654
10630SOL    HW232701   6.693   7.272   7.859  0.3767  0.1486  0.0155
10631SOL     OW32702   1.756   5.391   0.243  0.0234  0.4672  0.7817
10631SOL    HW132703   1.756   5.390   0.147 -1.2582  1.1615  0.7474
10631SOL    HW232704   1.783   5.302   0.268 -1.8551 -0.4586 -0.2643
10632SOL     OW32705   0.948   4.417   3.398 -0.3889  0.5521  0.0543
10632SOL    HW132706   1.042   4.409   3.381 -0.5437  0.0030 -0.6024
10632SOL    HW232707   0.918   4.487   3.340 -0.6390 -0.2795 -0.8556
10633SOL     OW32708   6.608   4.722   1.748 -0.0727 -0.2660  0.3648
10633SOL    HW132709   6.552   4.799   1.738 -0.9170 -0.7806  0.9550
10633SOL    HW232710   6.614   4.710   1.843  0.6614 -0.4914  0.2906
10634SOL     OW32711   5.796   4.692   6.664 -0.3367  0.0981 -0.3004
10634SOL    HW132712   5.747   4.715   6.742  0.1752 -2.6268  0.9355
10634SOL    HW232713   5.731   4.659   6.603 -0.3578 -1.1305  0.3702
10635SOL     OW32714   0.892   5.013   1.376 -0.0095 -0.7394 -0.1354
10635SOL    HW132715   0.976   4.968   1.371 -0.4947 -1.5749 -1.0616
10635SOL    HW232716   0.909   5.090   1.431  1.5971 -0.3531 -1.1122
10636SOL     OW32717   5.204   5.432   7.061  0.3039  0.4737 -0.1583
10636SOL    HW132718   5.177   5.432   7.152  2.3262  3.6628  0.6397
10636SOL    HW232719   5.145   5.494   7.018  1.0148  1.0298 -0.3540
10637SOL     OW32720   4.130   3.493   1.906  0.3257  0.3519  0.3829
10637SOL    HW132721   4.049   3.459   1.868  0.2829 -0.4264  1.1279
10637SOL    HW232722   4.152   3.569   1.853 -0.6172  0.2650 -0.1482
10638SOL     OW32723   6.337   7.321   6.855 -0.1288  0.3356 -0.3783
10638SOL    HW132724   6.332   7.310   6.950 -0.3832  2.1517 -0.1476
10638SOL    HW232725   6.259   7.372   6.832 -0.0628 -0.0592 -1.5785
10639SOL     OW32726   3.437   5.417   5.820  0.3246  0.5543  0.4187
10639SOL    HW132727   3.424   5.505   5.785 -1.9330 -0.3587 -1.3045
10639SOL    HW232728   3.365   5.406   5.883  0.3248 -0.1937  0.2953
10640SOL     OW32729   0.835   4.610   3.236  0.0149 -0.7244 -0.1434
10640SOL    HW132730   0.842   4.703   3.213  0.5238 -0.2628  1.6713
10640SOL    HW232731   0.745   4.599   3.266  0.2625 -0.5410  0.6844
10641SOL     OW32732   6.856   0.440   3.737  0.5784 -0.1267 -0.1002
10641SOL    HW132733   6.950   0.455   3.728  0.5970  0.3328  0.7153
10641SOL    HW232734   6.847   0.402   3.825 -0.0594  0.4257  0.0816
10642SOL     OW32735   7.894   3.368   7.843  0.2210 -0.5145  0.4589
10642SOL    HW132736   7.938   3.453   7.831  2.0717 -1.3788  0.7254
10642SOL    HW232737   7.923   3.315   7.769 -1.7976 -0.6321 -0.3176
10643SOL     OW32738   7.457   6.435   1.225  0.2065  0.0960  0.2331
10643SOL    HW132739   7.368   6.416   1.253  0.1918  0.3879  0.3799
10643SOL    HW232740   7.495   6.349   1.206 -0.0555 -0.0377  0.3221
10644SOL     OW32741   1.069   0.631   6.646  0.1127  0.2316  0.1904
10644SOL    HW132742   1.098   0.540   6.639  0.1893  0.3232 -0.8126
10644SOL    HW232743   1.059   0.660   6.555  0.7312  1.4339  0.4902
10645SOL     OW32744   2.641   2.833   6.341  0.5407 -0.4097 -0.0592
10645SOL    HW132745   2.580   2.764   6.365 -0.1765  0.7092  1.5503
10645SOL    HW232746   2.719   2.788   6.311 -0.2647 -1.8970  0.0148
10646SOL     OW32747   6.938   0.941   3.373  0.7462  0.0273 -0.6065
10646SOL    HW132748   7.032   0.949   3.385  1.0776 -0.6814 -2.3404
10646SOL    HW232749   6.919   0.995   3.297  0.0871 -1.2737 -1.3970
10647SOL     OW32750   2.696   2.067   1.718 -0.1344  0.6202 -0.3029
10647SOL    HW132751   2.647   1.991   1.687 -0.4290  1.6311 -2.4638
10647SOL    HW232752   2.694   2.059   1.814 -0.4714 -1.8564 -0.4498
10648SOL     OW32753   0.272   0.136   7.359 -0.2352 -0.3056 -0.1482
10648SOL    HW132754   0.195   0.080   7.345 -0.5819  0.0728  0.2270
10648SOL    HW232755   0.246   0.221   7.325  0.1100 -0.2371 -0.2450
10649SOL     OW32756   6.424   6.566   0.133 -0.4843  0.0813  0.3482
10649SOL    HW132757   6.502   6.511   0.135 -0.1160  0.5983  0.1520
10649SOL    HW232758   6.396   6.571   0.225  0.5100  1.0308  0.6170
10650SOL     OW32759   0.397   0.159   6.155  0.3253  0.6305  0.0351
10650SOL    HW132760   0.465   0.211   6.198  0.5056  1.7134 -1.4695
10650SOL    HW232761   0.428   0.068   6.163  0.6243  0.8512  1.6276
10651SOL     OW32762   3.427   2.641   6.402 -0.0777  0.0728  0.2702
10651SOL    HW132763   3.514   2.603   6.406  0.1443  0.6661  1.7270
10651SOL    HW232764   3.439   2.726   6.359 -0.3283 -0.7688 -1.5602
10652SOL     OW32765   6.121   6.139   0.584  0.0556 -0.7791  0.2537
10652SOL    HW132766   6.210   6.137   0.619 -0.1487 -0.5430  0.7846
10652SOL    HW232767   6.115   6.060   0.530  0.6438 -0.7009  0.0703
10653SOL     OW32768   2.656   4.477   0.079 -0.3146 -0.6931  0.2068
10653SOL    HW132769   2.738   4.516   0.048 -1.4368  0.8782 -0.9208
10653SOL    HW232770   2.682   4.390   0.110  1.9252  0.0923  0.7645
10654SOL     OW32771   1.292   5.421   3.920 -0.4292  0.1913 -0.3653
10654SOL    HW132772   1.225   5.479   3.955  0.0168  1.0191 -0.8343
10654SOL    HW232773   1.364   5.427   3.982 -0.3946  0.1213 -0.3990
10655SOL     OW32774   7.927   6.746   4.854 -0.2048 -0.2430  0.4533
10655SOL    HW132775   8.000   6.786   4.901  0.2175  0.6508 -0.8864
10655SOL    HW232776   7.932   6.784   4.766 -0.4608 -2.4380 -0.5716
10656SOL     OW32777   1.925   5.067   5.050 -0.0239  0.7685  0.0221
10656SOL    HW132778   2.002   5.036   5.097 -0.4709 -0.1279  0.1783
10656SOL    HW232779   1.915   5.159   5.077 -0.2108  0.3022  1.5774
10657SOL     OW32780   2.304   5.821   3.709 -0.3903 -0.0453  0.6593
10657SOL    HW132781   2.221   5.775   3.707 -0.7790  0.6578 -0.2373
10657SOL    HW232782   2.312   5.860   3.622  0.3121  0.8601  1.1049
10658SOL     OW32783   0.031   1.416   6.116 -0.3292  0.1247  0.1061
10658SOL    HW132784  -0.026   1.467   6.058  1.0537  0.4713 -1.0245
10658SOL    HW232785   0.076   1.482   6.169  1.0387  0.0801 -0.9549
10659SOL     OW32786   4.270   2.811   3.482  0.6889  0.0634  0.1520
10659SOL    HW132787   4.188   2.851   3.454  1.4645  1.0540 -0.7791
10659SOL    HW232788   4.243   2.732   3.530 -0.7767  0.0668 -0.6077
10660SOL     OW32789   1.980   1.787   1.322  0.0570  0.0831  0.1528
10660SOL    HW132790   1.918   1.859   1.327  0.3191  0.3388 -0.2800
10660SOL    HW232791   1.932   1.717   1.277  0.0407  0.2310 -0.0570
10661SOL     OW32792   6.174   0.230   2.671 -0.3391  0.0791  0.0817
10661SOL    HW132793   6.095   0.207   2.719 -0.1663 -0.5302  0.0848
10661SOL    HW232794   6.245   0.185   2.718 -0.4903 -3.3538 -2.5457
10662SOL     OW32795   0.062   0.544   2.492  0.1375  0.2762  0.0734
10662SOL    HW132796  -0.001   0.513   2.558  0.3759 -1.4621 -0.4753
10662SOL    HW232797   0.009   0.595   2.430 -0.2288  1.2039  1.1057
10663SOL     OW32798   5.261   3.996   3.135 -0.2061  0.1729 -0.4524
10663SOL    HW132799   5.301   4.025   3.218  0.1995  1.7422 -1.1573
10663SOL    HW232800   5.218   3.913   3.157  1.3267 -0.3168  0.9329
10664SOL     OW32801   5.111   0.804   2.657  0.5259 -0.4979 -0.1979
10664SOL    HW132802   5.144   0.873   2.599  0.8017 -1.6180 -1.4108
10664SOL    HW232803   5.037   0.845   2.702  1.1638  0.8299 -0.2962
10665SOL     OW32804   5.078   0.619   6.162 -0.1575  0.3281 -0.0906
10665SOL    HW132805   5.052   0.648   6.075 -0.9674  1.8048  0.5951
10665SOL    HW232806   5.147   0.680   6.188  0.1217 -0.1339  0.2755
10666SOL     OW32807   5.576   4.786   7.678  0.2482 -0.8477 -0.1824
10666SOL    HW132808   5.657   4.817   7.639  0.0368 -1.1504 -0.8755
10666SOL    HW232809   5.563   4.843   7.754  1.3533 -1.1055  0.2229
10667SOL     OW32810   5.084   2.246   1.404 -0.2179 -0.3198 -0.4360
10667SOL    HW132811   5.180   2.241   1.399 -0.1138 -0.1424  0.8507
10667SOL    HW232812   5.054   2.156   1.394  0.3176 -0.8836  2.3120
10668SOL     OW32813   5.172   4.243   3.349  0.1199  0.2032  0.0565
10668SOL    HW132814   5.103   4.276   3.291 -0.6921  0.1468  0.9585
10668SOL    HW232815   5.252   4.249   3.297 -0.1870  2.4336 -0.2603
10669SOL     OW32816   4.724   3.913   0.872 -0.1659 -0.2853 -0.1697
10669SOL    HW132817   4.643   3.876   0.839  0.2863 -0.2344 -1.3730
10669SOL    HW232818   4.736   3.873   0.958 -0.0542 -2.4057 -1.1295
10670SOL     OW32819   6.088   2.190   4.197  0.0143 -0.6243 -0.2209
10670SOL    HW132820   6.002   2.222   4.170  0.3488 -0.5008 -1.1852
10670SOL    HW232821   6.119   2.138   4.123  0.5899 -1.0229  0.2897
10671SOL     OW32822   2.468   0.716   2.589  0.1589  0.2237  0.1753
10671SOL    HW132823   2.428   0.767   2.659 -0.0763  0.7735 -0.3534
10671SOL    HW232824   2.524   0.653   2.635 -2.0227 -1.2462  1.0155
10672SOL     OW32825   7.185   0.132   0.009  0.1972  0.0779  0.2303
10672SOL    HW132826   7.243   0.167   0.076  0.1100 -0.4590  0.5894
10672SOL    HW232827   7.168   0.207  -0.049 -1.5148  1.1789  2.0327
10673SOL     OW32828   5.474   6.600   4.710  0.0962  0.3873  0.3899
10673SOL    HW132829   5.559   6.611   4.668 -0.3307  0.9784 -0.3329
10673SOL    HW232830   5.468   6.674   4.771 -1.6350  2.9432 -2.5616
10674SOL     OW32831   4.068   7.388   5.808  0.1707  0.2994  0.0536
10674SOL    HW132832   4.027   7.314   5.764 -1.6434 -0.1591  2.3054
10674SOL    HW232833   4.008   7.462   5.791  0.4042  0.5366  0.2534
10675SOL     OW32834   3.839   5.633   2.535 -0.0116 -0.3216 -0.2657
10675SOL    HW132835   3.897   5.709   2.527 -0.2558 -0.2953 -2.6665
10675SOL    HW232836   3.873   5.571   2.470 -1.0987 -1.4009  0.1559
10676SOL     OW32837   6.925   2.106   2.864  0.5005 -0.8564  0.2296
10676SOL    HW132838   6.969   2.052   2.929  0.2193  1.1472  2.1977
10676SOL    HW232839   6.989   2.173   2.841 -0.1583 -0.2522  0.1208
10677SOL     OW32840   5.150   1.189   0.331  0.1433 -0.3649  0.0293
10677SOL    HW132841   5.161   1.275   0.372  0.1535  0.9847 -2.5784
10677SOL    HW232842   5.158   1.127   0.403 -0.0397  1.8092  2.0546
10678SOL     OW32843   2.127   7.521   3.496  0.3574  0.1621 -0.7249
10678SOL    HW132844   2.176   7.440   3.508 -0.7779 -0.3558  0.6672
10678SOL    HW232845   2.035   7.494   3.498 -0.0290  1.2650 -2.0492
10679SOL     OW32846   0.199   2.794   7.936  0.1377 -0.0544  0.1800
10679SOL    HW132847   0.132   2.824   7.997 -0.0221  0.8696 -0.4389
10679SOL    HW232848   0.279   2.839   7.964  0.9735 -2.3899  1.9636
10680SOL     OW32849   2.052   5.460   5.527 -0.1115  0.2277  0.0057
10680SOL    HW132850   1.969   5.499   5.497  0.6828  1.8110 -0.2395
10680SOL    HW232851   2.028   5.411   5.605 -0.9189  2.9049  1.5674
10681SOL     OW32852   2.136   2.614   2.741 -0.0568 -0.3719  0.3507
10681SOL    HW132853   2.147   2.611   2.836 -2.2211 -0.4806  0.6376
10681SOL    HW232854   2.082   2.538   2.720 -3.3979  1.9652 -0.3134
10682SOL     OW32855   4.703   0.987   4.492  0.8327 -0.4518  0.5158
10682SOL    HW132856   4.609   0.969   4.486  1.1914 -2.1245 -0.4467
10682SOL    HW232857   4.715   1.014   4.583 -0.8710  1.8052  0.1651
10683SOL     OW32858   7.236   2.778   1.065 -0.3985  0.2075 -0.0914
10683SOL    HW132859   7.237   2.837   0.989 -0.5594 -0.2970 -0.4878
10683SOL    HW232860   7.308   2.717   1.049 -1.2249 -0.6855 -0.4666
10684SOL     OW32861   6.422   7.953   4.038  0.1021 -0.7467 -0.7006
10684SOL    HW132862   6.448   7.963   4.130  0.0636  0.3306 -0.8002
10684SOL    HW232863   6.340   8.001   4.031 -0.0306 -1.0511 -1.2466
10685SOL     OW32864   7.138   0.430   7.194  0.1126  0.5829 -0.0075
10685SOL    HW132865   7.159   0.522   7.210 -0.6513  0.6053  0.9116
10685SOL    HW232866   7.170   0.384   7.271 -0.3480  0.2042 -0.0368
10686SOL     OW32867   6.094   7.500   0.613  0.4537 -0.0134  0.0210
10686SOL    HW132868   6.136   7.562   0.554 -0.1330 -0.0921 -0.4951
10686SOL    HW232869   6.065   7.429   0.555 -1.1105  0.4245  0.2295
10687SOL     OW32870   6.010   6.099   6.704  0.1574 -0.2951  0.3157
10687SOL    HW132871   5.939   6.083   6.641  0.7195  0.4279 -0.5338
10687SOL    HW232872   6.032   6.013   6.738 -2.0006 -0.4064  1.5845
10688SOL     OW32873   3.843   3.228   4.969 -0.1102  0.2928 -0.2286
10688SOL    HW132874   3.929   3.271   4.968  0.2309 -0.2185  1.9363
10688SOL    HW232875   3.803   3.256   5.051 -0.4039 -2.4087  0.6640
10689SOL     OW32876   6.588   0.914   7.701 -0.3041 -0.2900 -0.0382
10689SOL    HW132877   6.511   0.889   7.650  0.0748  1.8764 -1.8513
10689SOL    HW232878   6.563   0.996   7.743  0.2274 -0.8164  1.3774
10690SOL     OW32879   2.427   6.844   3.068 -0.7740 -0.0018  0.3877
10690SOL    HW132880   2.350   6.888   3.032 -0.4495 -0.2111 -0.5839
10690SOL    HW232881   2.476   6.914   3.111 -0.4017  0.5596 -0.9044
10691SOL     OW32882   5.752   5.026   6.459  0.3629 -0.0130  0.2953
10691SOL    HW132883   5.686   4.956   6.465  0.3959 -0.0540  0.1755
10691SOL    HW232884   5.831   4.982   6.430  0.5055 -0.0018  0.6568
10692SOL     OW32885   7.016   7.373   3.056 -0.1348  0.8450  0.1722
10692SOL    HW132886   6.972   7.451   3.090 -2.7461 -0.1260 -0.7419
10692SOL    HW232887   6.995   7.372   2.962 -1.2115 -1.5280  0.3566
10693SOL     OW32888   7.075   1.316   7.141 -0.4065 -0.4450  0.0721
10693SOL    HW132889   7.115   1.257   7.205 -0.9706 -0.6689  0.2246
10693SOL    HW232890   7.145   1.334   7.078  0.1583 -0.1993  0.7627
10694SOL     OW32891   7.699   1.151   3.770 -0.3952  0.5520  0.7861
10694SOL    HW132892   7.660   1.176   3.854 -0.3596 -0.3962  1.1011
10694SOL    HW232893   7.717   1.234   3.726  1.2803  1.1549  2.4849
10695SOL     OW32894   2.951   5.527   2.223 -0.5077  0.7798  0.0984
10695SOL    HW132895   3.023   5.555   2.279 -2.0000  0.9848  2.0084
10695SOL    HW232896   2.964   5.433   2.212  0.9421  1.0647 -1.0072
10696SOL     OW32897   0.462   0.786   3.604  0.7906 -0.2286 -0.0315
10696SOL    HW132898   0.531   0.829   3.553 -1.7035  1.3969 -2.3547
10696SOL    HW232899   0.489   0.695   3.610  3.2434  0.4025 -0.5580
10697SOL     OW32900   5.704   6.800   3.750  0.1660  0.3064  0.2714
10697SOL    HW132901   5.670   6.762   3.831  0.7050  0.3955  0.5445
10697SOL    HW232902   5.688   6.732   3.684 -1.0109  0.5556  0.2808
10698SOL     OW32903   2.509   7.225   3.868 -0.2481 -0.4250 -0.4578
10698SOL    HW132904   2.506   7.321   3.874  3.4716 -0.2279  1.1992
10698SOL    HW232905   2.420   7.197   3.888 -1.3406  2.6521 -0.4598
10699SOL     OW32906   3.114   1.217   0.844  0.0448 -0.7398 -0.7129
10699SOL    HW132907   3.030   1.188   0.878 -0.5382  0.2717 -1.2241
10699SOL    HW232908   3.142   1.147   0.785 -0.9537 -0.6195 -1.3423
10700SOL     OW32909   7.320   3.632   4.630 -0.0731  0.1405 -0.0879
10700SOL    HW132910   7.402   3.646   4.676  1.8474  0.6868 -3.3447
10700SOL    HW232911   7.257   3.686   4.677  2.0560  1.8387  1.0098
10701SOL     OW32912   5.332   3.863   3.504 -0.3493  0.0379  0.0048
10701SOL    HW132913   5.319   3.913   3.585  0.3704  0.5239 -0.1743
10701SOL    HW232914   5.325   3.771   3.531 -0.6888  0.2042  0.5099
10702SOL     OW32915   5.278   2.334   3.274 -0.4347  0.0760  0.3312
10702SOL    HW132916   5.264   2.273   3.347  0.1905  0.2313  0.5835
10702SOL    HW232917   5.352   2.298   3.226  0.9709  1.4508  1.3747
10703SOL     OW32918   3.434   1.427   4.320 -0.2002  0.3203 -0.1587
10703SOL    HW132919   3.518   1.450   4.281  0.3403 -1.0487  0.1527
10703SOL    HW232920   3.385   1.509   4.322  1.1005  1.1196 -0.3894
10704SOL     OW32921   5.369   7.054   7.876  0.1406  0.2135 -0.0624
10704SOL    HW132922   5.391   7.129   7.931  2.1240 -0.2545 -0.1611
10704SOL    HW232923   5.275   7.065   7.858  0.0347  1.8064  1.1949
10705SOL     OW32924   5.908   1.559   6.364  0.3426  0.3468 -0.4783
10705SOL    HW132925   5.894   1.602   6.449 -2.8045  1.3896 -1.3761
10705SOL    HW232926   5.846   1.602   6.305  1.3672 -1.3661 -2.9766
10706SOL     OW32927   0.946   2.391   1.748 -0.0920  0.0332 -0.0285
10706SOL    HW132928   0.935   2.315   1.690  0.9581 -0.8727  0.9050
10706SOL    HW232929   1.038   2.390   1.773  0.0315  1.8697 -0.2901
10707SOL     OW32930   1.175   0.434   6.299 -0.2615  0.1155  0.2795
10707SOL    HW132931   1.163   0.529   6.293  0.9762  0.2216 -1.0813
10707SOL    HW232932   1.261   0.424   6.340  0.2289 -0.3910 -0.8529
10708SOL     OW32933   2.437   3.645   0.198 -0.2470 -0.0449  0.5428
10708SOL    HW132934   2.466   3.658   0.108 -0.8213  3.5677  0.7203
10708SOL    HW232935   2.482   3.566   0.227  1.3027 -0.3529 -2.3430
10709SOL     OW32936   6.338   6.987   6.838  0.2109 -0.4635 -0.2444
10709SOL    HW132937   6.429   6.997   6.810  0.9497  1.5025  2.4699
10709SOL    HW232938   6.334   6.900   6.878  0.1490 -1.6052 -2.5529
10710SOL     OW32939   7.018   5.184   5.242  0.0693 -0.6150  0.6406
10710SOL    HW132940   7.061   5.100   5.225  0.9754 -0.3805  1.6547
10710SOL    HW232941   7.088   5.249   5.232 -0.6452  0.0374 -0.2244
10711SOL     OW32942   4.200   4.809   5.944 -0.1117 -0.3535  0.3283
10711SOL    HW132943   4.176   4.891   5.901 -0.3286 -0.7481 -0.3157
10711SOL    HW232944   4.244   4.758   5.877 -0.8431 -1.1591  0.4412
10712SOL     OW32945   0.522   7.626   6.679  0.2267 -0.4894  0.2291
10712SOL    HW132946   0.573   7.545   6.672 -0.1026 -0.6595 -0.2859
10712SOL    HW232947   0.585   7.692   6.705  0.2887 -1.1333  1.8560
10713SOL     OW32948   4.921   5.245   5.285  0.0685  0.5999  0.2458
10713SOL    HW132949   4.997   5.285   5.326  0.0150  1.2114 -0.2484
10713SOL    HW232950   4.856   5.315   5.280 -0.4043  0.1780  0.3308
10714SOL     OW32951   3.095   6.393   4.255  0.3941  0.1109 -0.2438
10714SOL    HW132952   3.177   6.441   4.242  0.0762  0.5132 -0.8062
10714SOL    HW232953   3.051   6.440   4.325  0.8982 -0.4534  0.4668
10715SOL     OW32954   7.966   1.660   8.000  0.1833  0.0111  0.0238
10715SOL    HW132955   8.047   1.611   7.984  0.3332 -0.2107  1.3779
10715SOL    HW232956   7.934   1.628   8.084  0.3323  2.2554  1.0130
10716SOL     OW32957   4.673   5.767   1.526 -0.0744 -0.4603  0.2664
10716SOL    HW132958   4.758   5.725   1.534  0.1527  0.2202  1.9788
10716SOL    HW232959   4.691   5.860   1.545 -0.7821  0.1789 -1.9721
10717SOL     OW32960   5.154   4.813   1.133  0.1416  0.2520  0.1889
10717SOL    HW132961   5.072   4.860   1.148 -0.1556 -0.3704  0.5251
10717SOL    HW232962   5.177   4.776   1.218  1.4148  1.4219  0.3979
10718SOL     OW32963   4.274   1.051   2.807 -0.3470 -0.7069  0.2585
10718SOL    HW132964   4.298   0.975   2.755 -0.4188 -0.6129  0.0887
10718SOL    HW232965   4.190   1.079   2.771  0.7353  0.8457 -1.2276
10719SOL     OW32966   4.873   0.527   2.319  0.2975 -0.1804  0.2702
10719SOL    HW132967   4.821   0.477   2.256  2.0247 -1.1279 -0.4838
10719SOL    HW232968   4.959   0.486   2.316  1.5408  2.2615  0.3487
10720SOL     OW32969   3.533   3.441   4.633 -0.0839  0.2424  0.3968
10720SOL    HW132970   3.554   3.377   4.565 -0.0200  1.7027 -1.0125
10720SOL    HW232971   3.442   3.465   4.615  0.1938  1.2588  0.2774
10721SOL     OW32972   0.242   1.679   2.176 -0.6622  0.1865 -0.0885
10721SOL    HW132973   0.303   1.753   2.172  0.5687 -0.8199 -0.5534
10721SOL    HW232974   0.174   1.700   2.112  0.0524  0.5987 -0.7277
10722SOL     OW32975   6.738   1.248   6.665  0.1990  0.7458 -0.3239
10722SOL    HW132976   6.732   1.268   6.759  1.7601  0.0489 -0.0393
10722SOL    HW232977   6.683   1.170   6.654 -1.1609  1.6715 -0.2981
10723SOL     OW32978   0.868   6.631   3.273 -0.3745  0.0772 -0.3489
10723SOL    HW132979   0.855   6.537   3.283  0.3596 -0.0201 -0.2456
10723SOL    HW232980   0.955   6.647   3.309 -1.1335  1.0586  1.1615
10724SOL     OW32981   5.098   6.770   2.653  0.1246 -0.6613  0.4173
10724SOL    HW132982   5.145   6.725   2.723  0.7373 -1.6871 -0.6233
10724SOL    HW232983   5.006   6.771   2.681 -0.2890 -4.3337 -0.3297
10725SOL     OW32984   1.841   7.652   2.150  0.1065 -0.0590  0.0518
10725SOL    HW132985   1.930   7.629   2.123  1.1829  1.8579  1.7223
10725SOL    HW232986   1.793   7.569   2.146  1.9879 -1.1772 -0.7559
10726SOL     OW32987   1.735   7.549   0.628 -0.3043 -0.6381  0.3232
10726SOL    HW132988   1.706   7.468   0.587  1.0152 -0.8682 -0.2008
10726SOL    HW232989   1.654   7.599   0.641 -1.2499 -2.3951  1.5316
10727SOL     OW32990   1.124   1.596   3.572 -0.2799  0.0663 -0.7508
10727SOL    HW132991   1.067   1.581   3.497 -0.0846 -0.0094 -0.8853
10727SOL    HW232992   1.178   1.518   3.578 -0.2237  0.1152 -0.5933
10728SOL     OW32993   2.704   5.673   2.180  0.1137  0.5390 -0.4888
10728SOL    HW132994   2.657   5.594   2.155 -0.6735  0.5204  0.9132
10728SOL    HW232995   2.796   5.647   2.183 -0.0642 -0.1394 -0.6895
10729SOL     OW32996   5.699   5.145   2.629  0.1860 -0.3764 -0.0846
10729SOL    HW132997   5.645   5.163   2.706 -0.0640  0.4608 -0.4421
10729SOL    HW232998   5.754   5.071   2.655  0.7442  0.4607  1.2348
10730SOL     OW32999   2.927   1.451   7.410 -0.1533 -0.2013 -0.0120
10730SOL    HW133000   2.925   1.516   7.339  0.1100  0.5125  0.6136
10730SOL    HW233001   3.019   1.446   7.435 -0.2626 -0.3616  0.3603
10731SOL     OW33002   1.739   1.685   4.251  0.2970 -0.2526  0.0871
10731SOL    HW133003   1.765   1.737   4.175  0.7036  1.2424  1.1896
10731SOL    HW233004   1.748   1.594   4.223  2.5306  0.2376 -0.9714
10732SOL     OW33005   1.467   2.489   5.839  0.1911 -0.4369 -0.0410
10732SOL    HW133006   1.551   2.443   5.843  0.1505 -0.5462 -0.4286
10732SOL    HW233007   1.467   2.545   5.917  0.6286 -0.4263 -0.0449
10733SOL     OW33008   3.889   1.442   7.028  0.5219  0.1648  0.3502
10733SOL    HW133009   3.845   1.435   6.944 -1.6056  1.7908  1.2308
10733SOL    HW233010   3.981   1.459   7.007  0.0150  0.6167 -1.6404
10734SOL     OW33011   3.314   6.531   3.293 -0.1254 -0.8379  0.6915
10734SOL    HW133012   3.346   6.514   3.205  1.7824 -0.5128  1.2816
10734SOL    HW233013   3.245   6.597   3.282  0.6150 -0.2416 -0.4746
10735SOL     OW33014   6.440   5.191   3.343 -0.7274 -0.0144  0.2653
10735SOL    HW133015   6.391   5.160   3.419 -0.1286  1.0354  1.1122
10735SOL    HW233016   6.519   5.137   3.341  0.1786  1.1875  1.5686
10736SOL     OW33017   2.241   3.810   4.568 -0.3237 -0.1425  0.3459
10736SOL    HW133018   2.247   3.901   4.597 -0.0457  0.2044 -0.7676
10736SOL    HW233019   2.273   3.759   4.643 -1.7368  0.5621  1.4954
10737SOL     OW33020   2.577   0.827   6.972  0.2135  0.5312 -0.2738
10737SOL    HW133021   2.570   0.845   7.066  1.6077  0.9862 -0.2269
10737SOL    HW233022   2.670   0.838   6.953 -0.0020  0.1270 -1.6537
10738SOL     OW33023   2.714   7.990   6.186  0.2094 -0.4846  0.5338
10738SOL    HW133024   2.789   7.951   6.232 -0.2817  0.4750  2.2446
10738SOL    HW233025   2.696   8.071   6.234 -0.8448  0.1965 -0.9201
10739SOL     OW33026   4.234   7.554   3.707  0.7102  0.4502  0.5423
10739SOL    HW133027   4.153   7.606   3.708 -0.0330 -0.5880 -1.2451
10739SOL    HW233028   4.280   7.581   3.787 -0.1767  2.9489  0.3187
10740SOL     OW33029   3.945   5.693   1.455 -0.1313 -0.4254 -0.0218
10740SOL    HW133030   3.960   5.610   1.408 -0.8867 -0.4064 -0.3077
10740SOL    HW233031   3.946   5.759   1.386  0.7165 -0.1542  0.2362
10741SOL     OW33032   2.374   0.826   4.484  0.3756 -0.6939  0.6560
10741SOL    HW133033   2.310   0.833   4.413  2.0026  1.1622 -0.7383
10741SOL    HW233034   2.329   0.861   4.561  0.5247  3.6402 -0.9589
10742SOL     OW33035   2.358   0.819   6.570 -0.2022 -0.1162 -0.1683
10742SOL    HW133036   2.313   0.797   6.652  0.6184 -1.3965 -0.0274
10742SOL    HW233037   2.311   0.771   6.502 -1.4883  1.7075 -0.6433
10743SOL     OW33038   3.212   4.532   5.201 -0.2787 -0.4927  0.4636
10743SOL    HW133039   3.223   4.471   5.129  1.2178  0.0493  0.1784
10743SOL    HW233040   3.200   4.618   5.159 -1.2448 -0.4226  0.8598
10744SOL     OW33041   2.866   5.268   3.848 -0.0735  0.2678  0.1797
10744SOL    HW133042   2.825   5.189   3.813 -0.1583 -0.2908  1.4817
10744SOL    HW233043   2.809   5.339   3.819  0.1267 -0.1136 -1.1970
10745SOL     OW33044   3.583   5.364   2.469  0.2808  0.7275 -0.0511
10745SOL    HW133045   3.561   5.405   2.386  1.4543  1.1145 -0.1932
10745SOL    HW233046   3.506   5.377   2.524 -0.1580  1.2643 -0.7868
10746SOL     OW33047   4.201   4.485   6.088  0.2544 -0.1934  0.4928
10746SOL    HW133048   4.194   4.472   5.993 -0.2195  0.6416  0.4019
10746SOL    HW233049   4.111   4.503   6.116  0.7329  2.1284  0.6989
10747SOL     OW33050   7.760   2.493   0.575 -0.0048  0.2198 -0.2045
10747SOL    HW133051   7.811   2.567   0.542 -1.3093  0.5012 -1.7384
10747SOL    HW233052   7.708   2.530   0.646  2.7666 -0.3665  2.3287
10748SOL     OW33053   5.973   6.419   4.969 -0.5232  0.0414 -0.2652
10748SOL    HW133054   5.981   6.323   4.965 -2.3311 -0.1288 -1.3085
10748SOL    HW233055   5.890   6.434   5.015 -1.2030  1.0141 -1.7208
10749SOL     OW33056   1.670   4.780   1.423  0.1057  0.0487 -0.0261
10749SOL    HW133057   1.682   4.812   1.513 -0.0106  0.3577 -0.1174
10749SOL    HW233058   1.593   4.827   1.392  0.0378 -0.1965 -0.2261
10750SOL     OW33059   4.484   2.751   6.174  0.4392  0.4885 -0.1846
10750SOL    HW133060   4.577   2.767   6.188  0.6490  3.2629 -3.3656
10750SOL    HW233061   4.439   2.824   6.217  0.1929  1.7120 -2.3478
10751SOL     OW33062   4.931   4.169   7.043 -0.1495 -0.2293  0.2921
10751SOL    HW133063   4.999   4.146   7.106  1.4356  1.2232 -0.7929
10751SOL    HW233064   4.883   4.241   7.084  1.1539  1.0096 -0.2567
10752SOL     OW33065   2.358   6.207   1.741  0.1265 -0.0667 -0.2500
10752SOL    HW133066   2.427   6.152   1.779 -0.1892 -0.7520 -0.6385
10752SOL    HW233067   2.320   6.253   1.815  0.8505  0.1488 -0.0003
10753SOL     OW33068   7.378   0.319   4.797 -0.1019  0.0832  0.4235
10753SOL    HW133069   7.288   0.301   4.825 -0.3223 -0.9444 -0.8461
10753SOL    HW233070   7.380   0.413   4.782 -0.8927  0.1515  0.7078
10754SOL     OW33071   1.959   7.657   4.128  0.1798 -0.4968  0.5212
10754SOL    HW133072   2.047   7.636   4.158  0.7031  1.1389  0.2163
10754SOL    HW233073   1.964   7.654   4.033  0.4140  1.3285  0.4336
10755SOL     OW33074   1.127   0.845   3.302  0.6471 -0.4346 -0.0478
10755SOL    HW133075   1.146   0.917   3.242 -1.1725 -0.5860 -0.8921
10755SOL    HW233076   1.191   0.778   3.281  1.2671  0.2645 -0.4515
10756SOL     OW33077   2.674   7.957   4.716  0.4372  0.2596  0.3234
10756SOL    HW133078   2.762   7.927   4.694  0.7796  0.6943  1.0740
10756SOL    HW233079   2.631   7.969   4.631  1.0060 -0.2285 -0.0405
10757SOL     OW33080   6.654   3.867   2.203 -0.1312 -0.2076 -0.1036
10757SOL    HW133081   6.605   3.803   2.151 -1.5423  1.6619 -1.1929
10757SOL    HW233082   6.675   3.937   2.141  0.5882  0.7965  1.2283
10758SOL     OW33083   0.765   4.080   2.898  0.1800 -0.3905 -0.4978
10758SOL    HW133084   0.836   4.028   2.935  2.1763  1.1987 -1.8576
10758SOL    HW233085   0.803   4.121   2.820 -2.1836  0.7275 -1.1715
10759SOL     OW33086   2.508   5.918   5.792 -0.4232 -0.3910  0.2804
10759SOL    HW133087   2.428   5.877   5.824  0.2498 -0.8707  1.4110
10759SOL    HW233088   2.479   5.974   5.720 -1.7583 -0.6154  0.6170
10760SOL     OW33089   0.704   3.173   4.284  0.2534 -0.4514 -0.2746
10760SOL    HW133090   0.758   3.127   4.349  1.1128 -0.0877 -0.7245
10760SOL    HW233091   0.702   3.264   4.314  1.4208 -0.0930 -1.2478
10761SOL     OW33092   2.401   7.174   6.276  0.7808 -0.3633  0.1289
10761SOL    HW133093   2.325   7.202   6.225  0.0912 -0.9241  0.8007
10761SOL    HW233094   2.424   7.088   6.240  0.4487 -0.6473  0.5721
10762SOL     OW33095   5.481   2.688   0.025  0.4009  0.7371  0.5340
10762SOL    HW133096   5.389   2.693   0.000  0.3326  0.2831  0.6862
10762SOL    HW233097   5.493   2.760   0.088 -0.0637  0.2498  1.1875
10763SOL     OW33098   5.901   6.667   0.332 -0.1206  0.2833  0.5051
10763SOL    HW133099   5.831   6.608   0.358  1.6717 -2.2274  0.0455
10763SOL    HW233100   5.940   6.626   0.254  1.1454  2.1796  0.0524
10764SOL     OW33101   1.022   6.874   4.732 -0.4250 -0.2338 -0.1492
10764SOL    HW133102   1.056   6.897   4.818 -0.7802  2.1040 -0.5599
10764SOL    HW233103   1.100   6.846   4.683  0.0610  0.0325  0.4462
10765SOL     OW33104   5.444   2.382   7.182 -0.4316 -0.4328 -0.3123
10765SOL    HW133105   5.522   2.399   7.129 -0.6999  1.7488 -0.1224
10765SOL    HW233106   5.395   2.316   7.132  1.3791 -1.6755 -0.5471
10766SOL     OW33107   0.076   1.166   0.529 -0.0577  0.0453  0.2640
10766SOL    HW133108   0.099   1.099   0.465 -0.2426  0.5683 -0.3627
10766SOL    HW233109   0.141   1.235   0.517 -1.0280  0.8698 -0.5014
10767SOL     OW33110   6.065   5.593   1.130 -0.7722 -0.9856  0.0801
10767SOL    HW133111   6.124   5.592   1.205  0.8109  2.7029 -0.8887
10767SOL    HW233112   6.101   5.528   1.070  0.7734 -0.6618  0.6169
10768SOL     OW33113   4.861   6.486   3.263 -0.2385 -0.3123  0.2972
10768SOL    HW133114   4.798   6.519   3.198 -1.8889 -0.7496  1.5926
10768SOL    HW233115   4.809   6.427   3.318  0.5470  1.4922  3.2169
10769SOL     OW33116   1.234   4.024   2.866  0.2985 -0.1149 -0.0909
10769SOL    HW133117   1.197   4.067   2.943  0.1325 -0.2037 -0.1218
10769SOL    HW233118   1.228   3.930   2.885 -0.5881 -0.1697 -0.6042
10770SOL     OW33119   5.131   6.502   7.596 -0.9807  0.1674  0.1911
10770SOL    HW133120   5.152   6.441   7.526 -0.6800 -1.9951  2.0330
10770SOL    HW233121   5.216   6.533   7.627 -0.9863 -0.4513  0.8602
10771SOL     OW33122   7.408   2.588   4.982 -0.1424 -0.1360  0.4753
10771SOL    HW133123   7.494   2.594   4.939 -0.5070 -0.5100 -0.3307
10771SOL    HW233124   7.408   2.659   5.046 -0.2597  1.6347 -1.3945
10772SOL     OW33125   4.485   7.894   6.700  0.1994  0.1674 -0.1710
10772SOL    HW133126   4.435   7.953   6.758  1.6625  1.1053  0.1797
10772SOL    HW233127   4.481   7.937   6.614 -1.5552 -0.9741 -0.7060
10773SOL     OW33128   0.712   5.602   4.016  0.7428  0.5074  0.1195
10773SOL    HW133129   0.769   5.676   3.992  1.6524 -0.7407 -1.7791
10773SOL    HW233130   0.691   5.560   3.933 -0.5970 -0.7981  1.0743
10774SOL     OW33131   4.024   5.927   3.001  0.1675 -0.3890 -0.2602
10774SOL    HW133132   4.005   5.946   2.909 -0.0634  2.1577  0.2374
10774SOL    HW233133   3.938   5.906   3.038 -0.1126  0.7509 -0.2107
10775SOL     OW33134   2.379   1.969   5.897  0.1307  0.2255  0.4504
10775SOL    HW133135   2.327   1.889   5.882  2.3237 -1.3956  0.9076
10775SOL    HW233136   2.467   1.945   5.868  0.7782  2.6623  0.2383
10776SOL     OW33137   0.593   2.053   0.839  0.1302  0.1599  0.5065
10776SOL    HW133138   0.597   2.148   0.824 -1.3454  0.1356 -0.2165
10776SOL    HW233139   0.553   2.018   0.760  0.4366 -1.0570  0.8693
10777SOL     OW33140   1.358   5.408   6.241  0.3953 -0.5964  0.8034
10777SOL    HW133141   1.355   5.475   6.173  3.4297 -0.0324  1.0759
10777SOL    HW233142   1.267   5.381   6.252 -0.5230  1.1426 -1.6031
10778SOL     OW33143   7.219   0.095   2.000  0.5583 -0.4377 -0.8639
10778SOL    HW133144   7.215   0.082   2.095  2.7965  1.6359 -0.3581
10778SOL    HW233145   7.286   0.033   1.970  2.3843  1.1916 -0.4214
10779SOL     OW33146   3.256   2.076   7.400  0.4052 -0.5150  0.1185
10779SOL    HW133147   3.299   2.095   7.316 -1.6966  0.6252 -0.7839
10779SOL    HW233148   3.194   2.006   7.379  0.7289 -1.0961  1.0395
10780SOL     OW33149   5.253   5.699   7.991 -0.1769 -0.2384  0.1064
10780SOL    HW133150   5.206   5.617   7.972  1.5311 -1.5190  1.0669
10780SOL    HW233151   5.294   5.722   7.908 -0.9178 -0.1501 -0.2519
10781SOL     OW33152   1.421   5.933   5.885 -0.1664 -0.2038  0.0253
10781SOL    HW133153   1.490   5.882   5.928 -1.8208 -2.5631  0.0546
10781SOL    HW233154   1.435   6.022   5.916  2.0959 -0.8217  1.0043
10782SOL     OW33155   3.759   5.720   0.135  0.3571  0.1861 -0.1232
10782SOL    HW133156   3.780   5.636   0.174 -1.7296 -0.4696 -0.2735
10782SOL    HW233157   3.762   5.782   0.207  0.3614 -0.3050  0.3025
10783SOL     OW33158   5.304   0.334   4.423 -0.4446 -0.5578 -0.1079
10783SOL    HW133159   5.264   0.385   4.352  1.0572 -0.6671 -1.0624
10783SOL    HW233160   5.303   0.393   4.498 -2.3133 -0.5385 -0.1044
10784SOL     OW33161   2.834   6.561   0.815 -0.1863  0.2522  0.0765
10784SOL    HW133162   2.856   6.574   0.722 -0.1153  1.7960  0.2792
10784SOL    HW233163   2.829   6.466   0.825 -2.6501  0.0063 -2.0875
10785SOL     OW33164   4.934   2.317   1.617  0.0432 -0.2835  0.3113
10785SOL    HW133165   5.000   2.297   1.550  1.2523 -1.2916  1.7577
10785SOL    HW233166   4.867   2.368   1.570  0.6811 -1.2279 -1.7319
10786SOL     OW33167   1.747   6.738   4.940  0.1790  0.4427 -0.1265
10786SOL    HW133168   1.752   6.677   4.866  1.6286  0.2032  0.1504
10786SOL    HW233169   1.674   6.704   4.993 -0.7632  0.5224 -1.3364
10787SOL     OW33170   3.268   3.294   1.664  0.2160 -0.4265  0.5121
10787SOL    HW133171   3.304   3.336   1.585 -0.3462  2.5190  1.6928
10787SOL    HW233172   3.189   3.250   1.633  0.6841 -0.4202 -0.7757
10788SOL     OW33173   0.021   3.421   5.422 -0.3510  0.1342  0.3354
10788SOL    HW133174  -0.068   3.457   5.421 -0.3087  0.3612 -2.2031
10788SOL    HW233175   0.013   3.336   5.377  0.8788  0.7554 -1.1588
10789SOL     OW33176   0.360   1.042   5.042  0.3687  0.2947 -0.2581
10789SOL    HW133177   0.277   1.004   5.012 -0.0644  0.0995  1.1272
10789SOL    HW233178   0.338   1.133   5.064  0.5242  0.2550  0.0664
10790SOL     OW33179   4.757   2.739   7.189  0.2982  0.0486 -0.0921
10790SOL    HW133180   4.739   2.831   7.208 -1.0681 -0.6189  2.2549
10790SOL    HW233181   4.780   2.737   7.096  0.5851  2.7648 -0.1396
10791SOL     OW33182   7.887   1.766   5.494  0.5131 -0.1242  0.1924
10791SOL    HW133183   7.964   1.755   5.551  0.0572 -0.6678  0.7146
10791SOL    HW233184   7.851   1.678   5.485  0.0935  0.0887 -0.2659
10792SOL     OW33185   4.132   3.873   3.786 -0.1452 -0.2122  0.4138
10792SOL    HW133186   4.067   3.853   3.719  0.2516  0.0153 -0.0496
10792SOL    HW233187   4.160   3.963   3.766 -0.0802 -0.1130  0.9337
10793SOL     OW33188   5.740   4.236   0.674 -0.0800  0.2474  0.0745
10793SOL    HW133189   5.761   4.156   0.625  0.6865 -0.7816  1.9534
10793SOL    HW233190   5.736   4.305   0.608 -0.7262 -1.3229 -1.6101
10794SOL     OW33191   2.400   1.109   6.539 -0.8751  0.2518  0.3446
10794SOL    HW133192   2.390   1.129   6.446 -0.6216 -0.8107  0.0768
10794SOL    HW233193   2.411   1.014   6.542 -0.8644  0.2770  1.4619
10795SOL     OW33194   6.264   3.921   3.565  0.9526 -0.0218 -0.5034
10795SOL    HW133195   6.300   3.836   3.541 -0.9918 -1.1680  0.3354
10795SOL    HW233196   6.290   3.933   3.656  0.1578 -0.3851 -0.2101
10796SOL     OW33197   6.527   4.499   2.454  0.4515  0.5426  0.0526
10796SOL    HW133198   6.529   4.580   2.505  2.7822 -0.4367  1.6788
10796SOL    HW233199   6.458   4.447   2.494 -0.5246  1.3708 -0.4993
10797SOL     OW33200   3.599   6.191   5.047 -0.1583 -0.3308 -0.9352
10797SOL    HW133201   3.558   6.159   4.967  0.8037 -0.6088 -1.3325
10797SOL    HW233202   3.552   6.271   5.068 -2.1916 -1.6228 -0.2877
10798SOL     OW33203   1.315   5.733   0.158  0.6172 -0.8237  0.1923
10798SOL    HW133204   1.258   5.717   0.233  0.4300 -0.2237  0.1802
10798SOL    HW233205   1.351   5.820   0.173  1.4101 -1.1351  0.1185
10799SOL     OW33206   3.578   7.658   4.730  0.0407  0.0235  0.2303
10799SOL    HW133207   3.633   7.627   4.658  0.0739 -1.2795  0.7753
10799SOL    HW233208   3.607   7.748   4.746  0.9545 -0.1272 -0.4927
10800SOL     OW33209   6.647   0.099   0.428 -0.8594  0.1376 -0.3427
10800SOL    HW133210   6.717   0.148   0.471 -0.1523 -0.2810 -1.0058
10800SOL    HW233211   6.661   0.114   0.334 -0.0042 -2.1668 -0.6271
10801SOL     OW33212   4.209   6.696   3.799  0.2978 -0.4176 -1.0606
10801SOL    HW133213   4.246   6.773   3.756 -0.0771  0.2806 -0.1630
10801SOL    HW233214   4.114   6.711   3.797  0.2250 -0.8331 -0.8327
10802SOL     OW33215   2.602   4.229   7.877  0.1747  0.4327  0.0272
10802SOL    HW133216   2.593   4.306   7.934  0.3421 -0.1380  0.8389
10802SOL    HW233217   2.522   4.178   7.894  0.8958 -0.4521  0.8496
10803SOL     OW33218   0.743   3.698   5.948  0.6005 -0.2384  0.3418
10803SOL    HW133219   0.808   3.640   5.989 -0.8446 -2.2277 -0.0540
10803SOL    HW233220   0.765   3.695   5.855  1.6690  1.4251  0.4929
10804SOL     OW33221   2.956   7.631   7.537  0.2457 -0.0884  0.2643
10804SOL    HW133222   2.931   7.636   7.630 -0.2178  0.8623  0.0999
10804SOL    HW233223   2.873   7.632   7.490  0.4877 -0.3557 -0.1747
10805SOL     OW33224   3.057   4.252   7.016 -0.0453  0.7305 -0.2856
10805SOL    HW133225   3.134   4.238   7.072 -0.3388  1.1788  0.2344
10805SOL    HW233226   3.019   4.165   7.006 -0.2568  0.7130  0.6044
10806SOL     OW33227   0.678   2.877   3.064  0.1575  0.0374  0.6866
10806SOL    HW133228   0.662   2.796   3.112  0.6090  0.3666  1.4000
10806SOL    HW233229   0.713   2.848   2.979 -1.8400 -0.6026  0.0217
10807SOL     OW33230   4.408   4.677   6.547 -0.2084  0.0052 -0.4485
10807SOL    HW133231   4.349   4.705   6.476  0.0116 -1.1394 -1.1030
10807SOL    HW233232   4.369   4.715   6.626 -1.2189  0.1787 -1.0072
10808SOL     OW33233   7.978   6.161   0.503 -0.3633  0.0315 -0.0501
10808SOL    HW133234   7.951   6.213   0.579 -1.0018  0.5447 -0.6078
10808SOL    HW233235   7.970   6.221   0.429 -0.7206 -0.7345 -0.6567
10809SOL     OW33236   6.383   1.373   0.953  0.3465  0.1037  0.3166
10809SOL    HW133237   6.297   1.407   0.975  0.4989  0.6348  0.0986
10809SOL    HW233238   6.444   1.443   0.978  0.7543 -0.4315  0.8663
10810SOL     OW33239   3.754   1.862   3.565 -0.1913 -0.0007 -0.4396
10810SOL    HW133240   3.698   1.805   3.618  0.8427  1.4280  2.3839
10810SOL    HW233241   3.803   1.914   3.628  0.0822  2.9418 -2.8370
10811SOL     OW33242   2.388   1.328   7.796  0.0190 -0.2011 -0.0674
10811SOL    HW133243   2.458   1.264   7.782  0.0089  0.1139 -1.7120
10811SOL    HW233244   2.378   1.372   7.711 -0.8532  1.0982  0.6748
10812SOL     OW33245   3.567   2.682   2.235  0.2550  0.3583  0.3066
10812SOL    HW133246   3.485   2.719   2.203  0.6670  1.7785  0.8297
10812SOL    HW233247   3.574   2.711   2.325 -0.5262 -2.9969  1.5920
10813SOL     OW33248   1.130   3.981   4.227  0.0604 -0.0668 -0.3845
10813SOL    HW133249   1.217   3.945   4.245  0.0133 -0.0885 -0.1949
10813SOL    HW233250   1.094   4.001   4.314  0.1536  0.5901 -0.4899
10814SOL     OW33251   2.724   6.390   5.465 -0.4360  0.0433  0.5596
10814SOL    HW133252   2.667   6.357   5.396 -0.4116  1.8045 -0.3799
10814SOL    HW233253   2.701   6.339   5.542 -0.6083 -1.8535 -0.6811
10815SOL     OW33254   6.070   6.526   1.235  0.2702 -0.3132  0.6664
10815SOL    HW133255   5.996   6.492   1.185  0.7584  0.8712 -0.9265
10815SOL    HW233256   6.050   6.619   1.247  0.7845 -0.3100  1.5718
10816SOL     OW33257   1.581   5.949   7.935  0.4071 -0.3858  0.0615
10816SOL    HW133258   1.587   5.860   7.902 -0.6716 -0.4729  0.0849
10816SOL    HW233259   1.488   5.970   7.933  0.4405  0.1052  1.7120
10817SOL     OW33260   2.641   2.532   0.956 -0.1542  0.1160 -0.3643
10817SOL    HW133261   2.633   2.620   0.991 -0.8655 -0.7028  1.6400
10817SOL    HW233262   2.598   2.537   0.870  0.2151  1.7957 -0.4843
10818SOL     OW33263   7.709   4.326   4.698 -0.1183  0.1630 -0.0248
10818SOL    HW133264   7.767   4.371   4.636  1.7468 -1.0408  0.7435
10818SOL    HW233265   7.716   4.234   4.674 -0.5552 -0.1545  1.0195
10819SOL     OW33266   5.588   5.059   2.394 -0.3758 -0.0440 -0.5895
10819SOL    HW133267   5.559   4.973   2.425 -0.8079  0.0888 -0.6175
10819SOL    HW233268   5.627   5.100   2.470 -1.8246  0.4554 -0.0730
10820SOL     OW33269   1.684   0.374   6.739  0.2294 -0.2517 -0.3467
10820SOL    HW133270   1.635   0.456   6.736  1.1394  0.3311  0.3198
10820SOL    HW233271   1.671   0.341   6.828  0.7389 -0.2841 -0.2832
10821SOL     OW33272   2.161   0.168   5.637  0.6413  0.2753 -0.2286
10821SOL    HW133273   2.134   0.212   5.718 -0.1763 -0.4629 -0.0793
10821SOL    HW233274   2.127   0.222   5.567  0.2057  0.2356 -0.0534
10822SOL     OW33275   6.260   1.682   0.065 -0.3818  0.1376  0.3340
10822SOL    HW133276   6.275   1.605   0.010  1.3030  1.0553 -0.5809
10822SOL    HW233277   6.165   1.694   0.064 -0.6326 -1.5620  0.0292
10823SOL     OW33278   7.768   6.895   0.154 -0.3341 -0.1708  0.2842
10823SOL    HW133279   7.717   6.892   0.235 -1.1400 -1.6549 -0.2349
10823SOL    HW233280   7.705   6.870   0.086  0.8687 -1.1964 -0.4900
10824SOL     OW33281   1.071   5.744   2.897 -0.0208  0.0313  0.6296
10824SOL    HW133282   1.114   5.672   2.944  1.1680  0.3842  0.1147
10824SOL    HW233283   1.094   5.822   2.946 -0.0716  0.2288  0.3389
10825SOL     OW33284   7.326   4.312   2.020  0.0259  0.4609 -0.3451
10825SOL    HW133285   7.332   4.218   2.005  1.7622  0.5941 -0.7463
10825SOL    HW233286   7.237   4.326   2.051 -0.2699 -1.3085 -0.2860
10826SOL     OW33287   2.675   4.713   1.231 -0.1483  0.2821  0.4941
10826SOL    HW133288   2.767   4.736   1.240 -0.0678 -0.6839  3.1188
10826SOL    HW233289   2.675   4.618   1.217 -0.7143  0.0500  1.8507
10827SOL     OW33290   7.256   5.127   7.317  0.1759  0.0452  0.1485
10827SOL    HW133291   7.242   5.204   7.373  2.0627  0.1520  0.5203
10827SOL    HW233292   7.216   5.055   7.366  0.4605  0.3962  0.9146
10828SOL     OW33293   4.449   3.565   7.872 -0.5192 -0.4852  0.8490
10828SOL    HW133294   4.438   3.660   7.884 -0.6308 -0.3396 -0.2988
10828SOL    HW233295   4.426   3.528   7.957  0.0947  0.5587  1.4941
10829SOL     OW33296   0.270   3.538   3.107  0.9711 -0.6563  0.0422
10829SOL    HW133297   0.308   3.450   3.102  1.8705 -0.2290 -1.2273
10829SOL    HW233298   0.346   3.596   3.113  0.4413  0.0904 -0.3610
10830SOL     OW33299   1.489   6.870   1.157 -0.0184  0.2242  0.6962
10830SOL    HW133300   1.435   6.793   1.143 -0.6905  0.9256 -0.8200
10830SOL    HW233301   1.525   6.890   1.071  0.7036  1.2007  1.2006
10831SOL     OW33302   6.739   7.409   4.726  0.2094 -0.5336 -0.3632
10831SOL    HW133303   6.704   7.320   4.739  0.1072 -0.5348 -0.6365
10831SOL    HW233304   6.776   7.407   4.638  2.1672 -0.9437  0.4253
10832SOL     OW33305   2.476   0.472   7.464 -0.3194 -0.2115  0.1484
10832SOL    HW133306   2.480   0.517   7.380  1.4048  1.2064  0.9158
10832SOL    HW233307   2.409   0.520   7.513  1.4763  1.6522  0.9454
10833SOL     OW33308   3.041   2.703   0.704 -0.2578  0.0490  0.0510
10833SOL    HW133309   2.950   2.726   0.721 -0.9765 -1.1426 -1.8831
10833SOL    HW233310   3.037   2.619   0.658  1.8557 -0.2676  0.3335
10834SOL     OW33311   0.457   7.660   4.674  0.6427  0.0314 -0.1114
10834SOL    HW133312   0.504   7.641   4.593 -1.6920 -2.2936 -1.0372
10834SOL    HW233313   0.449   7.575   4.718 -1.1128  0.6465  0.8716
10835SOL     OW33314   5.468   0.881   4.983  0.5079 -0.0100  0.0392
10835SOL    HW133315   5.381   0.890   4.943  1.3769  1.6029 -1.6416
10835SOL    HW233316   5.515   0.822   4.926  0.8848  0.0468  0.2871
10836SOL     OW33317   4.992   0.941   0.936 -0.0964  0.3086 -0.0086
10836SOL    HW133318   5.035   0.973   1.015  1.9943 -0.1255 -0.8877
10836SOL    HW233319   5.020   1.001   0.867 -0.0975 -0.5738 -0.8011
10837SOL     OW33320   1.510   0.491   1.430  0.4234  0.1169 -0.0681
10837SOL    HW133321   1.488   0.404   1.464 -0.7411 -0.0921 -1.3094
10837SOL    HW233322   1.431   0.543   1.445  0.8988  0.8030  0.0979
10838SOL     OW33323   4.073   2.518   4.627 -0.8317 -0.5992 -0.4841
10838SOL    HW133324   3.995   2.568   4.652  0.2353  0.3783  1.0493
10838SOL    HW233325   4.117   2.573   4.562 -0.4762 -0.2753  0.0257
10839SOL     OW33326   7.353   4.328   3.227  0.2592  0.2188  0.5211
10839SOL    HW133327   7.288   4.387   3.265 -0.2691 -0.3582  0.5186
10839SOL    HW233328   7.432   4.343   3.279 -0.1021  0.3397  1.0444
10840SOL     OW33329   0.722   7.188   0.827  0.2289  0.4169  0.3557
10840SOL    HW133330   0.725   7.164   0.735  0.5241  1.4943  0.0639
10840SOL    HW233331   0.704   7.282   0.826 -1.5388  0.1207  1.4372
10841SOL     OW33332   1.091   5.202   4.939  0.1268  0.7571 -0.3287
10841SOL    HW133333   1.104   5.233   4.850 -3.9112  2.7585 -0.4493
10841SOL    HW233334   1.034   5.125   4.930  1.5575 -0.4502  0.4952
10842SOL     OW33335   7.534   3.317   4.839 -0.0529  0.2952 -0.0099
10842SOL    HW133336   7.604   3.271   4.885  0.7329  0.8104 -0.6585
10842SOL    HW233337   7.533   3.278   4.752 -1.6405 -0.7860  0.4659
10843SOL     OW33338   6.795   4.464   4.751  0.2692  0.1789 -0.3114
10843SOL    HW133339   6.795   4.492   4.659  0.3281  1.4233  0.0487
10843SOL    HW233340   6.708   4.487   4.783  0.1911 -0.4075 -0.0840
10844SOL     OW33341   1.805   1.173   1.945  1.0746 -0.3347  0.5550
10844SOL    HW133342   1.781   1.179   1.852 -1.9562  0.6800  1.2743
10844SOL    HW233343   1.839   1.084   1.956 -0.5489 -1.2221 -1.1321
10845SOL     OW33344   6.390   7.588   5.712  0.4920 -0.1008 -0.5741
10845SOL    HW133345   6.368   7.634   5.793  0.2131 -0.0407 -0.6837
10845SOL    HW233346   6.432   7.654   5.657  1.0603 -0.2441 -0.3202
10846SOL     OW33347   7.804   5.749   2.912  0.1608  0.6334  0.1500
10846SOL    HW133348   7.811   5.797   2.829 -0.1496 -0.7674 -0.7200
10846SOL    HW233349   7.784   5.659   2.886 -3.7979  0.8526  1.8299
10847SOL     OW33350   6.839   4.979   3.990  0.3000 -0.1926  0.0427
10847SOL    HW133351   6.803   5.030   3.918 -1.6734  0.2483  1.2576
10847SOL    HW233352   6.848   4.890   3.955 -2.9325 -0.5533 -0.1503
10848SOL     OW33353   7.696   7.913   7.077  0.1031 -0.2367 -0.2246
10848SOL    HW133354   7.774   7.864   7.104 -0.4692 -0.3138  1.3633
10848SOL    HW233355   7.631   7.894   7.145 -1.9182 -1.5910 -2.3912
10849SOL     OW33356   7.104   3.298   1.372 -0.4718  0.1230 -0.5260
10849SOL    HW133357   7.142   3.212   1.389  1.2759  1.0707  0.7540
10849SOL    HW233358   7.020   3.297   1.417  0.0724 -0.5330  0.5193
10850SOL     OW33359   2.398   0.214   6.589 -0.6065 -0.1301  0.0970
10850SOL    HW133360   2.457   0.143   6.616  1.0486  1.6304  1.3980
10850SOL    HW233361   2.316   0.195   6.635  0.7982  0.4058  3.1107
10851SOL     OW33362   3.263   0.838   5.039  0.5611  0.8634 -0.6609
10851SOL    HW133363   3.288   0.858   4.949 -0.7399  1.8590 -0.8420
10851SOL    HW233364   3.171   0.811   5.032  0.9217 -0.6931  0.1886
10852SOL     OW33365   1.155   4.313   2.483  0.0925  0.2351  0.3228
10852SOL    HW133366   1.190   4.285   2.568  0.9056  0.0248 -0.0722
10852SOL    HW233367   1.155   4.234   2.429 -3.1188 -0.3333  0.9347
10853SOL     OW33368   2.553   7.852   3.595  0.3797 -0.2823 -0.6479
10853SOL    HW133369   2.594   7.876   3.678  1.8093 -2.5841 -0.6250
10853SOL    HW233370   2.592   7.910   3.531 -2.9909  3.7974  0.5030
10854SOL     OW33371   0.124   0.684   7.426 -0.3628 -0.2461  0.1399
10854SOL    HW133372   0.205   0.710   7.469 -1.3181  0.7637  1.4162
10854SOL    HW233373   0.075   0.765   7.415 -0.6941 -0.6537 -1.7846
10855SOL     OW33374   1.262   3.948   0.941 -0.6471  0.5903  0.0639
10855SOL    HW133375   1.354   3.957   0.966 -0.0368 -1.3906 -1.2788
10855SOL    HW233376   1.232   4.038   0.929  0.6958  1.3411  1.8561
10856SOL     OW33377   5.889   0.999   2.111 -0.5915 -0.1379  0.5142
10856SOL    HW133378   5.967   1.038   2.150 -1.3878  0.5945  1.4170
10856SOL    HW233379   5.923   0.939   2.045  0.8901 -2.1086  2.8744
10857SOL     OW33380   0.555   6.988   3.178  0.7617 -0.3137 -0.2665
10857SOL    HW133381   0.587   6.926   3.244 -0.9285  1.7874  2.7531
10857SOL    HW233382   0.630   7.044   3.159  1.2465 -0.8950 -0.1085
10858SOL     OW33383   5.338   1.245   6.688 -0.0627 -0.6331  0.2060
10858SOL    HW133384   5.384   1.328   6.677 -0.2718 -0.0809  2.8802
10858SOL    HW233385   5.250   1.262   6.653  0.7305 -0.7486 -2.0533
10859SOL     OW33386   3.061   6.655   6.288  0.2517 -0.0279  0.1128
10859SOL    HW133387   3.081   6.748   6.291  0.2111  0.0046 -0.4741
10859SOL    HW233388   3.040   6.638   6.196 -0.0707 -0.5445  0.2750
10860SOL     OW33389   7.338   6.455   0.479  0.4729 -0.1643  0.3572
10860SOL    HW133390   7.384   6.529   0.520 -0.2202  0.7031 -0.3880
10860SOL    HW233391   7.252   6.454   0.521  0.2992 -0.2161  0.0037
10861SOL     OW33392   2.875   6.381   4.878  0.5709  0.1160 -0.5291
10861SOL    HW133393   2.894   6.289   4.897  1.7793  0.7397  1.6128
10861SOL    HW233394   2.795   6.400   4.928  0.8368  0.4398 -0.2180
10862SOL     OW33395   5.973   2.694   6.713 -0.0637  0.1180 -0.1444
10862SOL    HW133396   5.999   2.782   6.684  0.0205  0.1235 -0.0536
10862SOL    HW233397   5.885   2.706   6.748 -0.0397  0.1724 -0.1024
10863SOL     OW33398   3.138   7.947   3.895  0.0118  0.2592  0.0234
10863SOL    HW133399   3.195   7.908   3.961  0.4078  1.2968  0.3179
10863SOL    HW233400   3.198   7.979   3.828 -0.2869  0.5801 -0.0915
10864SOL     OW33401   7.602   3.494   0.720  0.3336  0.1705  0.7038
10864SOL    HW133402   7.596   3.448   0.804  0.5046 -0.1627  0.5349
10864SOL    HW233403   7.538   3.451   0.664 -0.8494  1.3462  1.0950
10865SOL     OW33404   4.954   2.629   6.619  0.5780  0.2935  0.3038
10865SOL    HW133405   4.954   2.541   6.581 -0.5267  1.1603 -1.8821
10865SOL    HW233406   5.036   2.634   6.668 -0.0458 -2.4584  1.8223
10866SOL     OW33407   0.946   1.852   2.691  0.2310 -0.3108 -0.1512
10866SOL    HW133408   0.884   1.792   2.734  1.0230  0.1162  1.7016
10866SOL    HW233409   0.896   1.932   2.678  0.1273 -0.2637  0.5065
10867SOL     OW33410   0.570   7.323   3.058  0.0055 -0.1030  0.1127
10867SOL    HW133411   0.494   7.355   3.009  0.0324  0.5388  0.4740
10867SOL    HW233412   0.612   7.403   3.090  0.7030 -0.4649  0.1122
10868SOL     OW33413   6.132   6.784   7.215  0.0871  0.2808  0.0686
10868SOL    HW133414   6.080   6.776   7.135 -1.5150  0.7402  1.0114
10868SOL    HW233415   6.072   6.759   7.286  1.2707  0.4727  1.1892
10869SOL     OW33416   7.500   7.463   5.472 -0.8647  0.1048 -0.4400
10869SOL    HW133417   7.532   7.511   5.548 -1.2586 -1.8124  0.9887
10869SOL    HW233418   7.406   7.478   5.471 -0.6750  1.4677 -1.5757
10870SOL     OW33419   1.196   6.551   4.115  0.1183 -0.1722 -0.4440
10870SOL    HW133420   1.185   6.640   4.148 -0.3280 -0.6346  0.6736
10870SOL    HW233421   1.287   6.530   4.135  0.4790  0.3199 -1.4720
10871SOL     OW33422   4.867   6.762   2.291 -0.3138  0.2641  0.2617
10871SOL    HW133423   4.831   6.681   2.328  1.6652  0.1388  2.1353
10871SOL    HW233424   4.936   6.732   2.232  0.5887  0.5514  1.1453
10872SOL     OW33425   2.591   2.334   2.084  0.2620  0.7562  0.1856
10872SOL    HW133426   2.503   2.358   2.053  0.0423 -0.4422 -0.1750
10872SOL    HW233427   2.585   2.341   2.179  0.1932  1.9954  0.1149
10873SOL     OW33428   1.529   0.767   7.038  0.0670 -0.1874  0.1739
10873SOL    HW133429   1.609   0.809   7.007 -0.1882  0.6356  0.5980
10873SOL    HW233430   1.552   0.734   7.126 -0.4577  1.3282  0.9084
10874SOL     OW33431   3.176   4.867   7.218  0.0604 -0.1724  0.5003
10874SOL    HW133432   3.155   4.953   7.255  0.1357  0.8551 -1.7182
10874SOL    HW233433   3.095   4.816   7.227 -1.1506  1.3124 -1.2664
10875SOL     OW33434   6.578   3.267   7.509  0.2454 -0.0224  0.5072
10875SOL    HW133435   6.551   3.269   7.417  1.2743  1.0007  0.2040
10875SOL    HW233436   6.669   3.235   7.506  0.0959 -0.5449  1.2337
10876SOL     OW33437   2.108   1.842   3.033 -0.3055 -0.2845 -0.3046
10876SOL    HW133438   2.035   1.905   3.038 -0.8557 -0.8809 -0.7751
10876SOL    HW233439   2.098   1.800   2.948  0.3068 -0.7173 -0.1661
10877SOL     OW33440   5.308   3.768   0.325  0.3881  0.1520 -0.1885
10877SOL    HW133441   5.265   3.783   0.409  2.1576 -1.1628  1.0365
10877SOL    HW233442   5.301   3.851   0.279 -1.8566  0.4847  0.6505
10878SOL     OW33443   5.356   1.868   7.992  0.1884 -0.0276 -0.1199
10878SOL    HW133444   5.311   1.897   8.071  0.5466  0.4756 -0.0974
10878SOL    HW233445   5.287   1.864   7.925  0.0974  0.6634 -0.0661
10879SOL     OW33446   7.734   5.008   1.400 -0.1634  0.2879  0.4241
10879SOL    HW133447   7.800   5.077   1.406  0.2194  0.0122 -0.3953
10879SOL    HW233448   7.690   5.023   1.317 -0.9765  0.3177  0.8482
10880SOL     OW33449   7.778   4.556   0.752 -0.1964 -0.2274  1.0054
10880SOL    HW133450   7.824   4.506   0.685  0.1850  0.7664  0.5075
10880SOL    HW233451   7.832   4.634   0.766  0.2210 -0.8121  3.1308
10881SOL     OW33452   7.982   5.332   1.858 -0.3286  0.0545  0.1133
10881SOL    HW133453   7.925   5.305   1.786  2.0635  0.2748 -1.9923
10881SOL    HW233454   7.967   5.426   1.867  0.9421  0.4770 -1.6968
10882SOL     OW33455   4.815   4.022   2.491  0.7423  0.3515  0.4819
10882SOL    HW133456   4.792   4.000   2.401 -1.4965 -0.2087  1.1414
10882SOL    HW233457   4.828   4.117   2.490  0.0141  0.4487 -0.2928
10883SOL     OW33458   7.160   2.452   3.985 -0.3119 -1.0158 -1.0428
10883SOL    HW133459   7.139   2.467   4.077 -0.9815  1.6916 -1.5441
10883SOL    HW233460   7.099   2.385   3.956 -0.3823 -1.5767  0.3558
10884SOL     OW33461   4.364   6.915   2.118 -0.2417 -0.2646  0.2429
10884SOL    HW133462   4.420   6.984   2.155 -0.1489 -1.0483  1.6401
10884SOL    HW233463   4.415   6.877   2.047  0.4233 -0.0624  0.6062
10885SOL     OW33464   0.802   4.106   4.833 -0.1525  0.1171 -0.0715
10885SOL    HW133465   0.764   4.154   4.906  0.7050  1.2821 -0.3583
10885SOL    HW233466   0.788   4.163   4.757  0.8775 -0.0804 -0.4243
10886SOL     OW33467   7.757   3.681   7.716 -0.3999  0.1227 -0.1536
10886SOL    HW133468   7.806   3.702   7.637 -1.2578  0.0876 -0.7041
10886SOL    HW233469   7.822   3.641   7.774  0.5854  1.4878 -0.2493
10887SOL     OW33470   4.271   1.257   5.018  0.2981  0.1197 -0.2492
10887SOL    HW133471   4.209   1.192   5.054  1.6942 -1.1806 -0.0731
10887SOL    HW233472   4.223   1.298   4.946 -0.1353 -2.2526 -1.4351
10888SOL     OW33473   3.392   0.163   1.697  0.9888  0.5839 -0.1308
10888SOL    HW133474   3.347   0.097   1.644 -0.9772  0.7895  1.1710
10888SOL    HW233475   3.374   0.137   1.787 -1.0947  3.5810  0.4726
10889SOL     OW33476   6.543   0.506   6.701 -0.1817 -0.4383  0.3389
10889SOL    HW133477   6.525   0.466   6.616  0.3769 -0.2652  0.1381
10889SOL    HW233478   6.579   0.436   6.755  1.6593 -0.0333 -0.2915
10890SOL     OW33479   0.584   7.326   3.624 -0.1728  0.2094 -0.0800
10890SOL    HW133480   0.660   7.323   3.682  0.5879  0.6842 -1.0219
10890SOL    HW233481   0.510   7.342   3.682  0.4979  0.1170  0.8170
10891SOL     OW33482   0.257   3.060   4.848 -0.1197  0.5399  0.0964
10891SOL    HW133483   0.232   2.969   4.836 -1.5391  0.8978  0.2278
10891SOL    HW233484   0.267   3.094   4.760  1.8812 -0.0952  0.0279
10892SOL     OW33485   3.534   2.038   7.679  0.0329 -0.1156  0.0162
10892SOL    HW133486   3.552   2.096   7.604  0.7950 -0.7215 -0.2955
10892SOL    HW233487   3.557   2.090   7.756 -2.9474  1.3376  0.0244
10893SOL     OW33488   3.466   1.228   0.130 -0.2315 -0.0744 -0.1574
10893SOL    HW133489   3.513   1.169   0.189  0.4201 -1.3859 -1.9147
10893SOL    HW233490   3.458   1.310   0.179 -0.1850 -1.2522  1.9356
10894SOL     OW33491   2.636   3.749   3.816  0.6272  0.3113  0.5156
10894SOL    HW133492   2.658   3.727   3.906  1.5326  0.2915  0.3028
10894SOL    HW233493   2.700   3.816   3.791 -0.2627  1.0681  0.2169
10895SOL     OW33494   0.164   1.786   7.196 -0.2915  0.5641 -0.5001
10895SOL    HW133495   0.201   1.784   7.285  0.4591  1.0589 -0.7929
10895SOL    HW233496   0.099   1.717   7.196 -0.9332  1.1333  0.7214
10896SOL     OW33497   3.481   3.782   6.632  0.5139 -0.7530  0.2190
10896SOL    HW133498   3.534   3.862   6.635  0.4955 -0.7624  1.0795
10896SOL    HW233499   3.426   3.787   6.711 -0.9006 -0.6582 -0.7322
10897SOL     OW33500   1.978   1.030   4.522 -0.4642  0.8131 -0.3011
10897SOL    HW133501   1.910   1.019   4.456 -1.1587  1.7210  0.2280
10897SOL    HW233502   2.047   1.079   4.477 -1.1366  1.8476 -0.2552
10898SOL     OW33503   1.366   4.059   3.861  0.0114  0.3611  0.0462
10898SOL    HW133504   1.338   4.040   3.772 -0.1625  0.1958  0.1363
10898SOL    HW233505   1.445   4.007   3.873  2.1250  3.0052 -1.2200
10899SOL     OW33506   0.662   0.865   0.720  0.1305 -0.9178  0.3225
10899SOL    HW133507   0.752   0.887   0.694 -0.5295  1.0370 -0.4228
10899SOL    HW233508   0.621   0.948   0.741 -2.3473 -1.4144 -2.0548
10900SOL     OW33509   6.804   7.059   0.417  0.0227 -0.1076 -0.4639
10900SOL    HW133510   6.766   7.147   0.420  1.4992  0.5314  0.9304
10900SOL    HW233511   6.868   7.064   0.345  0.8986  0.3441  0.3163
10901SOL     OW33512   6.037   2.517   2.840 -0.4386 -0.3444  0.0509
10901SOL    HW133513   6.129   2.502   2.819 -0.3880 -0.4317  0.3300
10901SOL    HW233514   6.024   2.611   2.829  0.2588  0.0705  2.2215
10902SOL     OW33515   0.298   2.278   3.424 -0.1295  0.0334  0.3186
10902SOL    HW133516   0.346   2.338   3.481  0.6656 -0.0222 -0.2813
10902SOL    HW233517   0.315   2.191   3.461  0.3660 -0.0008  0.0120
10903SOL     OW33518   6.411   1.890   3.032 -0.2738  0.0144  0.0090
10903SOL    HW133519   6.440   1.877   3.122 -1.7678  0.6773  0.5990
10903SOL    HW233520   6.441   1.811   2.986  0.6681 -0.2388  1.0226
10904SOL     OW33521   6.115   5.874   1.841 -0.1424  0.2377  0.4381
10904SOL    HW133522   6.027   5.875   1.804  0.0560 -0.3178 -0.0556
10904SOL    HW233523   6.173   5.886   1.766  0.1945  1.1419  0.8238
10905SOL     OW33524   4.334   2.459   6.948  0.0451  0.4266  0.0406
10905SOL    HW133525   4.419   2.415   6.940  0.2824  0.6683  1.0616
10905SOL    HW233526   4.271   2.396   6.916  0.5289 -0.0948  0.0984
10906SOL     OW33527   6.460   2.960   1.937 -0.4873 -0.5019 -0.8862
10906SOL    HW133528   6.391   2.986   1.876 -1.2554  1.3687  0.6801
10906SOL    HW233529   6.431   2.875   1.971 -2.1213  0.3036 -0.1629
10907SOL     OW33530   0.185   7.116   3.859  0.3789  0.6439 -0.6992
10907SOL    HW133531   0.180   7.152   3.948  0.6034  0.4096 -0.5901
10907SOL    HW233532   0.095   7.117   3.828 -0.0005 -1.0096  0.2267
10908SOL     OW33533   5.323   3.484   0.502 -0.3715 -0.3868 -0.0826
10908SOL    HW133534   5.415   3.475   0.527  0.6915  3.8343 -1.6063
10908SOL    HW233535   5.316   3.438   0.418  0.0983 -1.4292  0.4412
10909SOL     OW33536   2.314   3.310   4.051  0.0945  0.0495 -0.2769
10909SOL    HW133537   2.357   3.369   3.988  2.3874 -2.1420 -0.9110
10909SOL    HW233538   2.367   3.317   4.130  0.4251 -1.1582 -0.3796
10910SOL     OW33539   0.180   1.957   2.272 -0.1233 -0.2251 -0.3259
10910SOL    HW133540   0.139   1.920   2.194 -0.9013 -0.1508  0.0377
10910SOL    HW233541   0.271   1.931   2.266 -0.2205 -0.3983 -1.1539
10911SOL     OW33542   7.101   6.073   5.533  0.4714 -0.1157 -0.2396
10911SOL    HW133543   7.184   6.059   5.578 -0.5578 -1.2328  1.4241
10911SOL    HW233544   7.071   6.158   5.566  0.5904 -0.0574 -0.2791
10912SOL     OW33545   2.690   0.724   0.888  0.3383 -0.0053 -0.4126
10912SOL    HW133546   2.638   0.717   0.808 -0.4226  0.6808  0.0064
10912SOL    HW233547   2.631   0.762   0.952  0.6424 -1.4011  0.7638
10913SOL     OW33548   1.841   5.229   7.553  0.5632  0.0901  0.7646
10913SOL    HW133549   1.821   5.279   7.474  1.5384  0.2830  0.6213
10913SOL    HW233550   1.897   5.157   7.522 -0.9978 -1.2573  0.9262
10914SOL     OW33551   3.004   2.915   6.981 -0.1194  0.3417  0.0544
10914SOL    HW133552   3.038   2.836   7.023 -0.0596  0.4288  0.1679
10914SOL    HW233553   2.910   2.911   6.995 -0.0958  0.3871  0.2207
10915SOL     OW33554   1.427   6.008   6.932 -0.8033  0.4913 -0.0391
10915SOL    HW133555   1.405   5.977   6.844  2.6266 -0.9148 -0.5849
10915SOL    HW233556   1.440   6.102   6.922  1.5647  0.0894 -1.6824
10916SOL     OW33557   7.594   7.778   5.512  0.3432  0.3387  0.8443
10916SOL    HW133558   7.679   7.734   5.501 -0.5199 -1.1805 -0.1476
10916SOL    HW233559   7.616   7.871   5.522  2.0477  0.1657 -0.7569
10917SOL     OW33560   7.315   2.213   4.606 -0.8225 -0.1776 -0.4567
10917SOL    HW133561   7.240   2.255   4.564 -0.9368 -0.7771 -0.8778
10917SOL    HW233562   7.339   2.143   4.545 -1.8032 -1.9252  1.0540
10918SOL     OW33563   7.488   6.612   7.290 -0.0239 -0.0689 -0.2815
10918SOL    HW133564   7.461   6.532   7.244 -2.7179  0.5692 -0.0226
10918SOL    HW233565   7.405   6.655   7.312  1.2539  1.3348  2.1904
10919SOL     OW33566   0.025   6.187   1.766 -0.0121 -0.3247  0.0191
10919SOL    HW133567  -0.051   6.129   1.769  0.7181 -1.4567 -1.7979
10919SOL    HW233568   0.099   6.131   1.790  0.3994  0.5246  0.8011
10920SOL     OW33569   4.017   3.698   1.573 -0.1633 -0.3440 -0.6455
10920SOL    HW133570   4.053   3.738   1.493  1.2897 -2.0905 -0.9298
10920SOL    HW233571   3.981   3.615   1.543 -1.9810  0.1272  0.1335
10921SOL     OW33572   1.335   8.001   3.833 -0.6018 -0.2269 -0.1584
10921SOL    HW133573   1.271   7.962   3.892  0.8630 -0.8991  1.0235
10921SOL    HW233574   1.376   8.071   3.884 -0.3738  0.2116 -0.9123
10922SOL     OW33575   6.311   0.562   6.900 -0.0552  0.3242  0.0939
10922SOL    HW133576   6.253   0.544   6.974 -0.1548 -2.7038 -0.5878
10922SOL    HW233577   6.291   0.493   6.836  1.1157  1.8977 -2.1245
10923SOL     OW33578   1.988   3.792   0.051 -0.3052  0.6804  0.0383
10923SOL    HW133579   1.945   3.793   0.137 -1.2578 -1.6400 -0.3508
10923SOL    HW233580   1.917   3.801  -0.012 -0.1050 -1.2808 -0.5528
10924SOL     OW33581   2.889   0.444   2.630  0.5549 -0.9566  0.1408
10924SOL    HW133582   2.979   0.440   2.596  0.5645 -2.1235  0.2666
10924SOL    HW233583   2.839   0.487   2.561  1.1992 -0.3370  0.0504
10925SOL     OW33584   7.345   0.684   5.267  0.4831  0.6886 -0.1468
10925SOL    HW133585   7.317   0.593   5.254  1.9848 -0.1741  2.0791
10925SOL    HW233586   7.441   0.680   5.268  0.5646  2.0745  1.2195
10926SOL     OW33587   2.381   7.280   2.960 -0.3813  0.1179 -0.1444
10926SOL    HW133588   2.417   7.354   3.010 -0.7229  1.0063 -1.1738
10926SOL    HW233589   2.457   7.245   2.913 -0.1847 -0.3087  0.4810
10927SOL     OW33590   6.363   2.772   1.476 -0.6025 -0.7228 -0.4624
10927SOL    HW133591   6.426   2.787   1.406 -0.1333 -0.2319  0.0521
10927SOL    HW233592   6.281   2.808   1.444 -0.4759 -0.8164 -0.8949
10928SOL     OW33593   5.416   6.315   2.451 -0.9306 -0.0166 -0.7109
10928SOL    HW133594   5.503   6.297   2.415 -0.5760  1.7830 -0.8381
10928SOL    HW233595   5.408   6.410   2.448 -0.6744  0.4212  4.3963
10929SOL     OW33596   0.229   7.303   5.469  0.0761 -0.1253  0.0446
10929SOL    HW133597   0.320   7.318   5.498  0.5126  0.9190 -1.7454
10929SOL    HW233598   0.182   7.284   5.550  1.8405 -0.4538  1.0567
10930SOL     OW33599   5.427   4.540   0.842  0.2726 -0.2443  0.1228
10930SOL    HW133600   5.437   4.458   0.794  1.0011 -0.1267  0.0580
10930SOL    HW233601   5.338   4.537   0.877  0.1582 -0.8813 -0.2091
10931SOL     OW33602   2.634   7.786   0.628 -0.0559  0.4288 -0.3377
10931SOL    HW133603   2.659   7.694   0.635 -1.3497  0.0581 -0.2430
10931SOL    HW233604   2.549   7.791   0.674 -0.1591  1.5941 -0.6302
10932SOL     OW33605   1.936   2.932   6.867 -0.3707  0.7932  0.9067
10932SOL    HW133606   1.958   2.846   6.902  1.3868  0.3221 -1.1426
10932SOL    HW233607   1.843   2.943   6.886 -0.8838 -1.9824  0.4436
10933SOL     OW33608   2.277   1.594   2.296 -0.6043 -0.1389  0.8587
10933SOL    HW133609   2.297   1.549   2.214  1.2983  1.5852  0.2695
10933SOL    HW233610   2.346   1.566   2.356  0.0290  1.1571  0.7760
10934SOL     OW33611   7.977   4.975   3.539  0.3835 -0.1428  0.4579
10934SOL    HW133612   7.953   4.951   3.449  1.0052  0.7524  0.0332
10934SOL    HW233613   7.964   4.895   3.589  0.8020 -0.9008 -0.5916
10935SOL     OW33614   7.694   5.084   7.689  0.4542 -0.1234 -0.1546
10935SOL    HW133615   7.611   5.040   7.702  1.2072 -1.5530  0.0204
10935SOL    HW233616   7.738   5.034   7.620  1.2997  0.4071 -0.0266
10936SOL     OW33617   4.087   3.327   6.622 -0.5705  0.1052 -0.1930
10936SOL    HW133618   4.145   3.251   6.629 -1.8007 -1.0409 -1.7435
10936SOL    HW233619   4.005   3.298   6.662 -1.3327  0.2907 -1.5701
10937SOL     OW33620   3.536   7.205   5.691 -0.1474 -0.5804 -0.2002
10937SOL    HW133621   3.471   7.223   5.758  1.1655 -0.0811  0.9967
10937SOL    HW233622   3.489   7.215   5.608 -1.8344 -1.3265  0.6240
10938SOL     OW33623   1.373   7.876   3.002 -0.1348  0.2198 -0.0475
10938SOL    HW133624   1.466   7.871   2.979 -0.3377  0.9271 -1.0890
10938SOL    HW233625   1.346   7.785   3.015 -0.0911 -0.3142 -3.1041
10939SOL     OW33626   3.690   0.741   5.939  0.0439 -0.6120  0.5544
10939SOL    HW133627   3.672   0.688   6.017  0.9089 -2.4591 -0.4395
10939SOL    HW233628   3.607   0.742   5.891 -0.0999 -0.6875  0.8009
10940SOL     OW33629   6.511   0.762   0.432  0.0489 -0.3749 -0.4941
10940SOL    HW133630   6.601   0.773   0.464  0.0432 -0.3721 -0.4789
10940SOL    HW233631   6.468   0.708   0.499  0.1183 -0.6136 -0.6405
10941SOL     OW33632   5.973   3.036   2.057  0.2106  0.8940  0.3212
10941SOL    HW133633   6.046   3.005   2.110 -1.1523 -0.3760  1.5787
10941SOL    HW233634   6.004   3.118   2.018  2.6007 -0.0809  0.0262
10942SOL     OW33635   2.550   7.812   6.538 -0.5574  0.0956  0.1318
10942SOL    HW133636   2.526   7.723   6.562  1.0008 -0.3196  0.2419
10942SOL    HW233637   2.468   7.852   6.510 -1.2313 -1.4615 -0.2196
10943SOL     OW33638   4.945   4.735   7.687  0.5520  0.5939 -0.3203
10943SOL    HW133639   4.964   4.735   7.593  0.9602  3.5125 -0.3450
10943SOL    HW233640   5.004   4.802   7.723 -0.7672  0.7501  1.7331
10944SOL     OW33641   3.409   0.963   2.459  0.5397 -0.0777 -0.4147
10944SOL    HW133642   3.435   0.885   2.508  2.3127  0.5798 -0.2271
10944SOL    HW233643   3.369   1.020   2.524  0.7868 -0.1447 -0.2025
10945SOL     OW33644   4.714   2.623   7.541 -0.2106 -0.1570  0.1029
10945SOL    HW133645   4.737   2.534   7.567 -2.5124 -0.7731  0.2049
10945SOL    HW233646   4.631   2.613   7.494 -0.3668  1.9094 -0.1206
10946SOL     OW33647   3.540   1.540   7.512 -0.4789 -0.6389  0.5976
10946SOL    HW133648   3.600   1.465   7.516  0.5606  0.0936 -0.4372
10946SOL    HW233649   3.595   1.615   7.535 -0.9347  0.0834 -0.5722
10947SOL     OW33650   7.972   4.068   4.584  0.4804 -0.1681  0.0267
10947SOL    HW133651   8.012   4.016   4.654  2.7617 -0.7829 -1.5939
10947SOL    HW233652   7.976   4.158   4.616  0.7047 -0.5216  1.0188
10948SOL     OW33653   3.148   1.922   7.627  0.3387 -0.5507 -0.1645
10948SOL    HW133654   3.108   1.971   7.698  0.5695 -0.0330 -0.3906
10948SOL    HW233655   3.135   1.976   7.549  3.2718  0.6801  0.0734
10949SOL     OW33656   3.716   5.799   2.881 -0.1583 -0.6283 -0.0151
10949SOL    HW133657   3.695   5.841   2.798  0.9019 -1.8440 -0.9368
10949SOL    HW233658   3.735   5.708   2.859 -0.9070 -1.2647  1.7188
10950SOL     OW33659   7.882   2.459   0.075 -0.4703  1.1014  0.1448
10950SOL    HW133660   7.856   2.551   0.073 -0.4339  1.1038 -1.4293
10950SOL    HW233661   7.801   2.411   0.092 -0.4640  1.4047  1.1247
10951SOL     OW33662   6.099   5.087   6.965 -0.4149  0.1554  0.0319
10951SOL    HW133663   6.018   5.067   7.013 -1.5666  1.7815 -1.1240
10951SOL    HW233664   6.085   5.050   6.878 -0.2996  1.1971 -0.4453
10952SOL     OW33665   2.520   7.802   7.172  0.3289  0.6371 -0.0997
10952SOL    HW133666   2.579   7.803   7.096  0.2408 -2.4470 -0.3517
10952SOL    HW233667   2.443   7.753   7.141 -0.2250  0.3769  1.6100
10953SOL     OW33668   2.065   6.967   1.451  0.5496 -0.3483  0.4209
10953SOL    HW133669   2.072   6.871   1.451 -2.3208 -0.7959  4.4194
10953SOL    HW233670   2.116   6.994   1.527  1.6875  1.5007 -0.8987
10954SOL     OW33671   6.145   3.937   6.041  0.2347  0.3939  0.1623
10954SOL    HW133672   6.207   3.953   6.112  2.8904  1.5264 -2.1936
10954SOL    HW233673   6.154   3.843   6.022 -0.6410  0.0421  1.3634
10955SOL     OW33674   0.575   7.220   7.468 -0.4894  0.2152 -0.3051
10955SOL    HW133675   0.641   7.164   7.425 -0.8969  0.1876 -0.9133
10955SOL    HW233676   0.494   7.201   7.420 -1.0078  0.0106  0.6430
10956SOL     OW33677   0.734   2.873   6.341  0.6533 -0.1167  0.1571
10956SOL    HW133678   0.723   2.785   6.306  0.9390  0.5978 -1.9015
10956SOL    HW233679   0.722   2.864   6.435 -2.9162 -1.7685 -0.3007
10957SOL     OW33680   7.169   1.622   6.596  0.0622  0.4553  0.0598
10957SOL    HW133681   7.118   1.667   6.529  1.0106  0.9325 -0.3607
10957SOL    HW233682   7.126   1.537   6.605  0.5846 -0.0903 -2.0045
10958SOL     OW33683   1.452   4.979   0.455 -0.8031 -0.9057  0.1222
10958SOL    HW133684   1.409   4.928   0.524 -1.6049 -0.9223 -0.3760
10958SOL    HW233685   1.384   5.040   0.425  0.4607  1.3012  1.5108
10959SOL     OW33686   4.166   3.817   6.148 -0.1128 -0.0633  0.6166
10959SOL    HW133687   4.179   3.906   6.115 -0.0707 -1.2051 -2.8304
10959SOL    HW233688   4.090   3.823   6.204 -0.1748  2.1305  0.3859
10960SOL     OW33689   6.643   6.852   7.002  0.6216  0.2939  0.3022
10960SOL    HW133690   6.633   6.836   6.909 -1.8724 -0.2172  0.5832
10960SOL    HW233691   6.718   6.911   7.009  2.0111 -1.0989 -1.8245
10961SOL     OW33692   0.212   4.508   6.072  0.0630  0.6253  0.1299
10961SOL    HW133693   0.128   4.543   6.103  0.5633  1.3475  0.7150
10961SOL    HW233694   0.198   4.493   5.979 -0.4767  1.4996  0.0506
10962SOL     OW33695   2.207   0.732   1.107 -0.5908  0.1503 -0.2313
10962SOL    HW133696   2.281   0.753   1.050 -1.0220 -0.2534 -0.9621
10962SOL    HW233697   2.246   0.688   1.182  0.0562  1.2886  0.1227
10963SOL     OW33698   6.342   3.399   3.675 -0.2699 -0.2286 -0.3881
10963SOL    HW133699   6.422   3.358   3.707  0.7055  0.4747 -1.8176
10963SOL    HW233700   6.338   3.375   3.583  0.3847  2.8188 -1.3404
10964SOL     OW33701   5.690   4.697   0.589 -0.3718  0.2917 -0.4303
10964SOL    HW133702   5.723   4.713   0.678  0.0421 -2.1170 -0.0760
10964SOL    HW233703   5.595   4.691   0.600 -0.3923  0.7928 -0.3063
10965SOL     OW33704   0.308   2.499   3.576  0.6633 -0.3486 -0.1420
10965SOL    HW133705   0.326   2.592   3.591  0.4432 -0.1745 -0.8839
10965SOL    HW233706   0.242   2.499   3.506 -0.1147 -1.0396  0.5596
10966SOL     OW33707   7.913   6.136   3.905 -0.1842 -0.2845 -0.0325
10966SOL    HW133708   8.009   6.140   3.904 -0.1859  0.3960  1.2700
10966SOL    HW233709   7.893   6.043   3.900  0.5204 -0.4088 -0.8496
10967SOL     OW33710   0.331   2.446   4.225 -0.2940 -0.0818  0.5134
10967SOL    HW133711   0.247   2.470   4.186 -0.5135 -1.1000  0.3309
10967SOL    HW233712   0.377   2.529   4.236 -1.2492  0.4711  0.4479
10968SOL     OW33713   2.906   7.523   6.366 -0.0626 -0.6568 -0.1019
10968SOL    HW133714   2.971   7.483   6.423  0.2555 -0.1775 -0.1202
10968SOL    HW233715   2.863   7.588   6.422  0.1167 -0.3213 -0.3490
10969SOL     OW33716   1.337   3.078   1.680  0.3349  0.2287  0.2524
10969SOL    HW133717   1.318   3.146   1.615 -0.6556 -0.3011 -0.0393
10969SOL    HW233718   1.256   3.026   1.685 -0.0938  0.9960  2.8544
10970SOL     OW33719   6.019   3.794   1.255  0.0398 -0.2977  0.0420
10970SOL    HW133720   6.073   3.862   1.215 -0.3699 -0.2489 -0.4416
10970SOL    HW233721   5.951   3.842   1.303 -2.3363 -0.2394 -3.0450
10971SOL     OW33722   0.211   6.201   6.081  0.3327  0.1933 -0.0380
10971SOL    HW133723   0.216   6.212   5.986  0.3253 -1.7794 -0.3169
10971SOL    HW233724   0.220   6.107   6.094  2.1424  0.5860  2.0552
10972SOL     OW33725   7.812   7.089   7.138  0.4130 -0.7721 -0.1419
10972SOL    HW133726   7.745   7.026   7.164  0.1997 -0.3391  0.3784
10972SOL    HW233727   7.793   7.167   7.190  1.2562 -0.6073 -0.0630
10973SOL     OW33728   0.796   6.285   0.316  0.5281  0.1393  0.6813
10973SOL    HW133729   0.864   6.344   0.282  0.5025 -0.8366 -1.1950
10973SOL    HW233730   0.840   6.233   0.383  1.4437  0.0080 -0.0124
10974SOL     OW33731   4.180   4.424   0.024  0.5617  0.1675  0.1440
10974SOL    HW133732   4.188   4.504   0.076 -0.7736  0.8067 -0.5728
10974SOL    HW233733   4.268   4.407  -0.008  0.7647  1.7204 -0.2054
10975SOL     OW33734   3.020   1.273   2.509 -0.1165  0.3337  0.5788
10975SOL    HW133735   3.083   1.279   2.581  2.5649 -0.4063 -1.5503
10975SOL    HW233736   3.014   1.180   2.490  0.1290  0.5966 -0.8763
10976SOL     OW33737   5.390   4.846   0.401  0.2958  0.0277 -0.3289
10976SOL    HW133738   5.395   4.801   0.485 -0.7474  1.1231  0.3494
10976SOL    HW233739   5.402   4.777   0.336  2.0371 -0.7218  0.6964
10977SOL     OW33740   4.799   6.615   1.101 -0.2090  0.4452 -0.4397
10977SOL    HW133741   4.726   6.676   1.098  1.3671  2.5359  0.8114
10977SOL    HW233742   4.793   6.566   1.019 -2.1653  1.5232 -0.9982
10978SOL     OW33743   0.988   3.293   4.345  0.0659 -0.0061 -0.5264
10978SOL    HW133744   0.966   3.250   4.262  1.2616  0.3358 -1.0442
10978SOL    HW233745   1.064   3.244   4.377 -0.7819 -0.5471  0.7101
10979SOL     OW33746   7.415   1.733   3.013 -0.1472 -0.5254  0.6166
10979SOL    HW133747   7.495   1.781   2.993 -1.0375  0.1761 -1.4494
10979SOL    HW233748   7.446   1.645   3.036  1.2725  0.0545  1.0289
10980SOL     OW33749   6.289   7.101   1.386 -0.1706 -0.2175  0.1348
10980SOL    HW133750   6.316   7.192   1.373 -1.2531  0.3023  1.3821
10980SOL    HW233751   6.273   7.068   1.297 -3.0662  1.8451 -0.2255
10981SOL     OW33752   0.913   4.643   2.687  0.7816  0.2649 -0.0239
10981SOL    HW133753   0.963   4.639   2.606  2.2273  0.7569  0.8023
10981SOL    HW233754   0.939   4.564   2.735 -0.1501 -0.0833 -0.0820
10982SOL     OW33755   2.884   4.193   2.566 -0.3200  0.6495 -0.2729
10982SOL    HW133756   2.792   4.172   2.583 -1.0273  2.2001 -1.9162
10982SOL    HW233757   2.932   4.138   2.628 -2.3104 -0.5856  0.2845
10983SOL     OW33758   7.867   0.829   3.992 -0.5151  0.9564  0.0157
10983SOL    HW133759   7.862   0.771   3.916 -0.6131 -1.4122  1.7405
10983SOL    HW233760   7.949   0.877   3.980  0.6979 -1.0990 -0.4681
10984SOL     OW33761   6.167   6.394   1.808  0.6740  0.0893 -0.1085
10984SOL    HW133762   6.225   6.457   1.851  0.3001  0.7665 -0.5701
10984SOL    HW233763   6.089   6.445   1.785  0.3862 -0.5322 -0.5514
10985SOL     OW33764   1.996   2.057   3.781  0.0421  0.4339 -0.2729
10985SOL    HW133765   2.053   1.986   3.810 -2.0109 -0.9506  0.5716
10985SOL    HW233766   2.057   2.126   3.752  2.1272 -0.5267  1.5512
10986SOL     OW33767   5.970   1.391   0.334 -0.1036 -0.1241  0.7311
10986SOL    HW133768   5.886   1.388   0.379  0.1981  0.7755  1.3932
10986SOL    HW233769   5.986   1.485   0.319 -0.5570 -0.4097 -1.9747
10987SOL     OW33770   6.444   1.654   6.714 -0.1810  0.4488 -0.1547
10987SOL    HW133771   6.357   1.654   6.676  0.6554 -2.1291 -2.4175
10987SOL    HW233772   6.461   1.562   6.734  1.6420  1.0248  1.1676
10988SOL     OW33773   2.341   6.347   2.663 -0.0974 -0.0006  0.3592
10988SOL    HW133774   2.426   6.385   2.641 -0.8398  0.8951 -1.1488
10988SOL    HW233775   2.278   6.417   2.647 -1.3292 -1.2604 -0.6715
10989SOL     OW33776   4.089   1.191   2.702  0.2307  0.1151 -0.2888
10989SOL    HW133777   4.008   1.165   2.657  0.4661  0.1524 -0.7374
10989SOL    HW233778   4.060   1.257   2.766 -0.2007 -0.4076  0.0647
10990SOL     OW33779   4.153   1.514   0.191 -0.0295 -0.3265  0.4718
10990SOL    HW133780   4.150   1.544   0.100 -0.1769 -1.3307  0.1296
10990SOL    HW233781   4.239   1.541   0.222  0.1203 -0.1882 -0.0461
10991SOL     OW33782   5.988   0.249   0.656 -0.1008 -0.3664 -0.5700
10991SOL    HW133783   5.992   0.344   0.656 -0.8827 -0.3106 -2.0960
10991SOL    HW233784   6.047   0.223   0.728 -1.3061  1.2901  1.1214
10992SOL     OW33785   2.353   2.176   0.171  0.2342  0.6352  0.4140
10992SOL    HW133786   2.312   2.090   0.179  0.8471  0.4862  2.7891
10992SOL    HW233787   2.411   2.169   0.095  0.1503 -0.9916  0.4809
10993SOL     OW33788   7.762   2.994   4.831 -0.0966 -0.1840 -0.0901
10993SOL    HW133789   7.785   3.003   4.739 -1.3636 -1.1032 -0.5149
10993SOL    HW233790   7.779   3.081   4.868 -0.4768  0.4735 -1.3922
10994SOL     OW33791   2.185   6.208   7.323  0.5166  0.4933 -1.0685
10994SOL    HW133792   2.120   6.151   7.362  1.3817  0.0089 -0.3137
10994SOL    HW233793   2.212   6.163   7.243  1.1833 -0.1592 -0.4843
10995SOL     OW33794   7.070   4.138   2.904 -0.1317 -0.0441 -0.0564
10995SOL    HW133795   7.161   4.167   2.912 -0.2200 -0.0468  1.2378
10995SOL    HW233796   7.026   4.178   2.979 -1.2150 -0.0216 -0.6782
10996SOL     OW33797   7.690   4.876   3.712 -0.1905 -0.0440 -0.1584
10996SOL    HW133798   7.757   4.809   3.722  0.9059  1.1430  0.7334
10996SOL    HW233799   7.607   4.830   3.726  0.4159 -1.5023 -1.1148
10997SOL     OW33800   6.410   0.603   7.299 -0.0835 -0.5003 -0.3718
10997SOL    HW133801   6.346   0.674   7.305  2.3033  1.7250  0.4886
10997SOL    HW233802   6.439   0.589   7.389  0.3031 -1.8661 -0.6757
10998SOL     OW33803   2.782   1.263   1.733 -0.1611  0.3150  0.2053
10998SOL    HW133804   2.874   1.266   1.707 -0.3114  0.7622 -0.3001
10998SOL    HW233805   2.775   1.187   1.791  0.1437 -0.8138 -1.2108
10999SOL     OW33806   2.195   2.193   5.896  0.2393 -0.1834 -0.2312
10999SOL    HW133807   2.231   2.262   5.841 -0.1154 -0.9083 -1.4127
10999SOL    HW233808   2.264   2.127   5.899  0.4507  0.0593  0.6261
11000SOL     OW33809   0.739   5.184   1.761  0.4619 -0.0202 -0.0152
11000SOL    HW133810   0.724   5.092   1.783 -1.1023  0.3347  0.5390
11000SOL    HW233811   0.754   5.226   1.846 -0.3520  0.4746 -0.1060
11001SOL     OW33812   1.024   3.881   3.689 -0.1107  0.2057 -0.2521
11001SOL    HW133813   1.058   3.967   3.665 -1.1988  0.3626 -1.2759
11001SOL    HW233814   1.074   3.819   3.635 -0.2663  0.3004 -0.5044
11002SOL     OW33815   5.225   0.575   7.758 -0.0314  0.0034  0.5783
11002SOL    HW133816   5.278   0.524   7.820  0.6410  0.9536  0.8037
11002SOL    HW233817   5.146   0.597   7.807 -0.4424 -1.0111  0.3998
11003SOL     OW33818   1.860   0.758   4.413  0.1608 -0.4722 -0.3653
11003SOL    HW133819   1.794   0.711   4.464  1.2396 -0.5545  1.0259
11003SOL    HW233820   1.817   0.839   4.386 -0.4234 -0.3795  0.7802
11004SOL     OW33821   3.946   7.312   3.632 -0.5258  0.9862  0.5979
11004SOL    HW133822   3.957   7.257   3.710  1.5947  0.0678 -0.2568
11004SOL    HW233823   3.871   7.274   3.587  0.2469 -0.6101  0.5681
11005SOL     OW33824   6.302   6.276   6.209 -0.1775  0.1533  0.2317
11005SOL    HW133825   6.291   6.369   6.188 -1.0670  0.0489  0.1911
11005SOL    HW233826   6.396   6.261   6.204  0.0953  1.3253  1.4332
11006SOL     OW33827   2.900   1.210   1.403 -0.4657 -0.2009 -0.6285
11006SOL    HW133828   2.820   1.158   1.400 -0.7584  0.1941  0.0527
11006SOL    HW233829   2.926   1.207   1.495 -1.0093  1.6194 -0.3886
11007SOL     OW33830   2.724   6.238   6.831 -0.0609 -0.4112  0.1371
11007SOL    HW133831   2.802   6.183   6.821 -0.7996 -1.3053 -1.0240
11007SOL    HW233832   2.757   6.327   6.836  1.0006 -0.6658 -1.5254
11008SOL     OW33833   5.507   5.356   0.026  0.6372 -0.0141 -0.1228
11008SOL    HW133834   5.555   5.366   0.108 -1.1652 -0.6708  1.0648
11008SOL    HW233835   5.563   5.300  -0.028  2.3261  1.2528  0.1930
11009SOL     OW33836   6.951   4.066   2.342  0.3987 -0.1712 -0.1772
11009SOL    HW133837   6.972   3.974   2.359 -1.9942 -1.5173 -3.3080
11009SOL    HW233838   6.880   4.086   2.403  0.7945 -0.4535  0.3835
11010SOL     OW33839   0.707   7.921   4.704  0.4215  0.5265 -0.1568
11010SOL    HW133840   0.685   7.880   4.787 -0.6474  0.6840 -0.3439
11010SOL    HW233841   0.730   7.848   4.646  1.5822  0.4495  0.3782
11011SOL     OW33842   0.711   1.478   0.334  0.6059 -0.6449 -0.7812
11011SOL    HW133843   0.623   1.455   0.304  0.5018 -0.3313 -0.7239
11011SOL    HW233844   0.696   1.535   0.409  0.8247  1.0493 -1.9700
11012SOL     OW33845   5.573   3.405   0.586  0.0035 -0.2711 -0.1223
11012SOL    HW133846   5.641   3.467   0.560 -1.1953  1.5702  0.9025
11012SOL    HW233847   5.598   3.323   0.544  1.4330  1.0000 -1.9095
11013SOL     OW33848   0.535   2.926   4.553  0.8394 -0.5145  0.4521
11013SOL    HW133849   0.536   3.017   4.584  0.7369 -0.0376 -0.8626
11013SOL    HW233850   0.501   2.932   4.464  0.2683 -1.9264  0.5542
11014SOL     OW33851   7.405   7.887   4.471 -0.1714  0.1577  0.3368
11014SOL    HW133852   7.455   7.809   4.448  1.1844  1.0170  0.2123
11014SOL    HW233853   7.440   7.955   4.414 -1.3131  0.8702  0.4520
11015SOL     OW33854   3.515   3.207   3.798 -0.3808  0.6718 -0.8410
11015SOL    HW133855   3.466   3.283   3.766  0.5348  1.3153 -0.7525
11015SOL    HW233856   3.605   3.238   3.806  0.0242 -0.4399 -0.8494
11016SOL     OW33857   2.122   5.688   7.543 -0.1733 -0.9338  0.4290
11016SOL    HW133858   2.129   5.634   7.465  1.1054  0.3307 -0.3760
11016SOL    HW233859   2.048   5.747   7.525 -0.0739 -0.8466  0.3078
11017SOL     OW33860   1.637   4.902   3.471 -0.6086  0.1424 -0.3865
11017SOL    HW133861   1.646   4.994   3.493 -1.0307 -0.0317  0.5992
11017SOL    HW233862   1.585   4.900   3.391  2.2986  0.8783 -2.4177
11018SOL     OW33863   4.562   0.342   4.244 -0.2975  0.2838  0.3095
11018SOL    HW133864   4.584   0.250   4.253  2.0806  0.6763 -0.7472
11018SOL    HW233865   4.577   0.379   4.331 -0.4452 -0.1831  0.5343
11019SOL     OW33866   6.240   0.983   5.890  0.1908  0.3913  0.3384
11019SOL    HW133867   6.325   1.016   5.863  0.4541 -0.1526  0.4951
11019SOL    HW233868   6.186   0.989   5.811  0.8235 -0.7416 -0.2067
11020SOL     OW33869   0.056   6.776   7.442 -0.1731  0.4330  0.3010
11020SOL    HW133870   0.035   6.776   7.348 -0.0756 -0.7887  0.2683
11020SOL    HW233871   0.093   6.863   7.458 -1.9035  1.3390 -0.3878
11021SOL     OW33872   0.597   3.283   7.080 -0.4344 -0.8883  0.1785
11021SOL    HW133873   0.640   3.338   7.014  0.2774 -1.6769 -0.0269
11021SOL    HW233874   0.570   3.205   7.033 -0.8828 -0.9954  0.6008
11022SOL     OW33875   4.156   0.793   5.819 -0.3445 -0.2372  0.2401
11022SOL    HW133876   4.179   0.700   5.821 -0.2345 -0.2360 -0.6261
11022SOL    HW233877   4.064   0.795   5.848  0.2771 -0.3684  2.4077
11023SOL     OW33878   1.311   2.335   3.268 -0.0382  0.2855  0.6694
11023SOL    HW133879   1.270   2.322   3.354 -0.0608 -0.4682  0.5531
11023SOL    HW233880   1.398   2.297   3.277 -0.1994 -0.2058  0.2332
11024SOL     OW33881   0.478   3.469   2.405 -0.1111  0.6593  0.2668
11024SOL    HW133882   0.557   3.500   2.448  0.0339 -0.4606  0.8300
11024SOL    HW233883   0.502   3.463   2.313  0.7556 -0.5116  0.5435
11025SOL     OW33884   7.929   1.808   1.820 -0.3239 -0.4219 -0.3397
11025SOL    HW133885   7.932   1.725   1.772  0.4392 -0.3483 -0.4402
11025SOL    HW233886   7.849   1.803   1.871  0.3537 -1.7996  0.6702
11026SOL     OW33887   2.527   6.126   6.678  0.3408 -0.1604  0.1356
11026SOL    HW133888   2.600   6.152   6.733 -0.3651 -0.3959  1.2033
11026SOL    HW233889   2.458   6.190   6.697 -0.4844 -1.2109  0.7985
11027SOL     OW33890   2.799   6.656   7.478 -0.1992  0.8447  0.6037
11027SOL    HW133891   2.764   6.608   7.403  1.2257 -1.1906  1.1457
11027SOL    HW233892   2.722   6.697   7.518 -1.2095  0.6165 -1.0181
11028SOL     OW33893   1.293   7.906   0.545 -0.8661 -0.1889  0.4203
11028SOL    HW133894   1.352   7.848   0.593  0.4280  0.8934  0.1696
11028SOL    HW233895   1.217   7.851   0.526 -0.4962 -1.2515  1.8271
11029SOL     OW33896   2.585   0.471   4.210  0.0366  0.3358  0.1471
11029SOL    HW133897   2.496   0.446   4.183  0.7248 -1.4333 -0.6089
11029SOL    HW233898   2.571   0.545   4.270 -1.9026  0.4738 -0.3895
11030SOL     OW33899   0.882   1.721   7.809  0.4693  0.1114  0.3386
11030SOL    HW133900   0.869   1.792   7.747 -1.0504 -1.5859 -1.4107
11030SOL    HW233901   0.810   1.730   7.871 -0.2003 -0.3404 -0.3580
11031SOL     OW33902   5.777   5.024   3.837 -0.0027 -0.1178  0.0153
11031SOL    HW133903   5.732   4.989   3.760  0.1391  0.2857 -0.2559
11031SOL    HW233904   5.799   4.947   3.889 -0.4859 -0.3601 -0.1355
11032SOL     OW33905   4.352   2.920   3.248  0.0311 -0.4458 -0.3548
11032SOL    HW133906   4.438   2.960   3.258 -0.4273  0.4373  0.2241
11032SOL    HW233907   4.328   2.891   3.336  0.0773 -1.4437 -0.6558
11033SOL     OW33908   5.636   7.091   1.141  0.0350  0.1010 -0.3201
11033SOL    HW133909   5.685   7.101   1.059  0.0156 -0.5113 -0.4097
11033SOL    HW233910   5.637   7.179   1.181 -0.0967  0.4427 -1.0524
11034SOL     OW33911   0.642   3.829   2.661 -0.9308  0.1041 -0.0743
11034SOL    HW133912   0.556   3.825   2.620 -0.9040  2.2526 -0.4656
11034SOL    HW233913   0.684   3.906   2.622  0.4092  0.2510  1.5228
11035SOL     OW33914   3.438   7.952   5.458 -0.8149 -0.3238  0.0788
11035SOL    HW133915   3.426   7.861   5.483  1.1002 -0.4187  0.8297
11035SOL    HW233916   3.404   8.002   5.532 -0.9457 -0.4499  0.1046
11036SOL     OW33917   1.982   5.101   5.498 -0.2795  0.1247 -0.4668
11036SOL    HW133918   2.043   5.091   5.425 -0.1659 -0.1865 -0.3310
11036SOL    HW233919   1.952   5.191   5.492 -1.1125 -0.1997 -1.5578
11037SOL     OW33920   7.181   4.499   6.764 -0.2348  0.9885 -0.2230
11037SOL    HW133921   7.142   4.468   6.682 -0.5245  0.7487  0.0025
11037SOL    HW233922   7.136   4.448   6.832  1.6962 -0.5805 -0.0520
11038SOL     OW33923   5.678   3.759   4.658  0.0357 -0.6134 -0.1476
11038SOL    HW133924   5.630   3.684   4.693  0.5598 -0.7790  0.2193
11038SOL    HW233925   5.741   3.722   4.597 -1.2461 -0.2888 -1.7557
11039SOL     OW33926   4.215   4.092   5.310 -0.4266  0.4401 -0.4894
11039SOL    HW133927   4.225   4.185   5.291  0.7165  0.3148 -0.5763
11039SOL    HW233928   4.297   4.067   5.353 -1.8435  0.1266  2.2817
11040SOL     OW33929   6.701   2.167   7.381 -0.4503 -0.0338  0.0230
11040SOL    HW133930   6.615   2.126   7.372 -0.9587  0.4749  2.0510
11040SOL    HW233931   6.764   2.095   7.377 -1.1884 -0.7836  1.4998
11041SOL     OW33932   4.700   7.638   6.743 -0.0893  0.0363 -0.1433
11041SOL    HW133933   4.618   7.665   6.785  0.3413 -0.2468  0.9137
11041SOL    HW233934   4.690   7.545   6.727  0.3299 -0.1714  0.7417
11042SOL     OW33935   2.569   2.903   3.781  0.4267  0.3410  0.1840
11042SOL    HW133936   2.525   2.823   3.752 -1.5566  2.0785 -1.9457
11042SOL    HW233937   2.591   2.949   3.701  0.1853  2.6156  1.3455
11043SOL     OW33938   3.739   4.880   6.751 -0.3302  0.4989 -0.2076
11043SOL    HW133939   3.720   4.974   6.742 -1.4953  0.4073  1.1075
11043SOL    HW233940   3.654   4.837   6.747 -0.0785 -0.2687  1.8028
11044SOL     OW33941   6.190   1.743   7.486  0.2273 -0.5036 -0.0715
11044SOL    HW133942   6.137   1.770   7.412 -0.6869 -0.4601  0.5833
11044SOL    HW233943   6.150   1.661   7.517 -0.0155 -0.0093  0.9738
11045SOL     OW33944   2.032   6.574   7.208 -0.6065  0.4515 -0.3019
11045SOL    HW133945   1.977   6.646   7.239 -3.1005 -1.0882 -0.9021
11045SOL    HW233946   2.067   6.605   7.125 -0.6975  1.4034  0.0009
11046SOL     OW33947   5.140   7.812   6.978 -0.1818  0.8502  0.2119
11046SOL    HW133948   5.074   7.795   7.045 -1.2188  1.0817 -0.7210
11046SOL    HW233949   5.122   7.746   6.911  0.3841  1.0808 -0.1689
11047SOL     OW33950   3.672   0.757   4.990 -0.1222  0.0403 -0.1172
11047SOL    HW133951   3.676   0.661   4.985 -0.5550  0.0227 -0.2110
11047SOL    HW233952   3.601   0.774   5.053 -0.3824  0.3010 -0.4812
11048SOL     OW33953   5.723   2.635   6.556 -0.3063 -0.6539  0.3914
11048SOL    HW133954   5.715   2.622   6.650 -0.2654  1.2904  0.6913
11048SOL    HW233955   5.815   2.619   6.537 -0.5539 -2.3406  0.4212
11049SOL     OW33956   5.450   7.918   2.657 -0.4425  0.0250  0.2118
11049SOL    HW133957   5.434   7.864   2.734 -1.2608 -0.0099  0.0214
11049SOL    HW233958   5.499   7.861   2.597 -2.7932 -1.1480 -0.7213
11050SOL     OW33959   7.286   7.800   0.212 -0.5982  0.8466 -0.2019
11050SOL    HW133960   7.250   7.827   0.128 -0.9983 -1.0921 -0.7011
11050SOL    HW233961   7.379   7.825   0.208 -0.3309 -0.2621 -1.7250
11051SOL     OW33962   3.774   5.617   7.539 -0.0388  0.2141 -0.3634
11051SOL    HW133963   3.799   5.691   7.594 -1.1183  0.9961 -0.8940
11051SOL    HW233964   3.786   5.648   7.449  0.3384 -0.5658 -0.5995
11052SOL     OW33965   4.192   6.729   3.489 -0.1206 -0.0869  0.5945
11052SOL    HW133966   4.150   6.815   3.484  0.1732  0.0220 -0.0657
11052SOL    HW233967   4.119   6.667   3.487 -0.2669  0.0767 -1.1432
11053SOL     OW33968   1.468   1.645   3.212 -0.7826 -0.2923  0.6349
11053SOL    HW133969   1.521   1.718   3.244 -0.8636  1.0302 -1.9249
11053SOL    HW233970   1.444   1.671   3.123 -3.7145 -1.9337  0.8273
11054SOL     OW33971   1.777   7.352   6.295  0.1687 -0.4044  0.1955
11054SOL    HW133972   1.757   7.434   6.249  0.4362  0.0782  0.9334
11054SOL    HW233973   1.865   7.364   6.330  0.3853 -1.1802 -0.0533
11055SOL     OW33974   4.104   3.334   4.923  0.0819 -0.6820 -0.4426
11055SOL    HW133975   4.146   3.339   4.838  0.4802  1.2953 -0.1720
11055SOL    HW233976   4.043   3.408   4.925 -0.8275 -1.4117  0.5321
11056SOL     OW33977   2.767   4.867   4.726  0.5632 -0.4496 -0.2782
11056SOL    HW133978   2.690   4.810   4.730  0.0385  0.2367 -0.3992
11056SOL    HW233979   2.800   4.856   4.636 -0.6580  0.8546 -0.9194
11057SOL     OW33980   7.589   4.798   1.897 -0.2146  0.0325 -0.0947
11057SOL    HW133981   7.655   4.732   1.877 -0.6044 -0.5347  0.4413
11057SOL    HW233982   7.603   4.867   1.833  1.0209  0.0127  0.1404
11058SOL     OW33983   0.564   3.966   6.850  0.0548  0.0044 -0.9113
11058SOL    HW133984   0.649   3.994   6.883  0.3081 -0.4827 -1.1284
11058SOL    HW233985   0.523   4.046   6.817 -0.3061  0.5474  0.7632
11059SOL     OW33986   4.042   0.535   0.942  0.3736 -0.1656 -0.3024
11059SOL    HW133987   4.009   0.622   0.920  2.1795  1.2761  2.1694
11059SOL    HW233988   4.137   0.545   0.945  0.7539 -2.6398 -1.3778
11060SOL     OW33989   5.236   6.309   7.396 -0.2462 -0.0224  0.5272
11060SOL    HW133990   5.229   6.305   7.301  0.3602 -0.2955  0.4867
11060SOL    HW233991   5.325   6.342   7.412 -0.9165  1.6635  0.9859
11061SOL     OW33992   7.255   5.341   0.449 -0.5708 -0.2140 -0.2214
11061SOL    HW133993   7.276   5.433   0.465 -0.9904  0.0106 -0.9286
11061SOL    HW233994   7.279   5.327   0.358  0.9124 -1.2168  0.2844
11062SOL     OW33995   1.569   5.805   4.400  0.4505 -0.3960 -0.2992
11062SOL    HW133996   1.615   5.726   4.429 -1.4440 -1.0886  0.9974
11062SOL    HW233997   1.635   5.874   4.405  1.5779 -1.4814  0.6689
11063SOL     OW33998   1.352   5.644   7.915  0.2010 -0.2783  0.6895
11063SOL    HW133999   1.353   5.672   8.006  1.3692  1.7154  0.1318
11063SOL    HW234000   1.346   5.549   7.919 -3.3216 -0.1171  2.7361
11064SOL     OW34001   4.275   5.014   3.472  0.0426  0.4575 -0.4937
11064SOL    HW134002   4.358   4.976   3.444  0.6371  1.0763  0.3917
11064SOL    HW234003   4.258   5.083   3.407  1.1013  1.4720  0.2658
11065SOL     OW34004   7.431   3.725   4.390  0.5601 -0.1005  0.0677
11065SOL    HW134005   7.392   3.698   4.473 -0.2982  1.2394  0.1239
11065SOL    HW234006   7.385   3.805   4.367  0.5354 -0.6245 -1.8790
11066SOL     OW34007   6.608   5.389   0.478  0.2750  0.0577 -0.1720
11066SOL    HW134008   6.644   5.305   0.505  2.0503  0.4447 -1.1630
11066SOL    HW234009   6.674   5.453   0.506 -0.6512  1.0397 -0.1749
11067SOL     OW34010   7.515   3.609   0.462  0.2255 -0.4032 -0.0164
11067SOL    HW134011   7.439   3.667   0.459  0.1174 -0.5666 -0.5853
11067SOL    HW234012   7.485   3.533   0.511  0.0463 -0.4285 -0.1630
11068SOL     OW34013   2.100   0.344   1.696  0.2349  0.2425  0.9086
11068SOL    HW134014   2.011   0.379   1.694 -0.0028 -0.2798  1.7431
11068SOL    HW234015   2.091   0.260   1.741  0.3153 -2.3152 -3.2345
11069SOL     OW34016   1.776   5.865   6.842 -0.0500 -0.0362 -0.7605
11069SOL    HW134017   1.782   5.916   6.923  0.1711 -0.2930 -0.6144
11069SOL    HW234018   1.749   5.929   6.775  0.5610  0.3465 -0.6476
11070SOL     OW34019   5.512   1.545   5.881  0.4076 -0.3553  0.1372
11070SOL    HW134020   5.576   1.535   5.810 -0.5930  3.1808 -1.5210
11070SOL    HW234021   5.431   1.508   5.846  0.7302 -1.9034  0.9556
11071SOL     OW34022   6.817   2.079   7.933 -0.0479 -0.0756 -0.7636
11071SOL    HW134023   6.748   2.050   7.872 -0.0142 -0.5222 -0.5964
11071SOL    HW234024   6.769   2.109   8.010 -0.1486  1.5895 -1.4361
11072SOL     OW34025   1.388   1.683   0.638  0.1095  0.2321 -0.3108
11072SOL    HW134026   1.314   1.722   0.685  0.6282  2.5180 -1.2528
11072SOL    HW234027   1.404   1.743   0.565  2.2163 -0.7745 -0.7421
11073SOL     OW34028   6.448   1.816   7.566  0.2550  0.0494 -0.1367
11073SOL    HW134029   6.482   1.810   7.476  0.4314  0.2902 -0.0869
11073SOL    HW234030   6.356   1.789   7.558  0.5599 -1.0070 -0.1951
11074SOL     OW34031   1.564   1.098   2.660 -0.0300 -0.3730 -0.2785
11074SOL    HW134032   1.519   1.018   2.633  0.5965 -0.3853 -1.3383
11074SOL    HW234033   1.532   1.114   2.749 -1.6720 -0.7074 -0.7599
11075SOL     OW34034   7.709   7.381   2.383  0.1465 -0.4187 -0.1454
11075SOL    HW134035   7.655   7.434   2.441 -0.5712 -0.8559 -0.3941
11075SOL    HW234036   7.768   7.443   2.342 -0.4680  0.1485 -0.1941
11076SOL     OW34037   4.194   4.949   4.160 -0.0328 -0.5880  0.2810
11076SOL    HW134038   4.169   5.013   4.226  1.3701 -0.2361  0.5070
11076SOL    HW234039   4.115   4.936   4.108 -0.8527 -0.0574  1.3560
11077SOL     OW34040   6.915   2.570   0.775 -0.2600  0.7295  0.2140
11077SOL    HW134041   6.907   2.484   0.816 -2.0060  0.7448 -0.0207
11077SOL    HW234042   6.906   2.553   0.681 -1.2376  1.1981  0.2017
11078SOL     OW34043   6.428   5.523   4.851 -0.0067 -0.5343  0.4901
11078SOL    HW134044   6.358   5.477   4.806  0.0804 -0.3717  0.1886
11078SOL    HW234045   6.394   5.611   4.867  0.5488 -0.0921 -0.6933
11079SOL     OW34046   2.946   4.123   3.063 -0.3747 -0.2522  0.2107
11079SOL    HW134047   2.915   4.102   3.151 -1.3133  0.2738  0.0163
11079SOL    HW234048   2.990   4.208   3.072  2.2645 -1.5662  0.7410
11080SOL     OW34049   2.706   4.184   3.481  0.5277  0.3017  0.3580
11080SOL    HW134050   2.637   4.130   3.443 -0.5022  1.6757  0.2173
11080SOL    HW234051   2.665   4.268   3.497  2.7495  1.9296 -1.8421
11081SOL     OW34052   6.126   7.097   6.217  0.1383  0.2419 -0.6632
11081SOL    HW134053   6.185   7.025   6.238 -1.0134 -0.8169 -0.9692
11081SOL    HW234054   6.166   7.174   6.259  0.7251 -0.8007  0.7739
11082SOL     OW34055   1.130   2.230   4.684  0.3707 -0.3037 -0.2391
11082SOL    HW134056   1.045   2.274   4.689  0.0636 -1.0056  1.0644
11082SOL    HW234057   1.110   2.137   4.695  1.4175 -0.3472  1.6226
11083SOL     OW34058   3.594   5.992   1.506  0.6669 -0.5308  0.5439
11083SOL    HW134059   3.543   5.911   1.507 -1.2310  0.6013  2.2902
11083SOL    HW234060   3.681   5.965   1.534  0.3817 -2.1171  0.0386
11084SOL     OW34061   3.820   6.822   2.411  0.2164 -0.3359 -0.2176
11084SOL    HW134062   3.857   6.789   2.329  0.8666  0.4536 -0.2645
11084SOL    HW234063   3.806   6.915   2.395  2.2713  0.3022  1.1829
11085SOL     OW34064   3.550   3.642   6.062 -1.1227 -0.0657  0.0354
11085SOL    HW134065   3.525   3.584   6.134  0.2218 -0.2166  0.4114
11085SOL    HW234066   3.486   3.624   5.994 -0.3447 -2.5907 -0.1587
11086SOL     OW34067   4.423   4.354   5.244  0.3579  0.2940 -0.2546
11086SOL    HW134068   4.476   4.404   5.306  3.7304  0.4644 -2.9593
11086SOL    HW234069   4.474   4.275   5.227 -1.3710 -0.6428 -1.4503
11087SOL     OW34070   4.620   0.750   1.736 -0.2999 -0.0635 -0.8084
11087SOL    HW134071   4.545   0.691   1.731  1.7651 -2.9289 -0.7967
11087SOL    HW234072   4.620   0.782   1.826 -0.1119 -2.1634  0.0043
11088SOL     OW34073   1.428   4.627   0.755  0.1315 -0.1551 -0.4015
11088SOL    HW134074   1.353   4.687   0.754 -0.6977 -1.1664 -0.2558
11088SOL    HW234075   1.487   4.665   0.820 -1.2359 -0.4661  1.0983
11089SOL     OW34076   1.110   6.433   4.535  0.2260  0.1271  0.0180
11089SOL    HW134077   1.120   6.338   4.545 -0.2370  0.0866  0.1331
11089SOL    HW234078   1.113   6.447   4.441  0.5022  0.0208  0.0104
11090SOL     OW34079   3.002   0.290   7.717  0.2176 -0.7554 -0.2424
11090SOL    HW134080   3.070   0.288   7.784  0.6216  1.3191 -0.4906
11090SOL    HW234081   3.051   0.289   7.634 -0.0918 -0.2903 -0.4359
11091SOL     OW34082   1.031   3.349   0.195 -0.0679  0.0255  0.3504
11091SOL    HW134083   1.090   3.424   0.199  1.8145 -1.3924  0.0223
11091SOL    HW234084   1.046   3.301   0.276 -0.1689 -0.7832 -0.1014
11092SOL     OW34085   6.669   7.734   1.569 -0.2658  0.3157  0.0932
11092SOL    HW134086   6.595   7.685   1.607 -1.2003  0.9233 -0.8865
11092SOL    HW234087   6.636   7.824   1.560  1.0982  0.9322  0.9739
11093SOL     OW34088   1.203   4.215   5.721 -0.3833  0.0070  0.3998
11093SOL    HW134089   1.216   4.232   5.628 -1.8911  0.2817  0.2214
11093SOL    HW234090   1.179   4.300   5.758 -1.4905 -0.4348  0.7176
11094SOL     OW34091   4.987   2.167   4.824  0.1797  0.3579  0.2042
11094SOL    HW134092   4.913   2.199   4.772  0.3657  1.6898  0.7206
11094SOL    HW234093   5.062   2.171   4.764 -0.3415 -2.3484 -0.7799
11095SOL     OW34094   1.005   7.996   4.871  0.6572  0.0345 -0.1411
11095SOL    HW134095   1.042   7.956   4.792 -1.4369  0.6442 -1.4969
11095SOL    HW234096   0.919   7.956   4.881 -1.0309  3.1403 -0.8509
11096SOL     OW34097   3.610   0.903   5.305  0.5137  0.3379 -0.6747
11096SOL    HW134098   3.650   0.966   5.365 -1.9603  0.9143  0.5064
11096SOL    HW234099   3.628   0.818   5.345 -0.0883  0.6463  0.3213
11097SOL     OW34100   3.668   3.815   0.652  0.8435  0.3658 -0.3344
11097SOL    HW134101   3.733   3.747   0.671  0.3664  0.2986  1.1547
11097SOL    HW234102   3.611   3.775   0.586  0.5000 -0.7484  0.5981
11098SOL     OW34103   1.531   4.997   2.769 -0.0074  0.1111 -0.5783
11098SOL    HW134104   1.563   4.910   2.793 -0.6324 -0.3550 -1.3837
11098SOL    HW234105   1.610   5.047   2.750  0.4873  0.3236  1.7448
11099SOL     OW34106   1.801   3.970   4.140  0.3179  0.5661  0.5076
11099SOL    HW134107   1.874   4.007   4.189  0.8576 -0.1818  0.2715
11099SOL    HW234108   1.723   3.998   4.188  0.8122  0.2796  1.4885
11100SOL     OW34109   4.406   0.950   2.582 -0.5964  0.4265 -0.3919
11100SOL    HW134110   4.370   0.915   2.501  1.5198  0.0298 -1.2235
11100SOL    HW234111   4.391   1.044   2.577 -1.4157  0.2903 -0.7158
11101SOL     OW34112   0.963   6.952   6.621  0.1637  0.0912  0.1282
11101SOL    HW134113   0.926   6.865   6.611  2.9656 -1.1733  0.0583
11101SOL    HW234114   0.975   6.963   6.715 -0.8955  0.7692  0.2059
11102SOL     OW34115   6.074   7.563   6.351 -0.5076  0.9212  0.0091
11102SOL    HW134116   6.151   7.523   6.391  0.0164  0.5795 -1.2999
11102SOL    HW234117   6.003   7.501   6.367 -0.1307  0.4089 -0.2935
11103SOL     OW34118   4.567   7.813   5.770  0.5316 -0.0930 -0.1401
11103SOL    HW134119   4.620   7.745   5.728 -0.3498 -1.5630  1.0165
11103SOL    HW234120   4.629   7.884   5.787  1.9151 -1.3246  0.2032
11104SOL     OW34121   0.664   6.005   1.563  0.2122  0.5428 -0.2762
11104SOL    HW134122   0.645   5.913   1.579  2.0476  0.4982  2.2159
11104SOL    HW234123   0.593   6.052   1.607 -1.3012  0.3981 -2.4244
11105SOL     OW34124   4.689   0.220   7.783  0.3009 -0.3570  0.3691
11105SOL    HW134125   4.695   0.179   7.869  0.7910 -1.5068 -0.2054
11105SOL    HW234126   4.765   0.278   7.778 -0.4735  0.7951  1.2376
11106SOL     OW34127   6.317   0.963   0.339  0.0844 -0.0356 -0.2604
11106SOL    HW134128   6.368   0.890   0.375 -1.1338 -0.7536  0.0607
11106SOL    HW234129   6.379   1.036   0.336  1.0314 -0.7774  0.4650
11107SOL     OW34130   4.662   5.583   6.222  0.2562  0.1964 -0.4452
11107SOL    HW134131   4.663   5.563   6.316 -0.7951 -0.5397 -0.5772
11107SOL    HW234132   4.732   5.648   6.211  0.2461  0.4647  0.8800
11108SOL     OW34133   5.445   7.272   3.257 -0.1758 -0.1373  0.5973
11108SOL    HW134134   5.381   7.201   3.255  0.1856 -0.5174  1.7556
11108SOL    HW234135   5.519   7.238   3.207 -0.6022  0.0488 -0.1828
11109SOL     OW34136   1.982   6.077   1.433 -0.1250 -0.2511 -0.1847
11109SOL    HW134137   1.895   6.038   1.436 -0.2842  0.1699  1.0328
11109SOL    HW234138   1.967   6.168   1.409  0.0630 -0.3905 -0.8529
11110SOL     OW34139   1.321   7.534   6.945  0.0661 -0.7857 -0.0155
11110SOL    HW134140   1.303   7.573   6.860 -2.4913 -0.9606  0.3751
11110SOL    HW234141   1.414   7.552   6.961  0.0302  1.2612 -1.7921
11111SOL     OW34142   3.233   0.794   1.323  0.1919 -0.1408 -0.2955
11111SOL    HW134143   3.218   0.823   1.413 -1.2670 -3.6928  0.7868
11111SOL    HW234144   3.146   0.771   1.291  0.5297  1.9907 -3.1162
11112SOL     OW34145   3.516   4.689   0.319  0.1743 -0.0508  0.1025
11112SOL    HW134146   3.447   4.735   0.271 -1.3126 -2.9629 -0.7736
11112SOL    HW234147   3.597   4.725   0.283 -0.8989  1.1730 -1.2313
11113SOL     OW34148   5.668   5.808   1.866  0.6358  0.4406 -0.1594
11113SOL    HW134149   5.727   5.743   1.829  0.5389  0.0923  0.2973
11113SOL    HW234150   5.656   5.872   1.795  0.5896 -0.1286 -0.6777
11114SOL     OW34151   7.265   3.141   5.508  0.4719 -0.1805 -0.1208
11114SOL    HW134152   7.318   3.066   5.483 -3.3431 -2.8668 -1.1215
11114SOL    HW234153   7.206   3.107   5.576 -1.8425  1.6495 -1.0743
11115SOL     OW34154   3.001   4.635   4.622  0.0576  0.2286  0.1365
11115SOL    HW134155   3.045   4.646   4.538  0.6499 -0.8636  0.2794
11115SOL    HW234156   2.949   4.556   4.612  1.8049 -1.1882  1.4156
11116SOL     OW34157   3.284   2.484   2.243  0.4528  0.2531  0.0754
11116SOL    HW134158   3.316   2.541   2.173 -0.4263  1.4198  0.5909
11116SOL    HW234159   3.189   2.484   2.233  0.4492 -1.7538 -0.3623
11117SOL     OW34160   5.838   7.506   1.306 -0.2613 -0.2366  0.3823
11117SOL    HW134161   5.826   7.569   1.378 -0.7745  0.8986 -0.6637
11117SOL    HW234162   5.860   7.560   1.230  0.9260 -1.4773 -0.1812
11118SOL     OW34163   4.232   6.188   4.839 -0.1028 -0.3539 -0.1967
11118SOL    HW134164   4.285   6.137   4.901 -2.4205 -0.9860  1.3953
11118SOL    HW234165   4.144   6.154   4.849 -1.2431  2.0609 -1.2111
11119SOL     OW34166   0.355   3.058   2.650  0.2248  0.1229  0.5853
11119SOL    HW134167   0.318   3.134   2.694  0.3026  0.2414  0.4486
11119SOL    HW234168   0.388   3.093   2.567  2.6034  0.4570  1.5813
11120SOL     OW34169   1.606   6.735   7.828 -0.4756 -0.4704  0.3240
11120SOL    HW134170   1.514   6.718   7.850 -0.2819 -1.1551  0.6289
11120SOL    HW234171   1.606   6.825   7.796 -1.2486 -0.4480  0.3555
11121SOL     OW34172   4.148   0.040   5.426  0.3401  0.0570 -0.4368
11121SOL    HW134173   4.088   0.064   5.497  2.7559  0.6764  1.5368
11121SOL    HW234174   4.159   0.120   5.376  1.9498  0.9131  1.1697
11122SOL     OW34175   3.558   1.717   3.722  0.5966  0.4139  0.3140
11122SOL    HW134176   3.477   1.766   3.739 -0.4157 -0.2208 -2.2019
11122SOL    HW234177   3.530   1.625   3.722  1.0188  0.2429 -1.7150
11123SOL     OW34178   2.009   0.779   0.180  0.3496  0.4085  0.9453
11123SOL    HW134179   2.046   0.714   0.241  1.2417 -0.8065 -0.8220
11123SOL    HW234180   1.941   0.730   0.133  1.1515  0.6764 -0.5347
11124SOL     OW34181   6.476   0.374   4.450  0.4351  0.0224  0.1134
11124SOL    HW134182   6.493   0.468   4.443  0.8703 -0.0376  0.3095
11124SOL    HW234183   6.534   0.345   4.521  0.7110 -0.4886 -0.3109
11125SOL     OW34184   5.540   0.587   7.829  0.2040 -0.0462 -0.1465
11125SOL    HW134185   5.584   0.571   7.912 -2.5954 -0.2799  1.4240
11125SOL    HW234186   5.525   0.681   7.828  2.0735  0.3014 -1.4850
11126SOL     OW34187   3.669   1.009   0.253  0.5000 -0.2514  0.0598
11126SOL    HW134188   3.694   0.984   0.165  1.0765  0.0727  0.1267
11126SOL    HW234189   3.679   1.104   0.255 -0.6701 -0.1186  0.1159
11127SOL     OW34190   0.728   7.442   6.700  0.7044 -0.0398  0.5263
11127SOL    HW134191   0.814   7.481   6.684  0.2995  0.2667 -1.0773
11127SOL    HW234192   0.721   7.373   6.634 -1.5932  2.0988 -1.6564
11128SOL     OW34193   0.441   4.328   0.309  0.5207  0.3592  0.1725
11128SOL    HW134194   0.437   4.413   0.265 -0.3486 -0.4618 -1.4102
11128SOL    HW234195   0.488   4.346   0.391 -0.5478  2.5551  0.3700
11129SOL     OW34196   7.166   4.878   6.229  0.1576  0.5145 -0.5346
11129SOL    HW134197   7.207   4.938   6.292  0.5533  0.1442 -0.4344
11129SOL    HW234198   7.217   4.797   6.237 -1.5752 -0.5007  0.7463
11130SOL     OW34199   0.824   3.349   2.006 -0.2768  0.7395  0.8001
11130SOL    HW134200   0.898   3.369   2.064  1.7394  0.1746 -1.3806
11130SOL    HW234201   0.816   3.427   1.951 -1.8878  1.1123  1.5119
11131SOL     OW34202   6.149   5.516   3.047  0.7875 -0.5000 -0.3877
11131SOL    HW134203   6.207   5.483   3.116 -0.8496 -1.1288  0.7203
11131SOL    HW234204   6.163   5.611   3.047  0.8486 -0.5037  0.7707
11132SOL     OW34205   2.541   4.198   1.683 -0.7795 -0.0001 -0.3503
11132SOL    HW134206   2.561   4.145   1.760 -0.6899 -0.6918 -0.8394
11132SOL    HW234207   2.450   4.226   1.696 -0.5535  0.4562  0.3229
11133SOL     OW34208   5.904   7.190   4.581  0.0688 -0.1029  0.2334
11133SOL    HW134209   5.858   7.269   4.611 -1.4085 -0.2505 -1.4959
11133SOL    HW234210   5.988   7.222   4.550 -0.5216  0.8298 -0.4667
11134SOL     OW34211   1.823   4.864   5.320 -0.5796  0.0847 -0.0167
11134SOL    HW134212   1.837   4.938   5.380 -1.3779  0.6282 -0.4854
11134SOL    HW234213   1.906   4.855   5.273 -0.0402 -0.1658  0.9587
11135SOL     OW34214   3.797   2.473   1.155 -0.1150  0.1999 -0.3044
11135SOL    HW134215   3.769   2.544   1.212  0.3497  0.4860 -0.4304
11135SOL    HW234216   3.750   2.396   1.187  0.0182  0.3946  0.3556
11136SOL     OW34217   0.451   6.125   3.413 -0.1599 -0.3955  0.4605
11136SOL    HW134218   0.482   6.215   3.409 -2.4663  0.5785  1.9471
11136SOL    HW234219   0.384   6.120   3.345 -1.2665 -0.3934  1.5069
11137SOL     OW34220   0.163   4.698   5.586 -0.0122 -0.4844  0.1833
11137SOL    HW134221   0.109   4.773   5.562 -1.0545 -0.4746  2.3616
11137SOL    HW234222   0.241   4.737   5.626  0.4211 -0.5589 -0.5610
11138SOL     OW34223   5.214   0.420   3.818 -0.0493 -0.0537  0.9157
11138SOL    HW134224   5.139   0.407   3.760  0.7768 -0.0807 -0.1735
11138SOL    HW234225   5.279   0.357   3.788 -0.1535 -1.2001  2.9021
11139SOL     OW34226   6.992   3.228   7.190  0.5769 -1.0486  0.3664
11139SOL    HW134227   6.953   3.185   7.266 -0.3288 -0.8822  0.0104
11139SOL    HW234228   7.049   3.295   7.228 -0.5947 -0.3200  0.9229
11140SOL     OW34229   6.607   3.060   0.675 -0.1832 -0.1124 -0.2636
11140SOL    HW134230   6.615   3.077   0.769 -1.2078 -1.6030  0.1140
11140SOL    HW234231   6.553   3.132   0.643 -1.0640 -0.3928  0.5586
11141SOL     OW34232   1.631   6.293   1.248 -0.4988 -0.4019 -0.2153
11141SOL    HW134233   1.550   6.297   1.197 -0.1789 -0.0089 -0.7028
11141SOL    HW234234   1.672   6.211   1.221 -0.9154 -0.7909  0.3177
11142SOL     OW34235   5.948   3.944   7.874  0.4104 -0.3972  0.1416
11142SOL    HW134236   5.995   3.869   7.909 -0.3874 -1.1617 -0.3740
11142SOL    HW234237   5.878   3.960   7.938 -0.9094 -1.6534 -0.9078
11143SOL     OW34238   5.749   0.187   2.852  0.4575  0.5862  0.3261
11143SOL    HW134239   5.654   0.175   2.848  0.3253  1.0928  1.4366
11143SOL    HW234240   5.781   0.109   2.897  0.6452  0.1651 -0.5105
11144SOL     OW34241   2.071   7.855   7.143  0.1790  0.1845 -0.3248
11144SOL    HW134242   2.095   7.854   7.236  1.0405 -0.7907 -0.5372
11144SOL    HW234243   2.117   7.932   7.108  0.4160  0.1554 -0.0839
11145SOL     OW34244   1.994   4.993   2.609  0.2966 -0.4498 -0.3667
11145SOL    HW134245   1.984   4.924   2.543  1.4823 -0.2812 -0.7464
11145SOL    HW234246   2.031   5.067   2.561  2.0658 -0.6251  0.6325
11146SOL     OW34247   0.433   0.446   7.992  0.0225  0.3887  0.3322
11146SOL    HW134248   0.366   0.477   7.932  0.5644  1.8732  0.4564
11146SOL    HW234249   0.514   0.485   7.961  0.6840 -0.6071  0.7442
11147SOL     OW34250   3.042   7.599   4.069 -0.7223 -0.4644  0.3516
11147SOL    HW134251   3.052   7.595   3.973 -2.5539  0.4648  0.0848
11147SOL    HW234252   3.109   7.661   4.097 -2.3292  1.9098 -0.7808
11148SOL     OW34253   4.276   3.171   2.731  0.5472 -0.3873 -0.1184
11148SOL    HW134254   4.274   3.156   2.826 -0.1457 -0.5893 -0.1599
11148SOL    HW234255   4.331   3.248   2.721 -1.0910  0.9743  0.6634
11149SOL     OW34256   5.889   3.763   4.472  0.1942  0.1236  0.2187
11149SOL    HW134257   5.943   3.740   4.396 -0.7440 -0.8516 -0.1734
11149SOL    HW234258   5.799   3.755   4.441 -0.2007  0.4595  1.2317
11150SOL     OW34259   5.430   7.153   7.153  0.1544  0.2116 -0.0463
11150SOL    HW134260   5.510   7.177   7.198  2.0904  1.2580 -3.6856
11150SOL    HW234261   5.445   7.063   7.124 -0.6756 -0.1278  0.5286
11151SOL     OW34262   7.725   4.253   0.887 -0.5455 -0.0557 -0.3510
11151SOL    HW134263   7.755   4.326   0.832 -0.6280 -0.2218 -0.6159
11151SOL    HW234264   7.733   4.286   0.977 -0.6378  0.3013 -0.4733
11152SOL     OW34265   6.835   6.615   0.287  0.1130 -0.0656 -0.8608
11152SOL    HW134266   6.763   6.679   0.294 -0.6730 -1.0829  1.0050
11152SOL    HW234267   6.901   6.646   0.348 -0.2100 -0.9230 -0.0528
11153SOL     OW34268   6.209   1.510   3.841 -0.3185  0.0248  0.2314
11153SOL    HW134269   6.298   1.475   3.847  0.0565  1.0463  0.9584
11153SOL    HW234270   6.167   1.457   3.774  0.6051 -0.9741  0.4166
11154SOL     OW34271   2.848   6.845   4.499 -0.8418 -0.2943 -0.5926
11154SOL    HW134272   2.845   6.769   4.558 -0.0433 -1.1614 -1.6129
11154SOL    HW234273   2.939   6.874   4.503 -0.7224 -0.4929 -1.5127
11155SOL     OW34274   1.284   5.838   6.311  0.0770 -0.1480  0.1927
11155SOL    HW134275   1.236   5.756   6.323  0.5908 -0.2741  1.5018
11155SOL    HW234276   1.226   5.892   6.256 -2.0120  0.0688  2.4433
11156SOL     OW34277   6.201   2.988   2.457  0.2077  0.4918  0.2271
11156SOL    HW134278   6.182   2.997   2.364  0.3814 -0.2405  0.1131
11156SOL    HW234279   6.115   2.978   2.498 -0.0162  2.5432  0.3823
11157SOL     OW34280   6.479   3.431   0.785  0.4915 -0.2629 -0.4863
11157SOL    HW134281   6.570   3.445   0.759  0.8305  1.4436  1.3700
11157SOL    HW234282   6.428   3.486   0.727  0.6551 -0.8642 -1.2229
11158SOL     OW34283   4.624   2.837   1.157 -0.4374  0.1961 -0.5543
11158SOL    HW134284   4.619   2.927   1.189 -0.8336  0.1313 -0.4232
11158SOL    HW234285   4.681   2.842   1.080 -0.8520  0.6496 -0.8424
11159SOL     OW34286   6.877   2.503   6.459  0.2243 -0.2157  0.3974
11159SOL    HW134287   6.961   2.513   6.504  0.3585 -0.4029  0.1889
11159SOL    HW234288   6.893   2.438   6.391 -0.4308 -1.2996  1.2423
11160SOL     OW34289   0.340   0.975   2.674 -0.3945  0.0975  0.6956
11160SOL    HW134290   0.390   0.956   2.753 -0.3837 -0.5082  0.5454
11160SOL    HW234291   0.341   1.071   2.668  0.4824  0.1120  0.8674
11161SOL     OW34292   5.732   5.512   1.029 -0.5932 -0.0161  0.0088
11161SOL    HW134293   5.683   5.480   1.104  0.5054 -1.4408  0.1637
11161SOL    HW234294   5.818   5.534   1.064  0.1443 -1.2914 -0.9020
11162SOL     OW34295   7.426   6.760   0.602  0.1542  0.4371 -1.0172
11162SOL    HW134296   7.354   6.811   0.565 -0.5255 -0.3553 -0.8278
11162SOL    HW234297   7.441   6.799   0.688  0.8479  1.4402 -1.5781
11163SOL     OW34298   6.277   0.615   5.134  0.4913 -0.1880  0.3434
11163SOL    HW134299   6.347   0.621   5.068 -0.5309  0.0461 -0.7705
11163SOL    HW234300   6.315   0.654   5.213  0.9313  1.9567 -0.8308
11164SOL     OW34301   5.362   3.006   1.773  0.3580  0.3828 -0.1129
11164SOL    HW134302   5.448   2.983   1.808  0.3022 -0.1613 -0.3244
11164SOL    HW234303   5.301   2.986   1.843  0.4624  1.3492  0.2594
11165SOL     OW34304   6.007   0.175   7.688  0.2856 -0.1033 -0.1683
11165SOL    HW134305   6.073   0.164   7.620  0.7172  0.9170  0.0672
11165SOL    HW234306   6.034   0.116   7.758  2.9303  2.5985  1.3581
11166SOL     OW34307   7.255   4.024   4.104 -0.4482 -0.2318 -0.1519
11166SOL    HW134308   7.174   3.982   4.076 -2.1907  2.7454 -0.0877
11166SOL    HW234309   7.258   4.010   4.199 -0.3049 -1.2331 -0.2960
11167SOL     OW34310   5.328   0.413   6.619  0.4215 -0.0024 -0.3138
11167SOL    HW134311   5.375   0.341   6.661  1.2963  0.3796 -0.6003
11167SOL    HW234312   5.376   0.428   6.537 -0.3183  0.2874 -0.7063
11168SOL     OW34313   6.152   3.558   6.780  0.4112  0.0548  0.0010
11168SOL    HW134314   6.183   3.471   6.807 -1.6516 -0.7885 -0.1066
11168SOL    HW234315   6.211   3.583   6.709  1.2514 -1.1110  0.2506
11169SOL     OW34316   0.335   4.819   4.436  0.4743  0.4923  0.3793
11169SOL    HW134317   0.385   4.738   4.447  0.0761  0.1915  0.0202
11169SOL    HW234318   0.339   4.862   4.521  1.6623  0.6600  0.2459
11170SOL     OW34319   1.398   0.764   7.960  0.5241 -0.2233  0.2092
11170SOL    HW134320   1.483   0.750   8.002  0.7683 -0.5004 -0.3773
11170SOL    HW234321   1.419   0.803   7.876  0.2609 -2.5952 -1.0549
11171SOL     OW34322   5.663   0.758   6.475 -0.1253  0.3350  0.0358
11171SOL    HW134323   5.592   0.769   6.538 -0.3033  1.4025 -0.3358
11171SOL    HW234324   5.718   0.835   6.487 -0.5042  0.8810 -1.5351
11172SOL     OW34325   3.321   0.204   4.882 -0.3312  0.2504 -0.2982
11172SOL    HW134326   3.315   0.237   4.792  0.7414  3.2222  0.6252
11172SOL    HW234327   3.231   0.180   4.904 -0.5005 -1.4159 -2.3804
11173SOL     OW34328   1.053   0.211   7.683 -0.8333 -0.4341 -0.2059
11173SOL    HW134329   1.127   0.248   7.731 -1.4745  0.9636 -0.2515
11173SOL    HW234330   1.006   0.159   7.749 -0.5751 -0.2007  0.1681
11174SOL     OW34331   5.654   7.939   5.131 -0.0522  0.1114  0.4711
11174SOL    HW134332   5.693   8.021   5.104  0.4749 -0.6417 -1.1798
11174SOL    HW234333   5.685   7.875   5.067 -1.0034 -1.2393  1.2999
11175SOL     OW34334   4.909   6.515   4.230 -0.7403 -0.4062 -0.2636
11175SOL    HW134335   4.904   6.433   4.279  0.4824  0.0753  0.7376
11175SOL    HW234336   4.986   6.559   4.266 -2.1707  1.8223  0.2209
11176SOL     OW34337   4.835   1.943   4.429  0.4100  0.2273  0.2664
11176SOL    HW134338   4.851   1.913   4.518  0.0204 -0.8977 -0.0352
11176SOL    HW234339   4.741   1.929   4.414  0.4821  0.3299 -0.3441
11177SOL     OW34340   7.413   2.283   3.927  0.0007 -0.8756 -0.4799
11177SOL    HW134341   7.334   2.313   3.972 -0.7145  0.3646 -2.4118
11177SOL    HW234342   7.386   2.205   3.879  0.7074 -2.0726  0.9674
11178SOL     OW34343   7.585   3.574   0.173  0.0978  0.5845  0.2759
11178SOL    HW134344   7.666   3.527   0.157  0.7373  2.0202 -0.9725
11178SOL    HW234345   7.590   3.601   0.265  0.7973  0.2588  0.3360
11179SOL     OW34346   6.038   1.540   7.553 -0.3379 -0.2492 -0.0410
11179SOL    HW134347   5.960   1.591   7.532  0.2564  0.2035 -1.2193
11179SOL    HW234348   6.011   1.483   7.624 -1.3580  0.8598  0.4901
11180SOL     OW34349   1.215   6.175   6.244  0.0843 -0.0564 -0.2222
11180SOL    HW134350   1.205   6.145   6.334  1.2045  1.7821  0.5707
11180SOL    HW234351   1.303   6.211   6.240  0.4243 -0.9726 -2.3473
11181SOL     OW34352   0.904   4.002   0.295 -0.0658 -0.2356  1.1128
11181SOL    HW134353   0.976   4.010   0.357 -0.6392 -0.3082  1.8015
11181SOL    HW234354   0.825   4.006   0.349 -0.5929  0.3048  0.3286
11182SOL     OW34355   7.124   5.642   1.196  0.0188  0.5056  0.1743
11182SOL    HW134356   7.057   5.628   1.263 -0.1383  1.6110  0.2541
11182SOL    HW234357   7.169   5.721   1.223  1.6949 -0.4811  0.3781
11183SOL     OW34358   1.251   3.143   3.639 -0.3947  0.4916  0.4304
11183SOL    HW134359   1.313   3.182   3.578 -0.5677  0.5987  0.3234
11183SOL    HW234360   1.279   3.051   3.645  0.3385  0.7412  1.0948
11184SOL     OW34361   7.923   4.711   7.683 -0.0095 -0.3136 -0.0832
11184SOL    HW134362   7.969   4.627   7.682 -1.2005 -1.0663  1.8920
11184SOL    HW234363   7.984   4.771   7.727  1.4506  0.3458 -2.7674
11185SOL     OW34364   3.310   4.899   3.055 -0.2984  0.1466  0.0654
11185SOL    HW134365   3.272   4.813   3.038  0.0465  0.1025 -0.5020
11185SOL    HW234366   3.236   4.960   3.045 -0.5874 -0.0953  0.6740
11186SOL     OW34367   7.449   2.032   1.431 -0.3696 -0.3216  0.3622
11186SOL    HW134368   7.418   2.101   1.490  0.6665  0.6515 -0.1861
11186SOL    HW234369   7.543   2.048   1.422 -0.2167 -1.4355 -0.2770
11187SOL     OW34370   5.211   5.183   2.792  0.0580  0.3846 -0.1748
11187SOL    HW134371   5.237   5.154   2.705 -0.0600 -1.7263  0.4187
11187SOL    HW234372   5.223   5.105   2.847  0.4128  1.7314  1.7552
11188SOL     OW34373   4.619   0.854   2.718 -0.0102 -0.0166 -0.8072
11188SOL    HW134374   4.547   0.898   2.672 -1.2281  2.1139  2.7050
11188SOL    HW234375   4.584   0.837   2.806  2.3356 -3.2178 -0.3023
11189SOL     OW34376   3.356   7.851   7.297  0.0506  0.1887 -0.2455
11189SOL    HW134377   3.378   7.941   7.320 -0.7369  0.5654 -0.9173
11189SOL    HW234378   3.293   7.824   7.364  2.0026 -0.6897  1.3305
11190SOL     OW34379   7.961   4.496   4.000  0.2053 -0.4704  0.4106
11190SOL    HW134380   8.024   4.516   4.069  1.1050 -1.5020 -0.0920
11190SOL    HW234381   8.014   4.465   3.927 -0.7490  0.3562 -0.6669
11191SOL     OW34382   6.047   2.559   4.263  0.3155  0.0279 -0.0141
11191SOL    HW134383   6.119   2.622   4.269  0.8571 -0.4827 -0.9365
11191SOL    HW234384   6.033   2.547   4.169  0.5779 -1.6222  0.1298
11192SOL     OW34385   3.353   3.875   3.144 -0.1436  0.2393  0.1661
11192SOL    HW134386   3.267   3.906   3.171 -0.5122 -1.2951  0.8325
11192SOL    HW234387   3.338   3.788   3.108  1.2418 -0.4929  1.2551
11193SOL     OW34388   1.252   3.883   0.651  0.5842 -0.2120  0.2713
11193SOL    HW134389   1.215   3.877   0.739 -1.0849 -0.5500 -0.4100
11193SOL    HW234390   1.229   3.800   0.609 -0.3705  0.6849 -1.0896
11194SOL     OW34391   7.173   5.046   4.043  0.2064 -0.4637  0.3215
11194SOL    HW134392   7.099   5.020   4.099 -1.1786  0.1643 -1.1186
11194SOL    HW234393   7.194   5.135   4.072 -0.1361 -0.3560  0.2559
11195SOL     OW34394   1.319   4.881   0.975 -0.2008  0.2013  0.2388
11195SOL    HW134395   1.225   4.868   0.965 -0.2093  0.4443 -0.0144
11195SOL    HW234396   1.346   4.815   1.039 -0.3751 -0.5290 -0.4273
11196SOL     OW34397   7.495   7.131   6.177 -0.6265 -0.0732 -0.6427
11196SOL    HW134398   7.546   7.201   6.136  0.8657 -0.4565  0.4672
11196SOL    HW234399   7.508   7.143   6.271 -2.0139 -0.6521 -0.3436
11197SOL     OW34400   1.677   6.287   7.658  0.2545 -0.3710 -0.1658
11197SOL    HW134401   1.754   6.234   7.680  0.1197  0.2256  1.8938
11197SOL    HW234402   1.714   6.371   7.630  0.3861 -0.6526 -0.8595
11198SOL     OW34403   1.298   2.340   7.760 -0.7145  0.5823  0.2187
11198SOL    HW134404   1.245   2.295   7.826 -0.5566 -1.0443 -0.7159
11198SOL    HW234405   1.244   2.338   7.681  0.5085 -0.6971 -0.6298
11199SOL     OW34406   7.523   3.970   5.102  0.5152 -0.0460 -0.1475
11199SOL    HW134407   7.596   3.930   5.149  0.2406 -1.6239 -0.9982
11199SOL    HW234408   7.522   3.927   5.017  0.9184  2.6378 -1.6062
11200SOL     OW34409   2.214   7.275   4.851 -0.3882  0.1198  0.8205
11200SOL    HW134410   2.293   7.324   4.829 -0.7619  0.6591  0.6521
11200SOL    HW234411   2.200   7.216   4.776 -0.4596  0.4264  0.5916
11201SOL     OW34412   2.156   4.729   4.602  0.1812 -0.7448 -0.5562
11201SOL    HW134413   2.087   4.689   4.548  0.7337 -0.3533 -1.5744
11201SOL    HW234414   2.238   4.696   4.564  0.6453  1.1939 -1.3273
11202SOL     OW34415   3.737   1.152   3.236 -0.0318  0.7626  0.0699
11202SOL    HW134416   3.716   1.162   3.329 -4.1260 -0.6077 -0.5125
11202SOL    HW234417   3.761   1.241   3.208 -0.0453  1.4737  2.1146
11203SOL     OW34418   2.942   3.276   4.121  0.7562 -0.4377  0.2645
11203SOL    HW134419   2.883   3.232   4.059  2.0233  1.0650 -2.1888
11203SOL    HW234420   2.889   3.347   4.157  1.1723  1.5828 -2.7321
11204SOL     OW34421   7.972   0.684   3.236  0.9679  0.2647 -0.6147
11204SOL    HW134422   7.942   0.731   3.314 -1.5559 -1.0611 -0.6680
11204SOL    HW234423   8.039   0.624   3.268  0.1191 -0.1076  0.5067
11205SOL     OW34424   4.141   3.071   4.895  0.4930  0.8236 -0.3694
11205SOL    HW134425   4.093   3.153   4.904  0.6240  0.7595  1.2309
11205SOL    HW234426   4.213   3.090   4.835 -2.0123  0.6745 -3.7325
11206SOL     OW34427   7.167   6.630   7.925 -0.3139 -1.1494  0.1542
11206SOL    HW134428   7.127   6.543   7.918  0.8174 -1.6163 -0.8123
11206SOL    HW234429   7.212   6.629   8.010  1.3978 -2.2947 -0.7066
11207SOL     OW34430   5.880   4.639   6.138  0.5907  0.4498  0.1216
11207SOL    HW134431   5.886   4.629   6.043  0.7826 -1.0495  0.2673
11207SOL    HW234432   5.892   4.550   6.172 -2.2683  0.4545  1.4392
11208SOL     OW34433   7.832   0.657   1.978  0.2775 -0.0983  0.2205
11208SOL    HW134434   7.837   0.588   2.044  0.8221 -0.8844 -0.6056
11208SOL    HW234435   7.904   0.637   1.918 -1.0925 -0.3019 -1.4339
11209SOL     OW34436   7.681   0.125   6.891  0.5348 -0.2759 -0.7971
11209SOL    HW134437   7.708   0.061   6.957 -0.6392  0.1890  0.1744
11209SOL    HW234438   7.728   0.205   6.915  0.1832 -0.1344 -0.5642
11210SOL     OW34439   3.945   6.563   1.396 -0.1550 -0.5138 -0.0527
11210SOL    HW134440   3.954   6.547   1.302  0.4819 -0.5981  0.0150
11210SOL    HW234441   3.891   6.642   1.402  1.7651  0.9245 -0.5766
11211SOL     OW34442   4.594   5.465   2.615  0.0486 -0.6838  0.6604
11211SOL    HW134443   4.645   5.491   2.692  0.0772 -1.3585  0.8757
11211SOL    HW234444   4.650   5.489   2.541 -0.3037  0.6765  0.8010
11212SOL     OW34445   0.911   3.810   7.063 -0.0449 -0.4744 -0.2061
11212SOL    HW134446   0.961   3.739   7.024  0.9571  0.3916 -0.5589
11212SOL    HW234447   0.977   3.872   7.095 -0.8757  0.0911  0.4938
11213SOL     OW34448   1.974   4.061   6.063  0.4108  0.1908 -0.1057
11213SOL    HW134449   1.908   4.121   6.029  0.0318  0.2109  0.6296
11213SOL    HW234450   1.954   4.056   6.157  0.1732 -1.3962 -0.2150
11214SOL     OW34451   0.856   0.362   7.413 -0.0964 -0.3292  0.5603
11214SOL    HW134452   0.848   0.450   7.451 -1.1068  0.1042 -0.5922
11214SOL    HW234453   0.770   0.323   7.425  0.5197 -1.4307  1.6230
11215SOL     OW34454   0.914   0.571   2.474 -0.8489 -0.4708 -0.1932
11215SOL    HW134455   0.909   0.662   2.500 -1.4925 -0.4616 -0.3239
11215SOL    HW234456   0.829   0.534   2.499 -0.4460 -1.1354  0.2315
11216SOL     OW34457   1.877   2.717   1.007 -0.5948 -0.4947  0.0353
11216SOL    HW134458   1.850   2.733   1.098 -0.8871 -2.1798  0.2832
11216SOL    HW234459   1.950   2.777   0.993 -0.6652 -0.0777  1.3254
11217SOL     OW34460   3.606   4.687   0.982 -0.1755  0.3052  0.2217
11217SOL    HW134461   3.575   4.722   1.065  1.1255 -1.1327  1.3702
11217SOL    HW234462   3.547   4.614   0.962  1.0661 -1.0699  1.3207
11218SOL     OW34463   3.873   0.207   3.507 -0.1942  0.4958  0.2903
11218SOL    HW134464   3.844   0.117   3.494 -2.7304  1.5354 -2.2439
11218SOL    HW234465   3.839   0.231   3.593  0.0229 -0.7460  0.7417
11219SOL     OW34466   1.506   4.646   5.506 -0.2996  0.0504  0.1264
11219SOL    HW134467   1.567   4.701   5.555  2.6042 -0.5768 -2.4281
11219SOL    HW234468   1.520   4.670   5.414  0.5027 -4.1625 -1.0980
11220SOL     OW34469   7.373   4.161   3.023 -0.5438  0.2383  0.2351
11220SOL    HW134470   7.467   4.144   3.025 -0.6275 -0.1561  1.8381
11220SOL    HW234471   7.357   4.218   3.097 -1.3576  1.6325 -0.9623
11221SOL     OW34472   3.371   0.606   3.123  0.2661 -0.3187  0.1182
11221SOL    HW134473   3.300   0.587   3.062  1.3668  1.0878 -1.6930
11221SOL    HW234474   3.349   0.555   3.202 -1.9328 -1.0877 -0.9097
11222SOL     OW34475   5.215   1.485   0.807 -0.3561 -0.7211  0.3562
11222SOL    HW134476   5.254   1.501   0.892 -0.8690 -0.9829  0.6485
11222SOL    HW234477   5.261   1.544   0.747  0.5339 -1.0831  0.6675
11223SOL     OW34478   0.017   0.362   6.401  0.4180 -0.1459 -0.0385
11223SOL    HW134479   0.065   0.327   6.327 -1.3500 -0.1756 -1.2367
11223SOL    HW234480   0.018   0.457   6.387  0.7908 -0.0864  0.3697
11224SOL     OW34481   0.981   6.936   1.748 -0.4291 -0.1413 -0.1961
11224SOL    HW134482   0.995   6.920   1.654  0.7489  0.4815 -0.1512
11224SOL    HW234483   0.934   7.019   1.752  0.2542  0.2551 -0.2262
11225SOL     OW34484   0.395   4.666   6.212  0.2401 -0.1653 -0.4102
11225SOL    HW134485   0.341   4.605   6.160  1.8353 -1.1796 -0.9591
11225SOL    HW234486   0.337   4.740   6.230 -1.3686 -1.2605 -0.8525
11226SOL     OW34487   5.962   2.054   7.304  0.3293 -0.0975  0.4322
11226SOL    HW134488   5.883   2.033   7.356 -0.3703  1.1649 -0.0811
11226SOL    HW234489   6.001   1.969   7.285 -1.9478 -0.9387 -0.8807
11227SOL     OW34490   5.516   3.243   3.647 -0.5759 -0.4097  0.0673
11227SOL    HW134491   5.481   3.285   3.726 -0.2323  0.6444 -0.3225
11227SOL    HW234492   5.452   3.175   3.626 -0.9919 -0.2858  0.8945
11228SOL     OW34493   0.550   0.586   2.165  0.3096 -0.1235 -0.0675
11228SOL    HW134494   0.609   0.659   2.149 -2.1050  1.5471 -2.0933
11228SOL    HW234495   0.514   0.565   2.079 -1.8218 -1.2448  1.0230
11229SOL     OW34496   6.037   1.360   3.665  0.3398  0.0530 -0.5542
11229SOL    HW134497   5.948   1.355   3.633  0.0443 -0.9070  0.3324
11229SOL    HW234498   6.040   1.297   3.737  1.0690  1.7672  1.0013
11230SOL     OW34499   5.481   0.562   3.566 -0.4647  0.3452 -0.9418
11230SOL    HW134500   5.575   0.570   3.553 -0.5716  1.5024 -1.0407
11230SOL    HW234501   5.468   0.576   3.660 -0.3470 -1.9168 -0.5151
11231SOL     OW34502   4.706   1.195   6.506 -0.3998  0.2693 -0.0334
11231SOL    HW134503   4.661   1.278   6.524  0.4548  0.9488 -0.9168
11231SOL    HW234504   4.672   1.167   6.421 -1.1053 -0.5953  0.5215
11232SOL     OW34505   6.841   1.861   2.536 -0.2260 -0.3508 -0.2389
11232SOL    HW134506   6.789   1.936   2.506  2.6201  1.2420 -1.5844
11232SOL    HW234507   6.817   1.850   2.628 -2.3991  0.6928 -0.6248
11233SOL     OW34508   3.351   4.249   0.392  0.4313 -0.1946  0.5697
11233SOL    HW134509   3.431   4.282   0.351  0.8573 -0.2672  1.3246
11233SOL    HW234510   3.287   4.243   0.320  1.9239 -2.9402 -0.6964
11234SOL     OW34511   7.320   3.469   5.326 -0.5748 -0.2035  0.3904
11234SOL    HW134512   7.247   3.408   5.313 -0.9250  0.0253  1.2238
11234SOL    HW234513   7.290   3.551   5.288 -0.1430 -0.4938 -0.6389
11235SOL     OW34514   1.346   1.396   4.343  0.1757  0.4796 -0.0415
11235SOL    HW134515   1.274   1.433   4.393  0.2836  0.9750 -0.2455
11235SOL    HW234516   1.413   1.465   4.342 -0.4258  1.1025 -2.1697
11236SOL     OW34517   7.787   2.971   7.156 -0.1064 -0.0220 -0.5006
11236SOL    HW134518   7.879   2.954   7.139  0.2005  0.8521  0.2433
11236SOL    HW234519   7.772   3.060   7.125 -0.4790  0.1576  0.1618
11237SOL     OW34520   5.443   0.373   2.031 -0.4314 -0.4363  0.2747
11237SOL    HW134521   5.462   0.460   1.996 -0.3339 -0.8362 -0.6849
11237SOL    HW234522   5.439   0.387   2.126  3.2227 -0.0138  0.5221
11238SOL     OW34523   0.747   2.468   1.954 -0.4780  0.4452  0.5963
11238SOL    HW134524   0.724   2.382   1.987 -1.0859  0.5355  0.4168
11238SOL    HW234525   0.807   2.451   1.882 -0.9262  0.1492  0.2898
11239SOL     OW34526   7.303   0.042   6.025  0.0906  0.0523 -0.0974
11239SOL    HW134527   7.391   0.081   6.033  0.2304 -0.3508  0.3751
11239SOL    HW234528   7.311  -0.044   6.066 -0.3439 -0.2789 -0.7026
11240SOL     OW34529   6.402   0.163   7.321 -0.7543  0.1284  0.2345
11240SOL    HW134530   6.377   0.189   7.232  0.0744  2.2659  0.5642
11240SOL    HW234531   6.489   0.202   7.334  0.4097 -2.4819  1.0367
11241SOL     OW34532   4.592   1.755   7.508  0.1116 -0.1986 -0.9026
11241SOL    HW134533   4.504   1.766   7.544 -0.0040 -0.2068 -1.1774
11241SOL    HW234534   4.651   1.780   7.579 -0.0578 -2.3181  0.0380
11242SOL     OW34535   6.712   5.575   7.322 -0.3937  0.2312 -0.0130
11242SOL    HW134536   6.775   5.505   7.338 -0.5988  0.5149  2.5499
11242SOL    HW234537   6.752   5.629   7.254  1.2594 -0.5957  0.2631
11243SOL     OW34538   3.335   0.877   5.310  0.2858 -0.2317 -0.0644
11243SOL    HW134539   3.310   0.830   5.231  0.5435 -1.0329  0.3256
11243SOL    HW234540   3.429   0.895   5.298  0.3274 -0.3633  0.0631
11244SOL     OW34541   7.175   7.775   3.231 -0.2865 -0.1501 -0.3181
11244SOL    HW134542   7.161   7.853   3.177 -1.3609  1.4853  2.1506
11244SOL    HW234543   7.089   7.758   3.271  0.4599 -1.2794  0.8846
11245SOL     OW34544   7.108   7.025   1.247 -0.7394  0.2801  0.3573
11245SOL    HW134545   7.143   6.969   1.317 -0.6988 -1.7241 -1.1740
11245SOL    HW234546   7.161   7.104   1.251 -0.2395 -0.0824  2.0996
11246SOL     OW34547   7.139   2.174   2.581 -0.9006  0.2405  0.5404
11246SOL    HW134548   7.053   2.211   2.600 -0.2669  1.8041  0.5643
11246SOL    HW234549   7.200   2.238   2.618  0.2827 -1.3775  1.5203
11247SOL     OW34550   2.430   2.760   2.330  0.0800 -0.4973  0.4638
11247SOL    HW134551   2.519   2.728   2.315 -0.0896 -1.0702  0.6725
11247SOL    HW234552   2.413   2.744   2.423  0.0749  0.4200  0.6366
11248SOL     OW34553   4.814   0.800   3.839 -0.3975  0.4282  0.2475
11248SOL    HW134554   4.779   0.730   3.784 -2.7911  2.0679 -0.4774
11248SOL    HW234555   4.749   0.809   3.909 -0.7360  2.5700 -0.2823
11249SOL     OW34556   2.871   3.007   3.142 -0.0004  0.1469  0.0919
11249SOL    HW134557   2.907   3.044   3.223 -0.9682  0.5187  0.3721
11249SOL    HW234558   2.783   3.043   3.137 -0.8719 -1.7986  0.1834
11250SOL     OW34559   5.698   6.461   6.169  0.8015 -0.2009 -0.4740
11250SOL    HW134560   5.753   6.518   6.115 -1.5633  0.7996 -2.0042
11250SOL    HW234561   5.663   6.396   6.107 -0.4217 -0.2527  0.2484
11251SOL     OW34562   1.328   5.285   7.196 -0.7386 -0.3575 -0.3469
11251SOL    HW134563   1.291   5.372   7.207 -1.4183 -0.6687 -0.1155
11251SOL    HW234564   1.413   5.289   7.240  0.6131  1.0376 -2.8607
11252SOL     OW34565   7.005   4.628   1.043  0.9361 -0.0477  0.3815
11252SOL    HW134566   7.079   4.622   0.983  0.5913  0.7874 -0.1505
11252SOL    HW234567   6.935   4.668   0.991  0.4578  0.1787  1.1776
11253SOL     OW34568   7.795   6.902   6.519  0.0548  0.4133  0.6547
11253SOL    HW134569   7.758   6.867   6.600 -0.6948 -0.1537  0.0816
11253SOL    HW234570   7.871   6.847   6.501 -0.7767 -0.5642  0.0720
11254SOL     OW34571   6.103   4.931   5.103  0.1753  0.1214 -0.4022
11254SOL    HW134572   6.091   4.910   5.196  0.1220  1.6073 -0.0391
11254SOL    HW234573   6.102   4.846   5.059  2.3106 -0.8198  1.1682
11255SOL     OW34574   4.427   2.827   4.598 -0.0421  0.3753 -0.0204
11255SOL    HW134575   4.518   2.814   4.570 -0.4904  0.4478 -1.5819
11255SOL    HW234576   4.409   2.754   4.657  1.4085  1.0482  1.3319
11256SOL     OW34577   5.051   3.198   3.274  0.2117 -0.1415 -0.4590
11256SOL    HW134578   4.974   3.144   3.293 -0.3303  1.0713  0.8786
11256SOL    HW234579   5.061   3.192   3.179 -0.6611 -1.4668 -0.4923
11257SOL     OW34580   2.914   7.220   5.682 -0.4516 -0.2631  0.4732
11257SOL    HW134581   2.851   7.151   5.703  0.1326 -0.7789  0.5273
11257SOL    HW234582   2.985   7.176   5.637 -0.6465  0.5002 -0.6274
11258SOL     OW34583   1.977   0.310   1.087  0.2986  0.1280  0.2443
11258SOL    HW134584   1.981   0.399   1.054  0.3388  0.2200  0.4958
11258SOL    HW234585   1.974   0.319   1.183  0.0127 -0.1276  0.2651
11259SOL     OW34586   2.718   5.877   1.086  0.5268  0.5017  0.8178
11259SOL    HW134587   2.732   5.782   1.077  0.4614  0.5780 -0.2747
11259SOL    HW234588   2.662   5.886   1.162 -0.9702 -0.4870 -0.1110
11260SOL     OW34589   6.170   6.631   7.798  0.0484 -0.1086 -0.1373
11260SOL    HW134590   6.188   6.642   7.891 -0.0929 -1.6273  0.0890
11260SOL    HW234591   6.123   6.548   7.792 -0.6379  0.3481 -1.4835
11261SOL     OW34592   7.420   6.660   1.101  0.2990 -0.1326 -0.1083
11261SOL    HW134593   7.436   6.571   1.133  0.6889 -0.2901 -0.7199
11261SOL    HW234594   7.440   6.655   1.007 -1.4216  0.1385 -0.5273
11262SOL     OW34595   7.500   7.153   4.049  0.3002  0.1545  0.4228
11262SOL    HW134596   7.464   7.139   3.962 -0.3252 -1.7567  0.9542
11262SOL    HW234597   7.589   7.118   4.045  0.4236  0.4592  0.4460
11263SOL     OW34598   4.080   3.827   2.760 -0.0934 -0.2571  0.3136
11263SOL    HW134599   4.056   3.905   2.810 -1.7352 -0.3471 -0.2645
11263SOL    HW234600   4.070   3.755   2.822 -1.9130 -0.3447 -0.0320
11264SOL     OW34601   2.883   4.500   3.555  0.0075 -0.5002  0.3562
11264SOL    HW134602   2.811   4.449   3.517  0.5257 -1.0593  0.1176
11264SOL    HW234603   2.940   4.521   3.482  0.3218 -0.4467  0.6131
11265SOL     OW34604   1.225   6.667   1.381  0.0273 -0.2940 -0.0453
11265SOL    HW134605   1.143   6.706   1.411  0.3082  0.5678 -0.3620
11265SOL    HW234606   1.289   6.737   1.388  0.6423 -0.8235 -0.2391
11266SOL     OW34607   1.743   0.985   0.396  0.0553 -0.0966 -0.1820
11266SOL    HW134608   1.826   1.032   0.390 -0.3352  0.4820 -1.6696
11266SOL    HW234609   1.678   1.054   0.411 -0.1015 -0.6193  1.7449
11267SOL     OW34610   7.095   7.425   6.735  0.0373  0.5186  0.0494
11267SOL    HW134611   7.189   7.439   6.726  0.5080 -0.6923  2.3590
11267SOL    HW234612   7.081   7.415   6.829 -2.5144  1.2641 -0.1828
11268SOL     OW34613   4.183   0.129   2.612 -0.4189 -0.0510 -0.2197
11268SOL    HW134614   4.255   0.185   2.641 -1.5347  1.0093  0.5488
11268SOL    HW234615   4.128   0.118   2.689 -1.8202  0.2911 -1.1301
11269SOL     OW34616   4.956   6.304   5.065 -0.4426  0.6262 -0.6092
11269SOL    HW134617   4.971   6.359   4.988  0.0317  0.3942 -0.6791
11269SOL    HW234618   4.987   6.357   5.139  2.0911 -0.3818 -0.8682
11270SOL     OW34619   0.824   6.019   3.775 -0.4027 -0.0192  0.0730
11270SOL    HW134620   0.908   6.046   3.738 -1.6581 -0.2607 -3.2837
11270SOL    HW234621   0.773   6.100   3.780 -0.3354 -0.0310  1.1451
11271SOL     OW34622   1.530   5.135   6.181 -0.4908 -0.0645 -0.1473
11271SOL    HW134623   1.572   5.209   6.226 -0.6147  0.0972 -0.2971
11271SOL    HW234624   1.451   5.172   6.142 -0.7285 -0.3530  0.0582
11272SOL     OW34625   3.582   7.663   1.022 -0.4684 -0.5155  0.0162
11272SOL    HW134626   3.604   7.754   1.045 -1.5173 -0.0545 -0.7598
11272SOL    HW234627   3.638   7.643   0.947 -0.0291 -0.6298  0.3625
11273SOL     OW34628   3.166   0.394   5.837  0.1716  0.5523 -0.2979
11273SOL    HW134629   3.115   0.393   5.756  0.8140  0.0681 -0.7074
11273SOL    HW234630   3.133   0.320   5.887  0.2721  0.4124 -0.4375
11274SOL     OW34631   0.885   0.941   3.375  0.6370  0.3302 -0.1472
11274SOL    HW134632   0.857   0.863   3.422  0.9399  1.0207  1.2499
11274SOL    HW234633   0.966   0.916   3.331  0.3917 -0.3117 -0.2432
11275SOL     OW34634   6.136   5.081   3.499  0.3324 -0.0124  0.9567
11275SOL    HW134635   6.199   5.085   3.571 -0.5613 -0.4201  1.7822
11275SOL    HW234636   6.126   4.988   3.481  0.1286  0.0611  0.6943
11276SOL     OW34637   0.052   4.949   1.578  0.0977 -0.2091  0.5235
11276SOL    HW134638   0.004   4.866   1.578 -0.6050  0.0790 -2.3357
11276SOL    HW234639  -0.016   5.016   1.574  0.6737  0.3484 -0.2643
11277SOL     OW34640   4.407   4.909   3.891 -0.7663  0.4238 -0.0734
11277SOL    HW134641   4.387   4.836   3.950 -1.7637  0.7680  0.0324
11277SOL    HW234642   4.356   4.891   3.812  1.7652 -0.8678 -1.5349
11278SOL     OW34643   5.106   0.218   7.482  0.0656 -0.1791 -0.2813
11278SOL    HW134644   5.164   0.142   7.497 -0.6602 -0.8529 -0.8479
11278SOL    HW234645   5.077   0.209   7.392 -0.9939  0.1122  0.0213
11279SOL     OW34646   5.023   5.943   5.958  0.3587 -0.1778 -0.0454
11279SOL    HW134647   5.112   5.956   5.991  1.2880  0.7030 -2.6571
11279SOL    HW234648   4.974   6.018   5.991  1.6581  1.5522 -1.8264
11280SOL     OW34649   3.104   7.500   5.638 -0.3657 -0.1239 -0.2972
11280SOL    HW134650   3.024   7.472   5.682  0.2056 -3.0399 -0.9320
11280SOL    HW234651   3.076   7.529   5.551 -0.7025 -1.7229 -0.7392
11281SOL     OW34652   6.164   2.275   7.325  0.0938  0.2682  0.0127
11281SOL    HW134653   6.149   2.346   7.388 -1.5641  0.8378 -0.9600
11281SOL    HW234654   6.107   2.204   7.354  0.7113 -0.1654  0.1899
11282SOL     OW34655   5.746   7.554   4.594 -0.2012  0.0617 -0.3589
11282SOL    HW134656   5.709   7.524   4.511  0.0823 -0.0896 -0.4321
11282SOL    HW234657   5.669   7.576   4.648 -0.3651  0.9813 -0.9563
11283SOL     OW34658   3.855   0.267   6.995  0.2131  0.2257  0.6520
11283SOL    HW134659   3.943   0.268   7.032  0.5031 -1.2429  0.0996
11283SOL    HW234660   3.865   0.305   6.908  0.7757 -1.8833 -0.2621
11284SOL     OW34661   7.941   4.202   6.587  0.1358 -0.5487 -0.1077
11284SOL    HW134662   7.937   4.211   6.492 -3.5964 -1.4982 -0.2318
11284SOL    HW234663   7.971   4.112   6.601  1.9127 -0.0154 -0.2711
11285SOL     OW34664   0.103   4.505   6.847 -1.0417 -0.1728 -0.1635
11285SOL    HW134665   0.061   4.506   6.761 -1.9793 -0.0631  0.2858
11285SOL    HW234666   0.031   4.496   6.909 -0.2814 -1.8604  0.5495
11286SOL     OW34667   7.977   6.077   7.988  0.0703 -0.5477 -0.0278
11286SOL    HW134668   7.922   6.052   7.913 -0.2824  3.5180 -1.3907
11286SOL    HW234669   7.915   6.111   8.052  0.6792  2.3034 -0.8041
11287SOL     OW34670   6.260   1.905   1.332 -0.2179  0.1240  1.0873
11287SOL    HW134671   6.330   1.929   1.392  0.7259 -0.2730  0.1782
11287SOL    HW234672   6.288   1.822   1.294 -1.8301 -0.7642  1.6940
11288SOL     OW34673   4.234   4.649   2.507  0.3068 -1.1513 -0.0892
11288SOL    HW134674   4.277   4.680   2.427 -1.7605 -1.0508 -1.2475
11288SOL    HW234675   4.243   4.554   2.503  0.5052 -1.1264 -0.2610
11289SOL     OW34676   5.891   7.797   6.472  0.3456  0.5892 -0.4466
11289SOL    HW134677   5.913   7.744   6.395 -1.4119 -2.0061  0.6963
11289SOL    HW234678   5.954   7.771   6.539  0.7887  1.5643 -0.4618
11290SOL     OW34679   3.982   4.836   6.864  0.3070  0.0336 -0.4621
11290SOL    HW134680   3.991   4.921   6.908 -0.1299  0.1420 -0.5846
11290SOL    HW234681   3.901   4.843   6.814  1.1598  0.1694 -1.8721
11291SOL     OW34682   5.680   3.209   2.403 -0.2475 -0.0250 -0.1074
11291SOL    HW134683   5.651   3.244   2.488 -0.4783  0.0850 -0.2300
11291SOL    HW234684   5.747   3.271   2.374 -0.2981  0.0387 -0.0898
11292SOL     OW34685   4.864   7.242   3.767 -0.8129  0.3623 -0.0669
11292SOL    HW134686   4.909   7.203   3.842  0.3778  1.0559 -0.3778
11292SOL    HW234687   4.793   7.293   3.805 -1.9784 -1.5331  0.3795
11293SOL     OW34688   6.895   6.769   7.166 -0.0332  0.3838 -0.1557
11293SOL    HW134689   6.896   6.852   7.118 -1.8807  0.2125 -0.5828
11293SOL    HW234690   6.858   6.706   7.105 -1.9639  0.0495  1.2517
11294SOL     OW34691   4.487   2.755   4.221  0.5021 -0.3947 -0.0337
11294SOL    HW134692   4.405   2.707   4.229  1.8925 -3.5032 -2.2254
11294SOL    HW234693   4.468   2.825   4.158 -0.8386  0.0016  0.7830
11295SOL     OW34694   3.695   1.396   5.674 -0.0882  0.2689 -0.1120
11295SOL    HW134695   3.665   1.468   5.730 -0.0353  0.3786 -0.2249
11295SOL    HW234696   3.698   1.434   5.586  1.7877  0.6954  0.0989
11296SOL     OW34697   1.403   4.123   3.478  0.0486 -0.1554 -0.1158
11296SOL    HW134698   1.484   4.075   3.462  0.5557  0.7513 -0.2678
11296SOL    HW234699   1.430   4.213   3.493 -0.9960  0.3054 -0.8995
11297SOL     OW34700   4.455   1.311   0.253 -0.2287  0.0129  0.2573
11297SOL    HW134701   4.434   1.379   0.317  0.0848 -0.9447  1.4153
11297SOL    HW234702   4.404   1.235   0.281  1.6136 -1.1100  0.7381
11298SOL     OW34703   3.621   2.007   6.639 -0.7247  0.0983 -0.5597
11298SOL    HW134704   3.630   1.916   6.611 -0.8423  0.1799 -0.8669
11298SOL    HW234705   3.624   2.058   6.558 -2.5253  0.2359 -0.5752
11299SOL     OW34706   1.741   6.418   6.343  0.1175 -0.0573 -0.2491
11299SOL    HW134707   1.744   6.465   6.260 -0.1497 -0.9975 -0.8174
11299SOL    HW234708   1.660   6.448   6.385 -1.4879 -1.8869 -1.8089
11300SOL     OW34709   6.938   6.255   4.281  0.2364 -0.3642  0.3840
11300SOL    HW134710   6.853   6.299   4.292  0.4762  0.8165 -1.9879
11300SOL    HW234711   7.002   6.325   4.291  0.8556 -0.9275  0.3789
11301SOL     OW34712   1.277   6.171   2.552 -0.6546  0.1094  0.5689
11301SOL    HW134713   1.200   6.227   2.552 -1.2028 -0.5931  1.8498
11301SOL    HW234714   1.350   6.231   2.565 -1.1531  0.6225  1.0552
11302SOL     OW34715   2.703   3.056   6.818  0.4002  0.3855 -0.5102
11302SOL    HW134716   2.779   3.088   6.867  0.8033 -1.1111 -0.0947
11302SOL    HW234717   2.738   3.036   6.731  0.7917 -1.3672  0.0064
11303SOL     OW34718   6.183   0.463   2.540 -0.1643  0.3074  0.4942
11303SOL    HW134719   6.200   0.374   2.569  0.1722  0.5521  1.0804
11303SOL    HW234720   6.114   0.455   2.475  1.4946 -0.6416 -1.2579
11304SOL     OW34721   3.324   4.938   2.669 -0.1162 -0.2201  0.0692
11304SOL    HW134722   3.329   4.922   2.575  1.0378 -1.8389  0.3740
11304SOL    HW234723   3.243   4.989   2.681 -0.5238 -0.4025 -1.7219
11305SOL     OW34724   2.969   7.553   3.813 -0.1512 -0.0146 -0.0522
11305SOL    HW134725   2.897   7.490   3.819  0.2911 -0.5529 -0.3999
11305SOL    HW234726   2.935   7.622   3.755 -0.6016  0.0354  0.2601
11306SOL     OW34727   2.347   7.846   5.631  0.0555 -0.0201 -0.3940
11306SOL    HW134728   2.305   7.904   5.568  0.0609 -1.3503 -1.6860
11306SOL    HW234729   2.293   7.767   5.631  1.6312 -1.1442 -0.8883
11307SOL     OW34730   6.009   4.687   3.519 -0.2231 -0.3009 -0.0714
11307SOL    HW134731   6.030   4.744   3.445  0.3563 -0.5660 -0.1133
11307SOL    HW234732   5.913   4.687   3.522 -0.2497 -0.1671 -0.7248
11308SOL     OW34733   7.402   2.828   5.134  0.4763 -0.4192  0.5746
11308SOL    HW134734   7.320   2.868   5.105  1.3135  1.4368  0.6482
11308SOL    HW234735   7.378   2.777   5.211 -0.4699  0.8570  1.1596
11309SOL     OW34736   3.268   6.146   1.627  0.0307  0.1453  0.3341
11309SOL    HW134737   3.271   6.186   1.541 -0.6206 -0.0037  0.2345
11309SOL    HW234738   3.344   6.182   1.673 -0.5731  1.5901  0.2867
11310SOL     OW34739   3.904   4.507   7.984  0.2153  0.0469  0.2831
11310SOL    HW134740   3.996   4.480   7.975  0.0534 -0.5726  0.3893
11310SOL    HW234741   3.907   4.583   8.041  0.8488  1.3599 -1.4269
11311SOL     OW34742   3.419   2.152   7.034 -0.0048 -0.0119 -0.4197
11311SOL    HW134743   3.476   2.179   6.963  0.2737  0.5383  0.0122
11311SOL    HW234744   3.438   2.058   7.045 -0.7850 -0.3470 -1.7344
11312SOL     OW34745   7.092   4.555   5.274 -0.5064 -0.0804 -0.7614
11312SOL    HW134746   7.090   4.614   5.199  0.4432  0.2399 -0.5531
11312SOL    HW234747   7.087   4.468   5.236  1.5121  0.0056 -1.3456
11313SOL     OW34748   5.296   2.178   6.430  0.0932 -0.6851 -0.8021
11313SOL    HW134749   5.275   2.231   6.353  1.1771  0.3504 -0.4168
11313SOL    HW234750   5.268   2.090   6.406  0.2809 -0.3620 -2.3420
11314SOL     OW34751   6.060   2.867   1.407 -0.0731  0.3761  0.0945
11314SOL    HW134752   5.964   2.869   1.406 -0.1380 -1.2925 -0.3351
11314SOL    HW234753   6.082   2.787   1.455  1.0004 -1.1521 -2.6916
11315SOL     OW34754   7.179   2.482   5.309 -0.3578  0.2402  0.3468
11315SOL    HW134755   7.104   2.465   5.365  0.1003 -0.5494  0.7554
11315SOL    HW234756   7.143   2.518   5.228 -1.0810  0.7718  0.9043
11316SOL     OW34757   6.298   1.512   4.503  0.5222  0.3364 -0.1606
11316SOL    HW134758   6.202   1.515   4.509  0.4023  1.2633 -2.0399
11316SOL    HW234759   6.316   1.488   4.412  2.0985 -1.5911  0.5938
11317SOL     OW34760   2.585   7.009   3.202  0.6661  0.3203  0.7962
11317SOL    HW134761   2.612   7.050   3.120 -0.5217  2.0670  1.2400
11317SOL    HW234762   2.658   7.025   3.262  1.7618 -1.3947  0.0139
11318SOL     OW34763   2.162   4.986   4.469 -0.1395 -0.9019  0.3416
11318SOL    HW134764   2.226   5.048   4.504 -0.7246 -0.5462  0.8065
11318SOL    HW234765   2.178   4.905   4.518  0.6904 -1.1572 -0.3347
11319SOL     OW34766   6.608   1.083   6.282 -0.2082 -0.0920 -0.6140
11319SOL    HW134767   6.651   1.007   6.244  2.3707 -0.0319  1.8281
11319SOL    HW234768   6.641   1.157   6.231 -0.1893 -0.3417 -0.9660
11320SOL     OW34769   5.954   1.096   2.988 -0.3440 -0.5848 -0.7386
11320SOL    HW134770   5.966   1.191   2.982  0.4225 -0.5636  0.8320
11320SOL    HW234771   5.864   1.082   2.958 -2.0671  1.1886  2.9744
11321SOL     OW34772   4.175   1.307   3.260 -0.5066 -0.4778  0.2468
11321SOL    HW134773   4.189   1.319   3.353 -0.6197 -0.3120  0.2424
11321SOL    HW234774   4.134   1.388   3.231 -0.7419 -0.6436  0.1096
11322SOL     OW34775   2.020   1.949   5.827  0.5883  0.1896 -0.2476
11322SOL    HW134776   2.053   2.027   5.872  0.3793  0.6537 -0.8913
11322SOL    HW234777   1.999   1.979   5.739 -0.6122 -0.3277 -0.1530
11323SOL     OW34778   0.378   5.980   2.311 -0.4463 -0.5135 -0.2731
11323SOL    HW134779   0.357   5.990   2.218 -0.7621 -0.1532 -0.1605
11323SOL    HW234780   0.364   6.067   2.349  0.1948 -0.5265  0.0110
11324SOL     OW34781   7.211   0.747   4.589 -0.1196  0.3766  0.2608
11324SOL    HW134782   7.173   0.669   4.549  1.2208  0.1212 -0.5367
11324SOL    HW234783   7.243   0.800   4.516  1.0000  0.6173  0.8979
11325SOL     OW34784   6.296   7.789   6.550  0.1902 -0.7401  0.3025
11325SOL    HW134785   6.213   7.759   6.588  0.5413 -0.7018  1.1279
11325SOL    HW234786   6.339   7.837   6.622  1.5311 -1.9240  0.3331
11326SOL     OW34787   5.980   5.406   2.819 -0.2432 -0.1651 -0.2192
11326SOL    HW134788   5.908   5.438   2.765  0.4434  0.5089 -0.7638
11326SOL    HW234789   6.032   5.484   2.838  0.5355 -0.6890 -0.1421
11327SOL     OW34790   1.227   3.813   3.087  0.1951 -0.1278 -0.5450
11327SOL    HW134791   1.273   3.849   3.162  0.1424  1.7786 -1.3785
11327SOL    HW234792   1.136   3.840   3.099  0.2052  0.2805 -1.3308
11328SOL     OW34793   7.322   6.235   6.127 -0.1082  0.2401  0.1945
11328SOL    HW134794   7.285   6.156   6.167 -1.2480  0.5755 -0.1453
11328SOL    HW234795   7.247   6.278   6.085  1.0858 -0.5702 -3.1507
11329SOL     OW34796   2.710   1.459   0.313  0.1174  0.2057  0.3204
11329SOL    HW134797   2.629   1.408   0.299 -0.1139  0.6698 -0.0695
11329SOL    HW234798   2.729   1.497   0.227  1.7946 -1.3841 -0.0804
11330SOL     OW34799   5.766   2.956   4.230  0.3185 -0.0687  0.0022
11330SOL    HW134800   5.692   2.952   4.169 -1.3981 -1.7740  2.0125
11330SOL    HW234801   5.786   2.865   4.249  1.8719  0.4059  0.7751
11331SOL     OW34802   0.123   0.507   6.061 -0.0717 -0.1766 -0.0371
11331SOL    HW134803   0.199   0.539   6.012 -0.3152 -0.6382 -0.7139
11331SOL    HW234804   0.058   0.577   6.052 -0.2608 -0.4384 -0.7102
11332SOL     OW34805   1.032   2.757   6.583  0.1986  0.1287  0.2005
11332SOL    HW134806   0.937   2.761   6.569  0.4150 -0.6311 -1.6999
11332SOL    HW234807   1.069   2.807   6.511  1.2866 -0.1633  0.5405
11333SOL     OW34808   2.999   5.333   6.449 -0.3377 -0.3280 -0.0688
11333SOL    HW134809   3.004   5.330   6.544 -0.3504 -1.5078 -0.0917
11333SOL    HW234810   2.941   5.407   6.430  1.5678  1.4652  0.7321
11334SOL     OW34811   0.254   3.308   5.697 -0.2072 -0.1300 -0.0656
11334SOL    HW134812   0.165   3.323   5.664  0.2188  0.4762 -0.9668
11334SOL    HW234813   0.293   3.396   5.702 -0.0199 -0.2616  1.4228
11335SOL     OW34814   3.201   4.844   5.082 -0.0779  0.2374 -0.8195
11335SOL    HW134815   3.205   4.934   5.115  1.0672  0.0683 -0.4464
11335SOL    HW234816   3.129   4.844   5.019  0.9732  1.8294 -2.0744
11336SOL     OW34817   3.399   1.712   1.420 -0.3807 -0.3370  0.4433
11336SOL    HW134818   3.469   1.776   1.433 -0.2664 -0.7528  2.0829
11336SOL    HW234819   3.348   1.715   1.501 -2.0047 -0.3797 -0.5219
11337SOL     OW34820   1.177   1.146   6.239  0.0922  0.0193 -0.0632
11337SOL    HW134821   1.226   1.212   6.189 -2.1574  0.9706 -1.1350
11337SOL    HW234822   1.168   1.185   6.326 -0.7212  0.9184 -0.5252
11338SOL     OW34823   1.489   1.291   1.071 -0.2892 -0.8916  0.2969
11338SOL    HW134824   1.408   1.303   1.020  1.2576  1.1593 -1.8986
11338SOL    HW234825   1.497   1.372   1.121  1.0125 -0.4945 -0.5111
11339SOL     OW34826   3.115   1.621   4.079 -0.8099  0.2201  0.1147
11339SOL    HW134827   3.152   1.533   4.067  0.1341  0.3847  1.6159
11339SOL    HW234828   3.037   1.607   4.133 -1.4726  0.1842 -0.8098
11340SOL     OW34829   2.225   6.329   5.504 -0.1864  0.7565  0.3057
11340SOL    HW134830   2.139   6.303   5.537 -0.6311  1.4031 -0.3071
11340SOL    HW234831   2.251   6.402   5.560  0.2447  0.1818  0.8715
11341SOL     OW34832   4.665   2.032   1.621  0.3474  0.0081  0.1026
11341SOL    HW134833   4.595   2.081   1.577 -0.8255 -0.7101  1.1310
11341SOL    HW234834   4.700   2.093   1.685 -0.8357 -0.3300  1.0997
11342SOL     OW34835   1.958   3.410   1.179 -0.6804  0.2268 -0.2743
11342SOL    HW134836   1.877   3.369   1.152 -0.7886  0.5789 -0.5021
11342SOL    HW234837   1.935   3.503   1.191 -0.5267  0.1579  0.5797
11343SOL     OW34838   7.654   5.969   5.668  0.9237 -0.2732  0.0139
11343SOL    HW134839   7.680   5.932   5.753  0.3089  1.3886  0.9794
11343SOL    HW234840   7.652   6.063   5.683 -2.0796 -0.0764 -1.0026
11344SOL     OW34841   5.486   0.724   2.312  0.0185 -0.1331  0.1310
11344SOL    HW134842   5.552   0.774   2.263 -0.5419  0.9351  0.4355
11344SOL    HW234843   5.404   0.772   2.299 -0.5146 -0.9048  0.5468
11345SOL     OW34844   7.544   4.266   4.314  0.0276 -0.1629  1.1192
11345SOL    HW134845   7.534   4.282   4.221  1.4379 -0.4873  0.8973
11345SOL    HW234846   7.615   4.324   4.342 -0.7619  0.3668  2.1251
11346SOL     OW34847   1.456   3.210   5.786  0.2901  0.3317  0.2217
11346SOL    HW134848   1.470   3.139   5.849 -1.3390 -0.1952  0.0210
11346SOL    HW234849   1.478   3.172   5.701  0.9497  0.5687  0.2764
11347SOL     OW34850   7.933   3.088   1.585  0.0010  0.5673  0.1671
11347SOL    HW134851   8.000   3.154   1.566 -0.2269  0.2726 -1.9460
11347SOL    HW234852   7.850   3.133   1.566 -0.2844  0.3155  0.7951
11348SOL     OW34853   4.693   6.373   4.926  0.0929  0.2333 -0.0503
11348SOL    HW134854   4.689   6.312   4.852 -0.4579 -0.2232  0.3449
11348SOL    HW234855   4.773   6.348   4.973  1.6702  1.9630 -1.6885
11349SOL     OW34856   1.199   2.688   7.159 -0.0166 -0.0286 -0.0840
11349SOL    HW134857   1.220   2.707   7.251 -0.5382  0.4110 -0.0550
11349SOL    HW234858   1.284   2.664   7.120  0.3457  0.5892  0.3099
11350SOL     OW34859   1.387   3.645   1.366  0.0320  0.7988  0.0732
11350SOL    HW134860   1.430   3.593   1.433 -1.4256 -0.3486  0.1583
11350SOL    HW234861   1.459   3.685   1.316  1.1662 -0.5422  0.5911
11351SOL     OW34862   2.273   5.717   1.040  0.3381 -1.0065  0.1662
11351SOL    HW134863   2.204   5.783   1.032  0.5128 -0.7236  0.9487
11351SOL    HW234864   2.237   5.639   0.998 -0.1844 -0.6529 -0.0473
11352SOL     OW34865   1.510   2.974   7.712  0.5003  0.0734  0.2140
11352SOL    HW134866   1.461   3.051   7.741  0.0372 -0.5853  1.2180
11352SOL    HW234867   1.462   2.941   7.636 -1.3050 -1.2032  1.8178
11353SOL     OW34868   6.030   3.232   6.062 -0.5852  0.0263 -0.0920
11353SOL    HW134869   6.017   3.218   5.968  1.5267 -1.6553 -0.2212
11353SOL    HW234870   6.066   3.321   6.068  1.0038 -0.5063 -1.1103
11354SOL     OW34871   0.019   3.588   7.852  0.7821  0.2082 -0.1429
11354SOL    HW134872   0.016   3.681   7.874  0.6129  0.3854 -0.8798
11354SOL    HW234873   0.095   3.554   7.900  1.0500  0.7964 -0.1432
11355SOL     OW34874   5.512   1.908   1.841 -0.1029  0.4888  0.0569
11355SOL    HW134875   5.458   1.844   1.796  0.7414 -0.3869  0.2508
11355SOL    HW234876   5.456   1.943   1.910 -0.5137 -0.2014  0.0809
11356SOL     OW34877   7.001   1.408   4.965  0.4299 -0.2579  0.3943
11356SOL    HW134878   6.937   1.445   4.904 -0.6575 -0.1012  1.6007
11356SOL    HW234879   7.042   1.484   5.006  0.5650 -0.3708  0.4682
11357SOL     OW34880   7.030   7.733   0.930 -0.3545  0.2301  0.9310
11357SOL    HW134881   7.033   7.677   1.008  0.2756 -1.0709  0.0033
11357SOL    HW234882   6.941   7.769   0.930 -0.7504 -0.7103  1.6024
11358SOL     OW34883   1.100   2.126   1.392 -0.8239 -0.2783 -0.1904
11358SOL    HW134884   1.122   2.099   1.303 -1.7353 -1.1880 -0.1573
11358SOL    HW234885   1.180   2.165   1.427 -0.2752 -0.5101 -1.1819
11359SOL     OW34886   4.520   5.574   0.416  1.3710 -0.0273 -0.2508
11359SOL    HW134887   4.510   5.482   0.441 -1.0172  0.2790  0.2015
11359SOL    HW234888   4.471   5.582   0.334  0.4302  1.0763  0.3842
11360SOL     OW34889   2.273   4.486   5.139 -0.5078 -0.1323 -0.1755
11360SOL    HW134890   2.216   4.415   5.167 -0.0012 -0.4798 -0.0215
11360SOL    HW234891   2.284   4.541   5.216 -2.2549  1.0609 -0.7116
11361SOL     OW34892   3.148   1.404   4.460  0.2780  0.5463  0.0286
11361SOL    HW134893   3.171   1.484   4.413 -0.3739 -0.7249 -2.6540
11361SOL    HW234894   3.054   1.411   4.475 -0.4154 -0.8436 -2.8702
11362SOL     OW34895   4.423   3.897   6.924  0.2277 -0.0889 -0.7931
11362SOL    HW134896   4.396   3.859   7.008 -0.2627  0.2952 -0.7717
11362SOL    HW234897   4.508   3.857   6.906  0.8143  0.5625  0.3832
11363SOL     OW34898   0.880   4.950   4.438 -0.2666 -0.5072  0.8551
11363SOL    HW134899   0.854   4.964   4.347 -1.0787  0.4610  1.2134
11363SOL    HW234900   0.905   4.858   4.442  1.8903 -0.0947 -0.8391
11364SOL     OW34901   0.665   1.527   6.215  0.0195  0.0788  0.4982
11364SOL    HW134902   0.576   1.564   6.214  0.4303  1.1116 -0.9183
11364SOL    HW234903   0.703   1.554   6.132  1.3923 -1.0727  0.7121
11365SOL     OW34904   0.404   2.197   2.526 -0.3759 -0.1882 -0.4821
11365SOL    HW134905   0.408   2.199   2.430 -0.1447 -2.1259 -0.5471
11365SOL    HW234906   0.439   2.282   2.553  0.0386  0.1911 -2.0992
11366SOL     OW34907   6.922   4.203   4.571 -0.1140 -0.2567  0.0977
11366SOL    HW134908   6.894   4.222   4.481  1.6347 -0.3977 -0.5322
11366SOL    HW234909   6.841   4.191   4.620 -1.2654  3.2053 -0.6862
11367SOL     OW34910   7.757   7.723   6.090  0.8649  0.4421 -0.2935
11367SOL    HW134911   7.831   7.662   6.094  1.8383  1.6313  0.5584
11367SOL    HW234912   7.696   7.691   6.156  0.5770 -0.5765 -1.0371
11368SOL     OW34913   6.459   6.471   1.083 -0.1077 -0.6817  0.2564
11368SOL    HW134914   6.473   6.563   1.105 -0.6371 -0.3009 -0.9123
11368SOL    HW234915   6.543   6.429   1.097  0.2124  0.0372  0.5204
11369SOL     OW34916   5.916   7.597   7.790 -0.0329 -0.3256  0.4203
11369SOL    HW134917   5.907   7.567   7.881 -0.9069  0.1848  0.5086
11369SOL    HW234918   5.829   7.585   7.752 -0.3508  1.7606  0.3665
11370SOL     OW34919   3.140   6.563   7.730 -0.5983  0.5941 -0.0040
11370SOL    HW134920   3.106   6.643   7.769 -0.6269  0.1692  0.8685
11370SOL    HW234921   3.072   6.497   7.747  0.1017  0.0260  0.6678
11371SOL     OW34922   2.482   6.481   6.219 -0.2399  0.0379  0.5651
11371SOL    HW134923   2.430   6.442   6.289 -0.3530  0.5713  0.7774
11371SOL    HW234924   2.558   6.423   6.212 -2.0625 -2.2970 -1.5441
11372SOL     OW34925   5.950   5.878   1.597 -0.1419  0.2463 -0.6900
11372SOL    HW134926   5.920   5.968   1.614  1.5678  0.4734  1.6221
11372SOL    HW234927   5.870   5.826   1.596 -0.9806  1.3936  1.0832
11373SOL     OW34928   6.053   1.507   5.899  0.3468  0.3925 -0.3637
11373SOL    HW134929   6.096   1.506   5.985 -0.2486 -0.4077 -0.0601
11373SOL    HW234930   6.109   1.563   5.845  0.2193  1.7329  0.8031
11374SOL     OW34931   3.713   5.970   3.417  0.2533 -0.4443  0.5604
11374SOL    HW134932   3.680   5.991   3.505  2.5454 -0.4593  1.4987
11374SOL    HW234933   3.691   5.878   3.404 -2.1951  0.1486  0.0675
11375SOL     OW34934   5.081   4.322   1.482 -0.3087 -0.2082  0.2639
11375SOL    HW134935   5.082   4.412   1.516  0.7216 -0.6177  1.3537
11375SOL    HW234936   5.155   4.318   1.422 -0.2750 -0.3690  0.3152
11376SOL     OW34937   1.986   0.701   6.770 -0.0543 -0.1305 -0.1435
11376SOL    HW134938   1.956   0.638   6.835  0.7212  1.0596  1.4094
11376SOL    HW234939   2.057   0.655   6.724 -0.3372 -0.8392  0.1068
11377SOL     OW34940   2.003   2.026   6.233  0.5272 -0.3956 -0.0454
11377SOL    HW134941   2.054   1.952   6.200  0.3995 -0.0016 -1.1772
11377SOL    HW234942   1.915   1.991   6.243  0.8302 -0.8528  1.1014
11378SOL     OW34943   5.862   7.818   4.535  0.1062  0.2041  0.0628
11378SOL    HW134944   5.935   7.769   4.573  0.9287 -0.0247 -1.7492
11378SOL    HW234945   5.814   7.754   4.483 -0.0628  0.8622 -0.5956
11379SOL     OW34946   2.136   7.036   4.660 -0.2194 -0.2814  0.3779
11379SOL    HW134947   2.104   6.996   4.741  0.3703 -0.2763  0.6216
11379SOL    HW234948   2.205   6.977   4.630 -0.4325 -0.2809 -0.1250
11380SOL     OW34949   0.177   2.397   3.198  0.2676 -0.0978  0.6721
11380SOL    HW134950   0.186   2.490   3.221  1.7551 -0.5884  2.2414
11380SOL    HW234951   0.227   2.350   3.265 -1.7866 -2.1725  0.8895
11381SOL     OW34952   2.094   7.293   5.501  0.3563  0.5258  0.0948
11381SOL    HW134953   2.188   7.293   5.521  0.3664  0.5976  0.0485
11381SOL    HW234954   2.053   7.326   5.581  0.4851  1.9500 -0.3959
11382SOL     OW34955   1.909   6.640   0.893 -0.4218  0.2594 -0.0373
11382SOL    HW134956   1.875   6.636   0.804 -1.9705 -0.1339  0.5447
11382SOL    HW234957   1.903   6.732   0.918 -0.1367  0.3432 -0.2663
11383SOL     OW34958   0.518   3.185   5.800 -0.0131  0.3817 -0.5633
11383SOL    HW134959   0.568   3.184   5.718  1.3692 -2.0585  0.1915
11383SOL    HW234960   0.427   3.177   5.771  0.4712 -0.9480 -1.9067
11384SOL     OW34961   5.012   6.916   4.703  0.0817 -0.3170  0.7436
11384SOL    HW134962   4.999   6.822   4.696  1.3944 -0.4261 -0.7269
11384SOL    HW234963   5.104   6.927   4.727 -0.1335  0.5969  1.2316
11385SOL     OW34964   7.461   2.648   1.953 -0.2712 -0.1588 -0.1908
11385SOL    HW134965   7.490   2.560   1.977 -1.0308  0.2750  2.6553
11385SOL    HW234966   7.498   2.705   2.020 -0.8291  1.5400 -1.2547
11386SOL     OW34967   3.945   4.095   6.898  0.3063  0.1986  0.2128
11386SOL    HW134968   3.934   4.128   6.987 -1.3595 -2.1623  0.9946
11386SOL    HW234969   4.024   4.040   6.902  0.8327  0.9284 -0.0562
11387SOL     OW34970   4.433   5.206   6.135 -0.2309  0.6129 -1.3347
11387SOL    HW134971   4.383   5.137   6.180  0.9722  0.3953 -0.2609
11387SOL    HW234972   4.429   5.182   6.043  0.8895 -1.4236 -0.9187
11388SOL     OW34973   6.753   5.286   5.839 -0.8369 -0.2299  0.0768
11388SOL    HW134974   6.762   5.258   5.930 -1.8697 -1.0885 -0.0684
11388SOL    HW234975   6.718   5.209   5.794  0.3208 -0.0523 -1.1968
11389SOL     OW34976   2.670   3.327   2.347 -0.0389  0.8435  0.0158
11389SOL    HW134977   2.662   3.409   2.299 -0.9922  0.7057 -0.0954
11389SOL    HW234978   2.732   3.345   2.417  1.8673  0.8787 -1.6123
11390SOL     OW34979   4.275   1.268   7.794 -0.8110  1.2339 -0.2256
11390SOL    HW134980   4.273   1.280   7.699 -0.2031 -1.1123 -0.6021
11390SOL    HW234981   4.351   1.317   7.823  0.6221 -0.2170 -1.3733
11391SOL     OW34982   4.790   7.335   3.243  0.2699 -0.6876  0.2020
11391SOL    HW134983   4.708   7.373   3.273 -0.4292  1.1224 -3.3737
11391SOL    HW234984   4.765   7.247   3.211 -0.0110 -0.6610  0.3482
11392SOL     OW34985   1.786   3.218   3.399 -0.1963  0.7530  0.2449
11392SOL    HW134986   1.870   3.190   3.360  0.3870  0.4028  1.6922
11392SOL    HW234987   1.773   3.307   3.365  0.9172  0.9315  0.2251
11393SOL     OW34988   4.772   3.938   7.065 -0.4124 -0.1772  0.0909
11393SOL    HW134989   4.685   3.969   7.088  0.4507  0.8796  2.2694
11393SOL    HW234990   4.821   4.018   7.043 -0.1372 -0.8173 -1.8152
11394SOL     OW34991   4.809   2.005   0.156  0.1338  0.3925 -0.0658
11394SOL    HW134992   4.798   2.082   0.101 -2.3368 -1.3409 -2.2495
11394SOL    HW234993   4.804   1.931   0.095  1.2371 -1.5739  2.0619
11395SOL     OW34994   2.161   0.991   0.433 -0.6721  0.2277 -0.3597
11395SOL    HW134995   2.155   0.902   0.397  2.3287  0.0282 -0.5932
11395SOL    HW234996   2.255   1.009   0.438 -1.1624  3.5482 -0.6272
11396SOL     OW34997   4.278   2.067   4.233  0.2891 -0.1487 -0.2979
11396SOL    HW134998   4.369   2.094   4.218  0.6894 -0.8781  0.7213
11396SOL    HW234999   4.280   1.971   4.224  0.2423 -0.4910  2.6204
11397SOL     OW35000   2.367   4.568   1.519  0.7050 -0.2854 -0.0767
11397SOL    HW135001   2.362   4.566   1.615 -1.4281 -0.6822 -0.1586
11397SOL    HW235002   2.289   4.521   1.489  1.8755 -1.1159 -2.0338
11398SOL     OW35003   6.409   1.322   5.118  0.6859  0.4346  0.4259
11398SOL    HW135004   6.396   1.416   5.105  0.9717  0.9325  3.2143
11398SOL    HW235005   6.491   1.302   5.072  0.9985  1.6830  0.4127
11399SOL     OW35006   0.538   2.227   7.734  0.4390 -0.2111 -0.4114
11399SOL    HW135007   0.519   2.183   7.817  1.8249 -0.3732 -0.1512
11399SOL    HW235008   0.498   2.313   7.742  1.8370  0.3439  1.0575
11400SOL     OW35009   3.411   3.069   3.438 -0.1891 -0.1438 -0.2219
11400SOL    HW135010   3.498   3.110   3.438 -0.2575  0.0085  0.2170
11400SOL    HW235011   3.364   3.114   3.508  0.1286 -1.8415  1.1228
11401SOL     OW35012   2.944   0.503   0.551 -0.2035 -0.1012 -0.3275
11401SOL    HW135013   3.023   0.462   0.514  1.4330  1.6172  1.0879
11401SOL    HW235014   2.926   0.451   0.629 -0.3512 -0.3312 -0.5095
11402SOL     OW35015   0.542   4.871   1.363 -0.4831 -0.0059  0.4674
11402SOL    HW135016   0.612   4.845   1.303 -2.0768 -1.8292 -0.6897
11402SOL    HW235017   0.566   4.831   1.447  0.8253  1.0367  0.6256
11403SOL     OW35018   5.021   1.585   4.739 -0.0968 -0.2500 -0.1291
11403SOL    HW135019   5.082   1.536   4.794  0.8898  2.1095  1.0090
11403SOL    HW235020   5.046   1.562   4.649  1.3424 -0.6081  0.3477
11404SOL     OW35021   7.058   7.418   2.528 -0.0021 -0.0100  0.0734
11404SOL    HW135022   7.068   7.513   2.526 -2.0283  0.2275 -1.8297
11404SOL    HW235023   7.147   7.385   2.511  0.7484  1.4830  0.8421
11405SOL     OW35024   1.689   4.713   4.064  0.0466 -0.8414 -0.1354
11405SOL    HW135025   1.633   4.721   3.987 -1.7877 -0.5418  1.1686
11405SOL    HW235026   1.761   4.656   4.035 -0.1858 -0.1717 -2.2392
11406SOL     OW35027   5.680   4.396   3.246  0.1914 -0.4898  0.0055
11406SOL    HW135028   5.696   4.324   3.185 -0.9021 -0.6023 -0.1714
11406SOL    HW235029   5.592   4.425   3.225 -0.0717 -0.2989  1.3019
11407SOL     OW35030   0.362   6.214   2.434 -0.1698  0.1540  0.3712
11407SOL    HW135031   0.279   6.260   2.450 -0.4386 -0.5743  1.2084
11407SOL    HW235032   0.415   6.235   2.511  0.1508  0.0377  0.1800
11408SOL     OW35033   7.673   2.757   4.937 -0.4298 -0.2593  0.3618
11408SOL    HW135034   7.702   2.839   4.898 -0.0972 -0.2734  0.5828
11408SOL    HW235035   7.738   2.737   5.004 -0.0061 -1.1603 -0.2913
11409SOL     OW35036   1.174   2.537   3.164  0.8159  0.5896  0.5844
11409SOL    HW135037   1.235   2.480   3.210  0.1781  0.3970  1.2156
11409SOL    HW235038   1.224   2.617   3.148  2.6523 -1.0223 -2.7538
11410SOL     OW35039   5.692   7.608   1.709 -0.3326 -0.1114  0.1032
11410SOL    HW135040   5.640   7.637   1.784 -1.4827 -0.1272 -0.6635
11410SOL    HW235041   5.702   7.513   1.721 -1.0186 -0.2067 -0.0604
11411SOL     OW35042   0.369   1.664   0.738  0.1200 -0.0118 -0.3183
11411SOL    HW135043   0.316   1.736   0.771 -1.2958  0.4025 -3.1401
11411SOL    HW235044   0.306   1.595   0.717  0.6948  0.1317 -2.8821
11412SOL     OW35045   3.706   0.139   4.037  0.3662 -0.1570  0.4002
11412SOL    HW135046   3.635   0.095   4.084  0.2217  1.3151  1.6127
11412SOL    HW235047   3.720   0.084   3.960 -2.5715 -0.1468 -0.2610
11413SOL     OW35048   7.052   1.097   0.272  0.2852 -0.3838  0.7661
11413SOL    HW135049   7.041   1.026   0.335  0.3104 -0.9641  0.1220
11413SOL    HW235050   6.963   1.128   0.255  0.2275 -0.6236  0.6318
11414SOL     OW35051   0.358   7.328   3.787 -0.0669 -0.1034 -0.1374
11414SOL    HW135052   0.319   7.242   3.800 -0.0323 -0.1666 -0.4612
11414SOL    HW235053   0.283   7.385   3.768  0.0369 -0.3225 -1.2709
11415SOL     OW35054   1.632   1.196   5.987 -0.4751 -0.0695 -0.0925
11415SOL    HW135055   1.573   1.272   5.985 -0.1130  0.3103  1.5667
11415SOL    HW235056   1.709   1.223   5.937 -0.3356  0.6940  0.5151
11416SOL     OW35057   7.682   5.342   7.587  0.1338 -0.7978  0.3547
11416SOL    HW135058   7.774   5.362   7.575  0.4821 -2.7402 -0.6587
11416SOL    HW235059   7.681   5.258   7.633 -1.0166 -2.1449 -1.9389
11417SOL     OW35060   5.761   4.630   1.530 -0.0083  0.0997  0.2291
11417SOL    HW135061   5.739   4.674   1.612 -1.1384 -0.6099  0.3249
11417SOL    HW235062   5.685   4.644   1.474  0.2265 -0.5039 -0.2536
11418SOL     OW35063   6.195   7.628   2.130  0.3712 -0.6114  0.3790
11418SOL    HW135064   6.269   7.643   2.190 -0.0798  1.4659  0.4741
11418SOL    HW235065   6.194   7.705   2.073 -2.0365 -0.3338  0.7099
11419SOL     OW35066   6.050   1.468   2.633 -0.8946  0.3073 -0.1006
11419SOL    HW135067   6.095   1.552   2.640  2.3817 -1.1458 -1.5022
11419SOL    HW235068   6.046   1.436   2.723  0.7612  0.6473  0.1330
11420SOL     OW35069   0.232   3.707   1.460  0.4381  0.2280  0.2241
11420SOL    HW135070   0.200   3.797   1.461  1.5776  0.6556 -0.2789
11420SOL    HW235071   0.220   3.677   1.550  1.3168  1.3581  0.7505
11421SOL     OW35072   4.219   5.253   3.069 -0.7601  0.4579  0.3129
11421SOL    HW135073   4.193   5.223   2.982  0.3787 -0.4919  0.2826
11421SOL    HW235074   4.174   5.337   3.080 -0.6853  0.7323 -1.3048
11422SOL     OW35075   2.337   4.392   1.054 -0.1461 -0.0993 -0.6454
11422SOL    HW135076   2.419   4.350   1.029  0.4908  0.5186  0.3502
11422SOL    HW235077   2.358   4.485   1.061 -0.2116 -0.2165  2.2553
11423SOL     OW35078   3.740   6.220   4.588  0.1494  0.1606  0.0012
11423SOL    HW135079   3.778   6.274   4.657  1.2296  0.6224 -0.9246
11423SOL    HW235080   3.811   6.208   4.525 -1.1860  1.0380 -1.7847
11424SOL     OW35081   5.534   2.065   7.116  0.5670  0.0799  0.3944
11424SOL    HW135082   5.504   2.002   7.050 -1.0938  1.0716  0.1664
11424SOL    HW235083   5.468   2.062   7.185  1.0576  0.7717  0.9146
11425SOL     OW35084   4.922   0.341   1.036  0.7353  0.0899  0.3338
11425SOL    HW135085   4.920   0.436   1.050  2.2345  0.0508  0.9519
11425SOL    HW235086   4.840   0.310   1.073  0.0993  1.1730 -0.1202
11426SOL     OW35087   7.700   4.430   3.901  0.4222  0.1628 -0.2933
11426SOL    HW135088   7.701   4.442   3.806  0.4457 -1.4797 -0.5288
11426SOL    HW235089   7.792   4.441   3.927  0.2977  1.4260 -0.3211
11427SOL     OW35090   3.248   7.304   0.471 -0.4518  0.2928 -0.1751
11427SOL    HW135091   3.191   7.349   0.409 -1.1289  0.3153  0.4612
11427SOL    HW235092   3.193   7.237   0.511 -0.1204  0.5036  0.6589
11428SOL     OW35093   3.974   7.195   1.674 -0.1745 -0.2564 -0.6807
11428SOL    HW135094   3.938   7.246   1.747  0.0005  1.0550 -1.4891
11428SOL    HW235095   4.019   7.122   1.717  0.2015  0.6575  0.5503
11429SOL     OW35096   3.837   4.202   2.762 -0.4340  0.2202  0.2320
11429SOL    HW135097   3.761   4.249   2.726 -1.3429 -0.7235  0.8537
11429SOL    HW235098   3.821   4.200   2.857  0.3735  0.0131  0.3721
11430SOL     OW35099   4.194   7.435   0.616  0.7439 -0.1285 -0.3647
11430SOL    HW135100   4.259   7.368   0.594 -0.0429 -0.6009 -1.3191
11430SOL    HW235101   4.153   7.403   0.697  0.5077 -0.7172 -0.7104
11431SOL     OW35102   5.652   0.363   7.731  0.0766 -0.2746  0.6646
11431SOL    HW135103   5.746   0.369   7.749  0.3363  1.1663 -0.8959
11431SOL    HW235104   5.617   0.448   7.758 -0.8945 -0.9380  1.6112
11432SOL     OW35105   1.146   1.400   2.774  0.3364  0.2771 -0.2873
11432SOL    HW135106   1.136   1.477   2.829  0.5545  0.6082 -0.7042
11432SOL    HW235107   1.148   1.434   2.685  0.1736 -0.2346 -0.4900
11433SOL     OW35108   0.659   5.319   7.937 -0.0131 -0.4431  0.9538
11433SOL    HW135109   0.564   5.314   7.944  0.0125 -0.4360  1.3488
11433SOL    HW235110   0.691   5.280   8.018  0.2838  1.0042  1.5793
11434SOL     OW35111   2.552   1.722   1.749  0.0903  0.3162 -0.4505
11434SOL    HW135112   2.603   1.643   1.729  0.4743  0.6037 -0.6106
11434SOL    HW235113   2.471   1.711   1.699  0.2356  0.1272 -0.6496
11435SOL     OW35114   4.986   2.936   4.772 -0.1637  0.8160  0.1039
11435SOL    HW135115   5.080   2.952   4.771  0.2203 -1.2108 -0.7808
11435SOL    HW235116   4.967   2.897   4.686 -1.3508 -1.0348  1.1350
11436SOL     OW35117   2.884   0.259   1.363  0.2673  0.1527  0.2848
11436SOL    HW135118   2.904   0.290   1.452 -1.6409 -0.2626  0.9146
11436SOL    HW235119   2.818   0.191   1.376 -0.7867  0.7609 -1.5069
11437SOL     OW35120   2.367   5.034   7.300  0.2765 -0.2468  0.0469
11437SOL    HW135121   2.390   5.126   7.312 -0.9170  0.3178 -1.4929
11437SOL    HW235122   2.447   4.986   7.317  1.7654  1.3400 -1.9582
11438SOL     OW35123   4.894   4.336   2.196  0.1230  0.5989 -0.0566
11438SOL    HW135124   4.946   4.290   2.130 -1.1313 -3.1376  1.2797
11438SOL    HW235125   4.939   4.319   2.279 -0.3125  1.9894  0.4910
11439SOL     OW35126   3.030   6.444   5.703 -0.4591 -0.1062 -0.0495
11439SOL    HW135127   3.121   6.468   5.721 -0.4316  0.6757 -1.1108
11439SOL    HW235128   3.006   6.498   5.628 -1.3073 -1.4239 -0.7713
11440SOL     OW35129   3.225   5.369   6.012 -0.0707 -0.1977 -0.1897
11440SOL    HW135130   3.241   5.391   6.103  1.3188  0.1733 -0.4942
11440SOL    HW235131   3.175   5.288   6.015  2.5640 -1.9225  0.9460
11441SOL     OW35132   5.842   3.746   2.672 -0.0964  0.7104 -0.3584
11441SOL    HW135133   5.902   3.760   2.745 -2.0467 -0.0316  1.4919
11441SOL    HW235134   5.804   3.832   2.655  0.0347  0.8009 -0.1948
11442SOL     OW35135   5.646   0.807   5.531  0.1627  0.6265 -0.1579
11442SOL    HW135136   5.641   0.713   5.550 -0.9911  0.3025 -1.7590
11442SOL    HW235137   5.583   0.820   5.460 -0.3339  2.7773  0.5807
11443SOL     OW35138   4.576   1.331   3.425 -0.5652 -0.3135 -0.2679
11443SOL    HW135139   4.538   1.409   3.384  1.2353  0.6785 -0.1459
11443SOL    HW235140   4.653   1.363   3.471 -0.2887 -2.0445  0.5651
11444SOL     OW35141   7.300   0.488   7.476 -0.3327 -0.2859 -0.4146
11444SOL    HW135142   7.318   0.401   7.441  1.5395  1.1448 -3.4016
11444SOL    HW235143   7.369   0.501   7.541 -0.3681 -0.8606 -0.2522
11445SOL     OW35144   5.157   4.638   1.978 -0.0857  0.1046  0.3717
11445SOL    HW135145   5.178   4.549   2.005 -0.5300 -1.0482 -2.6864
11445SOL    HW235146   5.062   4.645   1.988 -0.3899 -0.6614 -1.5429
11446SOL     OW35147   2.489   3.296   6.707  0.1046  0.0859  0.0086
11446SOL    HW135148   2.544   3.231   6.751  0.7693  1.0284  0.6255
11446SOL    HW235149   2.468   3.257   6.622  2.6457  0.1289 -0.7097
11447SOL     OW35150   1.291   1.461   0.316  0.4529  0.1335  0.3274
11447SOL    HW135151   1.356   1.441   0.383  0.4142 -0.6934  0.1238
11447SOL    HW235152   1.256   1.376   0.290  0.1527  0.4773 -0.4239
11448SOL     OW35153   1.597   5.602   6.032  0.2926 -0.0447  0.3673
11448SOL    HW135154   1.690   5.581   6.021  0.1022 -0.0167 -1.5986
11448SOL    HW235155   1.551   5.528   5.993 -0.5385 -0.1324  1.4749
11449SOL     OW35156   0.405   1.804   1.703  0.6446 -0.3758  0.3882
11449SOL    HW135157   0.359   1.728   1.667  1.8156 -0.8595 -0.1416
11449SOL    HW235158   0.419   1.862   1.627  1.0439 -0.3138  0.5067
11450SOL     OW35159   5.424   2.394   3.738 -0.0857  0.4136  0.5218
11450SOL    HW135160   5.421   2.450   3.660 -0.1187  0.4064  0.5178
11450SOL    HW235161   5.499   2.427   3.787  0.2072  0.1265  0.2699
11451SOL     OW35162   1.429   0.259   3.662  0.1504 -0.0972  0.7060
11451SOL    HW135163   1.426   0.171   3.626  1.9210  0.2943 -0.5395
11451SOL    HW235164   1.507   0.259   3.718  0.0248  0.6042  0.8895
11452SOL     OW35165   0.087   4.517   7.173  0.2151 -0.4257  0.2960
11452SOL    HW135166   0.065   4.527   7.265 -0.9021  2.4009 -0.1906
11452SOL    HW235167   0.108   4.605   7.143  0.0846 -1.1788 -2.2687
11453SOL     OW35168   4.242   6.591   5.897  0.2756 -0.0630  0.1809
11453SOL    HW135169   4.208   6.681   5.893 -2.8712 -1.1766 -2.5521
11453SOL    HW235170   4.173   6.542   5.942 -0.2606 -1.8232 -2.3858
11454SOL     OW35171   3.262   6.667   3.870  0.0498  0.7592  0.0858
11454SOL    HW135172   3.190   6.690   3.811  0.7277  0.2934 -0.9601
11454SOL    HW235173   3.239   6.707   3.953 -1.8840 -0.1558  0.0440
11455SOL     OW35174   0.951   4.684   4.364  0.2423 -0.0580 -0.4674
11455SOL    HW135175   0.909   4.652   4.444  1.9474 -1.3883 -0.0586
11455SOL    HW235176   0.906   4.639   4.293 -1.5112  1.3821 -0.3540
11456SOL     OW35177   0.631   2.251   2.216 -0.5653 -0.3986  0.5289
11456SOL    HW135178   0.613   2.225   2.126 -1.3868  0.1726  0.5258
11456SOL    HW235179   0.546   2.273   2.253 -0.1313  0.2503  1.1699
11457SOL     OW35180   7.588   5.142   0.016  0.4560  0.0167  0.6975
11457SOL    HW135181   7.629   5.071   0.065  0.9765 -0.0367  0.1811
11457SOL    HW235182   7.541   5.099  -0.055  1.9653  0.2595 -0.4945
11458SOL     OW35183   1.775   6.559   6.124 -0.2441  0.9162  0.4361
11458SOL    HW135184   1.864   6.549   6.156  0.6146  0.3095 -1.9585
11458SOL    HW235185   1.761   6.653   6.120  0.7306  1.0477 -0.2190
11459SOL     OW35186   0.553   0.841   1.951 -0.2841  0.1680 -0.1462
11459SOL    HW135187   0.471   0.887   1.970  0.2660  1.4723 -0.8535
11459SOL    HW235188   0.569   0.857   1.858  0.9256  0.1593  0.0464
11460SOL     OW35189   6.279   2.991   3.835 -0.1093  0.3534  0.2990
11460SOL    HW135190   6.263   2.934   3.760  1.8343  0.1638 -0.0277
11460SOL    HW235191   6.196   3.035   3.850 -0.6240  0.1970 -1.8111
11461SOL     OW35192   5.665   1.762   3.493  0.1085 -0.3407 -0.2825
11461SOL    HW135193   5.685   1.712   3.572  1.3580  0.5980  0.0299
11461SOL    HW235194   5.751   1.791   3.461 -0.5502  1.4042 -0.5687
11462SOL     OW35195   6.495   6.543   6.471 -0.2091 -0.3358 -0.2455
11462SOL    HW135196   6.522   6.451   6.468 -0.1562 -0.3390  0.2791
11462SOL    HW235197   6.457   6.559   6.385  1.5458 -0.3011 -1.0563
11463SOL     OW35198   3.568   3.057   0.800  0.6038  0.2849  0.0269
11463SOL    HW135199   3.578   2.967   0.767 -0.1552  0.5809 -1.0810
11463SOL    HW235200   3.530   3.046   0.887 -0.3426 -0.4684 -0.4535
11464SOL     OW35201   5.129   5.904   0.613 -0.1513  0.0132  0.6527
11464SOL    HW135202   5.123   5.849   0.691 -0.2805 -0.0140  0.6233
11464SOL    HW235203   5.212   5.952   0.624 -0.6598  0.7792  1.3173
11465SOL     OW35204   5.736   3.927   1.003 -0.0530  0.0434  0.8475
11465SOL    HW135205   5.813   3.871   1.015  0.0519 -0.1048 -0.4277
11465SOL    HW235206   5.670   3.869   0.966 -0.5661  0.3322  1.2972
11466SOL     OW35207   6.531   1.883   3.285  0.4906 -0.2902  0.0509
11466SOL    HW135208   6.465   1.946   3.312  0.8292 -0.1875  0.6415
11466SOL    HW235209   6.569   1.851   3.366  1.2973 -0.2185 -0.2926
11467SOL     OW35210   6.546   3.782   7.472  0.3059  0.4067  0.0885
11467SOL    HW135211   6.565   3.797   7.565 -2.5130  1.1215  0.6393
11467SOL    HW235212   6.572   3.864   7.430 -0.8024  1.0921  0.6882
11468SOL     OW35213   6.903   0.711   3.926  0.3892 -0.0284 -0.6390
11468SOL    HW135214   6.997   0.730   3.926  0.8063 -1.6611 -2.7665
11468SOL    HW235215   6.878   0.715   3.834 -1.5846  0.0360 -0.1423
11469SOL     OW35216   0.933   1.778   6.054  0.0166 -0.9077 -0.1140
11469SOL    HW135217   0.974   1.772   6.141  0.0234 -1.5744 -0.1600
11469SOL    HW235218   1.005   1.767   5.992 -0.1771 -1.7988 -0.1955
11470SOL     OW35219   2.294   3.419   3.753 -0.3974  0.3476 -0.1599
11470SOL    HW135220   2.213   3.457   3.718 -1.1419  0.3537  1.4824
11470SOL    HW235221   2.282   3.325   3.742 -0.0785  0.3950 -1.0183
11471SOL     OW35222   6.354   6.398   2.658  0.0866  0.0396 -0.2578
11471SOL    HW135223   6.437   6.351   2.654 -0.0042 -0.1293 -0.1561
11471SOL    HW235224   6.299   6.355   2.593 -0.6020 -1.1807  1.0879
11472SOL     OW35225   2.737   1.982   6.466 -0.0923 -0.2725 -0.1427
11472SOL    HW135226   2.778   1.911   6.516 -0.9114 -1.5039 -1.1500
11472SOL    HW235227   2.643   1.968   6.478 -0.2703  1.4434  0.6876
11473SOL     OW35228   5.053   3.393   7.462 -0.1045 -0.1264  0.4944
11473SOL    HW135229   5.053   3.444   7.381 -0.2374  0.0187  0.5849
11473SOL    HW235230   4.972   3.419   7.506  1.4564  2.2446  2.1991
11474SOL     OW35231   1.451   1.540   2.392  0.5640 -0.8139 -0.1055
11474SOL    HW135232   1.449   1.568   2.300 -0.9730 -0.8700 -0.1240
11474SOL    HW235233   1.484   1.451   2.389  0.3131 -0.8940 -0.6386
11475SOL     OW35234   1.329   6.356   5.223  0.7833  0.3677  0.1711
11475SOL    HW135235   1.384   6.416   5.273  0.6608 -0.1854  0.9829
11475SOL    HW235236   1.242   6.395   5.226  0.9205  0.7142 -0.2447
11476SOL     OW35237   0.897   5.340   6.844 -0.3783  0.4726 -0.1173
11476SOL    HW135238   0.988   5.309   6.846 -0.0639  1.2413 -1.2596
11476SOL    HW235239   0.848   5.272   6.891  0.5574 -0.7844 -0.8639
11477SOL     OW35240   1.677   4.097   3.297 -0.1180 -0.2246  0.4439
11477SOL    HW135241   1.616   4.096   3.223  1.7350 -1.3464 -1.1582
11477SOL    HW235242   1.733   4.173   3.282  0.2372 -0.4297  0.7140
11478SOL     OW35243   3.729   6.762   0.080  0.2238  0.5394  0.1651
11478SOL    HW135244   3.786   6.716   0.018  0.8674 -1.5216  2.1395
11478SOL    HW235245   3.739   6.713   0.162 -3.1087  1.0931  1.0503
11479SOL     OW35246   3.007   2.555   2.246 -0.2296 -0.3704  0.0547
11479SOL    HW135247   3.018   2.625   2.310 -0.5171  0.5729 -0.9198
11479SOL    HW235248   2.940   2.586   2.186  1.8746 -0.0634 -2.2712
11480SOL     OW35249   2.747   0.874   2.887  0.1757 -0.4388  0.6422
11480SOL    HW135250   2.768   0.928   2.811 -2.4227 -1.8174 -1.2291
11480SOL    HW235251   2.812   0.804   2.885  1.1342  0.4332  0.7077
11481SOL     OW35252   6.261   1.110   7.242 -0.0662 -0.2080 -0.1913
11481SOL    HW135253   6.305   1.100   7.326  1.2361  2.4137 -0.4700
11481SOL    HW235254   6.196   1.179   7.256 -1.0610 -0.9557 -0.9290
11482SOL     OW35255   2.464   0.845   0.755 -0.0185  0.0217 -0.5969
11482SOL    HW135256   2.444   0.798   0.674 -3.3847  1.0220 -0.5301
11482SOL    HW235257   2.488   0.933   0.727  0.3183 -0.0583 -0.5580
11483SOL     OW35258   5.554   1.561   7.241 -0.1689 -0.5624 -0.1617
11483SOL    HW135259   5.549   1.636   7.300 -0.3319 -1.5515  1.1511
11483SOL    HW235260   5.605   1.496   7.289 -0.2423 -1.3829 -1.1532
11484SOL     OW35261   6.306   1.273   7.618  0.5360 -0.6580  0.3378
11484SOL    HW135262   6.375   1.336   7.597  1.4208 -1.4402  0.8523
11484SOL    HW235263   6.274   1.300   7.704 -1.0997  0.8095 -0.6769
11485SOL     OW35264   6.185   2.633   7.001 -0.1195 -0.0817  0.1090
11485SOL    HW135265   6.100   2.593   7.017 -1.6021  2.5666 -0.6287
11485SOL    HW235266   6.200   2.622   6.907 -0.7892  1.4791 -0.1979
11486SOL     OW35267   2.919   1.223   5.981 -0.2750  0.3208 -0.0139
11486SOL    HW135268   3.009   1.208   5.954 -0.4420  2.5480 -2.1282
11486SOL    HW235269   2.914   1.317   5.998 -2.5195  0.5185 -1.3528
11487SOL     OW35270   2.086   3.005   1.819  0.7538 -0.2015  0.1481
11487SOL    HW135271   2.129   3.009   1.905 -1.7752 -1.4866  1.6130
11487SOL    HW235272   2.000   3.046   1.834 -0.6763 -2.5508 -1.0606
11488SOL     OW35273   3.784   1.422   6.589 -0.0252 -0.0682 -0.1398
11488SOL    HW135274   3.816   1.491   6.530  2.2742 -1.1144 -0.2140
11488SOL    HW235275   3.742   1.359   6.530 -1.1055  0.6674 -0.1939
11489SOL     OW35276   7.999   3.066   4.310  0.9289  0.4359 -0.0414
11489SOL    HW135277   7.979   2.973   4.319  0.1992  0.7293  1.7028
11489SOL    HW235278   8.063   3.069   4.239 -0.7986 -1.1223 -1.7862
11490SOL     OW35279   5.580   7.171   4.216  0.7645 -0.2261  0.1522
11490SOL    HW135280   5.528   7.144   4.292  0.9713  0.5329  0.5698
11490SOL    HW235281   5.650   7.105   4.210 -0.5732 -1.6255 -0.7987
11491SOL     OW35282   4.629   6.804   5.270 -0.2424  0.2464  0.3131
11491SOL    HW135283   4.619   6.790   5.364  2.2587  0.7406  0.7484
11491SOL    HW235284   4.607   6.719   5.231  0.2213 -0.4611  1.5090
11492SOL     OW35285   3.277   2.387   0.333  0.1404  0.2673  0.5100
11492SOL    HW135286   3.224   2.459   0.368 -0.8513 -0.0216 -0.3466
11492SOL    HW235287   3.324   2.353   0.410  0.6675  1.8391  0.9175
11493SOL     OW35288   7.414   6.867   0.861 -0.0874  0.6473  0.0702
11493SOL    HW135289   7.366   6.946   0.836  0.0491  0.9400  0.7235
11493SOL    HW235290   7.447   6.885   0.949  0.1223 -0.0574  0.1443
11494SOL     OW35291   0.455   6.689   6.003  0.2783 -0.2411 -0.3699
11494SOL    HW135292   0.548   6.695   5.979 -0.1377 -1.3230 -2.5108
11494SOL    HW235293   0.425   6.780   6.006  1.7979  0.2921  2.4291
11495SOL     OW35294   1.584   4.610   7.248 -0.5855 -0.0443 -0.2219
11495SOL    HW135295   1.643   4.642   7.317  0.7520  0.4994 -1.5586
11495SOL    HW235296   1.498   4.641   7.275  0.0568  1.0524  0.6862
11496SOL     OW35297   2.500   4.686   6.527 -0.3958 -0.0021 -0.3231
11496SOL    HW135298   2.433   4.653   6.586 -0.0759 -0.4322 -0.1900
11496SOL    HW235299   2.473   4.656   6.441 -0.6404  0.2645 -0.3414
11497SOL     OW35300   1.144   5.026   2.380  0.8657 -0.1588  0.1104
11497SOL    HW135301   1.130   4.974   2.301 -0.6154 -0.0635  0.2830
11497SOL    HW235302   1.141   4.962   2.452 -0.0188  0.0306  0.2502
11498SOL     OW35303   3.799   1.506   6.314 -0.0702  0.0422 -0.1931
11498SOL    HW135304   3.862   1.434   6.308  0.8867  0.8812 -0.3935
11498SOL    HW235305   3.776   1.525   6.223 -0.3939 -0.0745 -0.1347
11499SOL     OW35306   1.921   3.726   4.577 -0.1928 -0.6654  0.2050
11499SOL    HW135307   1.980   3.763   4.511 -0.1056  0.7930  1.0422
11499SOL    HW235308   1.979   3.701   4.649 -0.4473 -0.5939  0.4366
11500SOL     OW35309   4.706   0.226   1.176 -0.5248 -0.3193 -0.1043
11500SOL    HW135310   4.706   0.151   1.235 -0.7532 -0.9578 -0.8974
11500SOL    HW235311   4.691   0.188   1.089  0.4110  0.5272 -0.6615
11501SOL     OW35312   3.761   4.771   7.557 -0.4732  0.7584  0.0528
11501SOL    HW135313   3.801   4.770   7.644 -2.6307 -0.4097  1.1109
11501SOL    HW235314   3.671   4.799   7.572 -0.5868  1.6778 -1.9917
11502SOL     OW35315   0.642   3.208   1.670  0.5252 -0.3303  0.6468
11502SOL    HW135316   0.732   3.236   1.691 -0.3185  3.4353 -0.0367
11502SOL    HW235317   0.638   3.210   1.574 -0.0657 -1.3658  0.6385
11503SOL     OW35318   5.832   2.330   3.344  0.3829 -0.4147  0.3104
11503SOL    HW135319   5.795   2.401   3.291  0.4981 -1.1432 -0.7641
11503SOL    HW235320   5.766   2.261   3.343  0.7875 -0.8111  0.3165
11504SOL     OW35321   4.576   0.994   3.784  0.2907  0.1034 -0.3527
11504SOL    HW135322   4.543   1.082   3.766  2.2623  1.2027  1.1277
11504SOL    HW235323   4.633   0.974   3.710 -1.0546 -0.4777 -1.2838
11505SOL     OW35324   3.789   3.920   0.934 -0.5643  0.0641 -0.1683
11505SOL    HW135325   3.725   3.916   1.005 -0.3146  1.8680  0.1960
11505SOL    HW235326   3.742   3.962   0.862  0.4879  2.5714  0.5083
11506SOL     OW35327   0.597   5.366   0.622 -0.3836  0.0015  0.4690
11506SOL    HW135328   0.553   5.392   0.702  0.3534 -0.6950  1.1280
11506SOL    HW235329   0.625   5.448   0.582 -0.5747  0.3493  1.0367
11507SOL     OW35330   0.114   5.149   0.408 -0.7619 -0.0819  0.0933
11507SOL    HW135331   0.141   5.081   0.470  1.0212  0.2692 -0.2344
11507SOL    HW235332   0.166   5.226   0.433 -1.7466  0.7655 -0.3886
11508SOL     OW35333   7.114   0.352   7.844 -0.0838  0.2895  0.1189
11508SOL    HW135334   7.091   0.323   7.756 -0.2825 -0.1971  0.3237
11508SOL    HW235335   7.036   0.398   7.876 -0.5599 -0.7781  0.5633
11509SOL     OW35336   4.872   4.497   3.314  0.6674 -0.4640  0.3496
11509SOL    HW135337   4.819   4.442   3.371 -0.0024 -1.8123 -1.4702
11509SOL    HW235338   4.823   4.579   3.306  0.9973 -0.0652  1.9983
11510SOL     OW35339   2.331   4.749   2.755 -0.2557  0.0396 -0.0343
11510SOL    HW135340   2.315   4.842   2.745 -0.4922  0.1762  1.5228
11510SOL    HW235341   2.268   4.707   2.695 -2.0677  0.7878  1.2779
11511SOL     OW35342   1.442   6.628   1.660  0.1727 -0.0472 -0.1403
11511SOL    HW135343   1.356   6.586   1.662 -0.0580  0.4482  1.7102
11511SOL    HW235344   1.424   6.720   1.639  0.5105 -0.4059 -2.2378
11512SOL     OW35345   0.520   2.739   6.812  0.0693 -0.8156  0.4063
11512SOL    HW135346   0.599   2.720   6.862  0.4524 -0.2440  0.0234
11512SOL    HW235347   0.450   2.738   6.878  0.5558 -0.1697  0.9495
11513SOL     OW35348   6.822   0.774   4.611 -0.1806 -0.1389  0.0722
11513SOL    HW135349   6.809   0.733   4.526 -0.4040  1.8364 -0.9065
11513SOL    HW235350   6.734   0.799   4.639  0.0017  0.1689  0.3820
11514SOL     OW35351   1.705   6.307   0.408 -0.0205  0.2335 -0.0118
11514SOL    HW135352   1.723   6.296   0.315 -1.0124 -0.8820 -0.1079
11514SOL    HW235353   1.650   6.232   0.430  0.5218  0.2704  1.5706
11515SOL     OW35354   0.958   1.380   4.086  0.1623 -0.5718 -0.3167
11515SOL    HW135355   1.047   1.373   4.120  0.0784 -1.9594 -0.3287
11515SOL    HW235356   0.937   1.293   4.054 -1.0920 -0.1878 -0.6219
11516SOL     OW35357   2.951   2.300   3.988  0.6849  0.0274  0.1546
11516SOL    HW135358   3.042   2.311   4.015  0.4442  0.6783  0.7112
11516SOL    HW235359   2.904   2.371   4.031 -0.0205 -0.0460 -0.4675
11517SOL     OW35360   3.074   0.570   5.439  0.0063  0.2341 -0.1535
11517SOL    HW135361   3.164   0.566   5.407  0.2805  3.3538 -0.0091
11517SOL    HW235362   3.076   0.634   5.510 -2.2210 -0.0698  0.2518
11518SOL     OW35363   5.888   3.528   3.005  0.0383  0.0918  0.3499
11518SOL    HW135364   5.794   3.544   3.018 -0.4103 -1.4672 -0.6981
11518SOL    HW235365   5.918   3.601   2.952 -0.9259 -0.1506 -0.5576
11519SOL     OW35366   5.764   3.572   6.764  0.0033 -0.3215  0.7407
11519SOL    HW135367   5.796   3.619   6.841  0.2484  0.8618 -0.0669
11519SOL    HW235368   5.687   3.524   6.795 -2.3692  3.2315  0.9016
11520SOL     OW35369   0.027   6.207   1.081 -0.0444 -0.4119 -0.7726
11520SOL    HW135370  -0.000   6.116   1.068  0.3427 -0.4993 -0.9712
11520SOL    HW235371   0.121   6.207   1.064  0.0928 -0.1149 -0.0390
11521SOL     OW35372   3.658   3.199   3.455 -0.6577 -0.0862  0.0275
11521SOL    HW135373   3.732   3.206   3.515  3.2067 -3.0724 -3.8196
11521SOL    HW235374   3.678   3.260   3.384 -3.1013  0.5568 -0.2269
11522SOL     OW35375   3.937   6.138   7.947  0.5977 -0.3122  0.2509
11522SOL    HW135376   4.028   6.155   7.970  0.6925 -0.4917  0.0152
11522SOL    HW235377   3.929   6.167   7.856  0.3822 -0.1665  0.3143
11523SOL     OW35378   1.586   7.142   3.719  0.0338  0.0749 -0.1294
11523SOL    HW135379   1.578   7.235   3.699 -0.4957  0.1725  0.5299
11523SOL    HW235380   1.505   7.103   3.686  0.8062 -0.3787 -1.5925
11524SOL     OW35381   2.425   1.015   0.143 -0.6845 -0.0263 -0.0677
11524SOL    HW135382   2.331   1.034   0.134 -1.3542 -2.2747  1.2010
11524SOL    HW235383   2.447   0.967   0.063 -0.4504  0.9718 -0.6167
11525SOL     OW35384   4.510   5.322   6.458 -0.1030 -0.0229 -0.2866
11525SOL    HW135385   4.577   5.390   6.452 -1.4618  1.3001 -1.1933
11525SOL    HW235386   4.427   5.370   6.465 -0.9808 -1.5981  0.9664
11526SOL     OW35387   7.239   4.454   7.668 -0.1286 -0.4198  0.1253
11526SOL    HW135388   7.170   4.493   7.721  1.3822  3.6569 -0.4951
11526SOL    HW235389   7.304   4.423   7.731  0.1737  1.4007  0.7719
11527SOL     OW35390   1.126   3.823   2.431  0.3767 -0.2271 -1.0202
11527SOL    HW135391   1.097   3.812   2.340  0.7546 -2.9783 -0.8711
11527SOL    HW235392   1.221   3.832   2.424  0.4481 -0.8538 -0.8780
11528SOL     OW35393   4.844   1.365   7.906 -0.2243 -0.3048 -0.3538
11528SOL    HW135394   4.781   1.327   7.968  2.1706 -0.6770  2.0201
11528SOL    HW235395   4.898   1.423   7.960  1.0381  0.5428 -2.4399
11529SOL     OW35396   1.202   7.257   6.695  0.1757  0.4676 -0.1761
11529SOL    HW135397   1.221   7.347   6.670 -3.1484  1.1139 -0.8350
11529SOL    HW235398   1.134   7.264   6.762 -0.7908 -1.5414 -0.8539
11530SOL     OW35399   6.577   3.479   7.916  0.9819  0.3234  0.4544
11530SOL    HW135400   6.570   3.559   7.967 -0.0178 -0.0451  0.9246
11530SOL    HW235401   6.534   3.499   7.833  0.2620  0.1341  0.7692
11531SOL     OW35402   4.318   4.933   2.831 -0.4765  0.6781  0.1912
11531SOL    HW135403   4.368   4.919   2.911  2.4246  2.5911 -1.1166
11531SOL    HW235404   4.245   4.989   2.858 -0.3721  0.1158  1.7255
11532SOL     OW35405   3.862   4.551   3.140  0.1087 -0.6168  0.4666
11532SOL    HW135406   3.807   4.532   3.064 -0.2241 -1.4770  0.9125
11532SOL    HW235407   3.809   4.611   3.193 -0.6891 -1.9189  1.1962
11533SOL     OW35408   3.595   6.549   7.361 -0.0693 -0.5244 -0.1664
11533SOL    HW135409   3.553   6.606   7.426  0.6938 -2.3238  2.0359
11533SOL    HW235410   3.689   6.559   7.377  0.1190 -1.2793 -0.7535
11534SOL     OW35411   3.378   4.734   3.256 -0.1321  0.5773  0.0736
11534SOL    HW135412   3.325   4.660   3.226 -0.5340  1.3835 -1.3191
11534SOL    HW235413   3.344   4.809   3.206  0.9348  1.5048  0.7015
11535SOL     OW35414   2.474   7.393   3.196 -0.1228  0.3065 -0.0921
11535SOL    HW135415   2.431   7.419   3.277 -0.8920 -0.7607 -0.1323
11535SOL    HW235416   2.546   7.336   3.224  0.2014  0.7011 -0.1156
11536SOL     OW35417   6.903   7.649   3.109 -0.5983 -0.3919  0.3687
11536SOL    HW135418   6.839   7.584   3.138 -1.6968  1.0284  1.2850
11536SOL    HW235419   6.855   7.732   3.109  0.6861  0.4042 -0.9898
11537SOL     OW35420   2.207   2.595   0.748  0.0581 -0.3744  0.4891
11537SOL    HW135421   2.147   2.663   0.720  1.1773  0.1063 -0.8694
11537SOL    HW235422   2.235   2.621   0.836 -0.1996  0.4450  0.3298
11538SOL     OW35423   5.779   6.789   5.091 -0.3113  0.0608 -0.0684
11538SOL    HW135424   5.698   6.738   5.091  0.1665 -0.7235 -0.5289
11538SOL    HW235425   5.830   6.753   5.163  0.1215 -0.2699 -0.5360
11539SOL     OW35426   3.461   3.939   0.880 -0.6134 -0.2231 -0.5745
11539SOL    HW135427   3.368   3.947   0.859 -0.3719  0.0559 -1.5703
11539SOL    HW235428   3.503   3.911   0.799  0.0308 -1.5192  0.1640
11540SOL     OW35429   1.113   6.677   3.362  0.4953  0.1125 -0.5471
11540SOL    HW135430   1.152   6.764   3.353  2.9368 -0.7601  0.6264
11540SOL    HW235431   1.185   6.617   3.344 -0.1104 -1.6359  2.2800
11541SOL     OW35432   3.235   6.546   2.228  0.2495 -0.4181 -0.1790
11541SOL    HW135433   3.269   6.594   2.303  1.5112 -0.0647 -0.9470
11541SOL    HW235434   3.165   6.602   2.194  0.8738  0.2996 -0.3180
11542SOL     OW35435   4.027   6.378   6.049  0.2623 -0.2542 -0.3258
11542SOL    HW135436   4.104   6.379   6.107  0.4320  2.7611 -0.4397
11542SOL    HW235437   3.953   6.367   6.108  0.3524  3.6182  0.8294
11543SOL     OW35438   4.043   5.261   5.004 -0.6314 -0.2787  0.9180
11543SOL    HW135439   3.952   5.267   5.033 -1.3553 -2.0634 -0.8151
11543SOL    HW235440   4.068   5.170   5.019  0.3007 -0.2400 -0.2389
11544SOL     OW35441   4.978   1.103   7.830  0.7130  0.2360  0.1349
11544SOL    HW135442   4.999   1.191   7.860  0.9100  0.2027  0.0939
11544SOL    HW235443   4.885   1.107   7.810  1.0057  0.8278 -1.2075
11545SOL     OW35444   6.156   3.098   5.490  0.3435  1.0360 -0.1918
11545SOL    HW135445   6.071   3.084   5.531  1.3361  2.9900  2.8264
11545SOL    HW235446   6.137   3.150   5.411 -1.2144  2.2648  0.9432
11546SOL     OW35447   1.575   0.833   4.051 -0.1003 -0.3979 -0.4570
11546SOL    HW135448   1.529   0.750   4.038 -0.0300 -0.5488  0.2400
11546SOL    HW235449   1.523   0.879   4.117  0.4829 -0.3653 -0.0219
11547SOL     OW35450   5.162   4.252   1.156 -0.3386  0.3002  0.2189
11547SOL    HW135451   5.211   4.253   1.074 -0.3488  1.7066  0.2076
11547SOL    HW235452   5.175   4.339   1.193 -2.2937  0.5018  0.5485
11548SOL     OW35453   3.982   1.593   5.879  0.8590  0.1695 -0.0991
11548SOL    HW135454   3.977   1.501   5.907  1.2554  0.1280 -0.1650
11548SOL    HW235455   3.906   1.605   5.823  0.5156  0.0246  0.3285
11549SOL     OW35456   5.862   7.886   7.828 -0.6103  0.2468  0.3326
11549SOL    HW135457   5.833   7.813   7.773 -1.2801 -0.0137  1.0165
11549SOL    HW235458   5.954   7.897   7.806 -0.3443 -1.1687  0.6205
11550SOL     OW35459   0.618   2.274   2.915 -0.2704 -0.2161  0.1332
11550SOL    HW135460   0.552   2.342   2.931  0.2537  0.8540 -1.9423
11550SOL    HW235461   0.685   2.289   2.982 -1.7373 -0.8854  1.8341
11551SOL     OW35462   2.490   1.696   0.267 -0.1587 -0.0753 -0.1139
11551SOL    HW135463   2.486   1.670   0.175  0.8606 -0.8958  0.0455
11551SOL    HW235464   2.409   1.664   0.305  0.1359 -1.1930 -0.3947
11552SOL     OW35465   7.045   5.102   6.141 -0.1435 -0.0081  0.6058
11552SOL    HW135466   7.051   5.098   6.045  0.7192  0.6317  0.6176
11552SOL    HW235467   7.075   5.016   6.171 -1.8523 -0.7507  0.2702
11553SOL     OW35468   7.402   0.174   4.345 -0.3059 -0.2868 -0.4345
11553SOL    HW135469   7.376   0.263   4.318 -0.0163  0.2515  0.9823
11553SOL    HW235470   7.452   0.187   4.426  0.2937 -1.7020 -0.5449
11554SOL     OW35471   6.573   3.818   7.888  0.0996 -0.9183 -0.6861
11554SOL    HW135472   6.483   3.794   7.864 -0.9520  0.9999  0.9685
11554SOL    HW235473   6.584   3.785   7.977  0.1988  0.6718 -0.0681
11555SOL     OW35474   6.389   4.444   5.236 -0.2680  0.0414  0.1554
11555SOL    HW135475   6.391   4.352   5.208 -1.5523 -0.1974  0.7606
11555SOL    HW235476   6.471   4.481   5.204 -0.3748 -0.9437 -1.3419
11556SOL     OW35477   4.941   0.839   4.688 -0.2620  0.4605 -0.2590
11556SOL    HW135478   4.960   0.807   4.776  1.4831  1.5915 -0.1672
11556SOL    HW235479   4.896   0.922   4.702 -0.5123  0.3582 -0.4462
11557SOL     OW35480   0.433   1.425   3.426  0.2547 -0.1870  0.1535
11557SOL    HW135481   0.418   1.505   3.477  0.0472 -0.4443  0.4958
11557SOL    HW235482   0.429   1.454   3.335  1.1437  0.3715  0.2803
11558SOL     OW35483   7.017   6.128   7.560 -0.1678 -0.0316 -0.6314
11558SOL    HW135484   7.102   6.090   7.539 -0.5807 -1.7867  0.6945
11558SOL    HW235485   6.954   6.063   7.531 -1.0281  0.7268 -0.5207
11559SOL     OW35486   0.557   1.316   3.075 -0.0304  0.2706 -0.0786
11559SOL    HW135487   0.470   1.354   3.087 -0.0508  1.4694 -3.0482
11559SOL    HW235488   0.541   1.239   3.020  0.7292  0.1458 -0.1254
11560SOL     OW35489   4.069   4.091   5.580  0.3770 -0.3572  0.4342
11560SOL    HW135490   4.028   4.164   5.626 -1.8970 -0.8792 -0.6446
11560SOL    HW235491   4.080   4.122   5.490 -2.1107 -1.7816 -0.4528
11561SOL     OW35492   0.477   5.040   6.192  0.3526 -0.4942 -0.2018
11561SOL    HW135493   0.530   4.987   6.252 -0.6037  0.7252  1.8583
11561SOL    HW235494   0.388   5.006   6.204  0.0214  0.3440 -0.2656
11562SOL     OW35495   7.327   5.007   6.458  0.0620 -0.1455 -0.3412
11562SOL    HW135496   7.312   5.091   6.503  1.9043  0.0383  0.0407
11562SOL    HW235497   7.410   4.976   6.495  0.3528 -1.2204 -1.8357
11563SOL     OW35498   2.875   4.929   4.485  0.4403 -0.0050 -0.1464
11563SOL    HW135499   2.834   4.869   4.423  1.7346 -1.2993  0.1797
11563SOL    HW235500   2.969   4.917   4.470  0.7436  0.7867  1.0281
11564SOL     OW35501   2.427   6.487   7.797  0.2280 -0.5772  0.1662
11564SOL    HW135502   2.368   6.432   7.745  1.1108 -3.2568  1.7784
11564SOL    HW235503   2.515   6.457   7.773  0.7916  0.6361  0.6242
11565SOL     OW35504   6.775   5.892   4.357  0.3562  0.4336 -0.2581
11565SOL    HW135505   6.719   5.822   4.323 -0.2901  1.4029 -1.2543
11565SOL    HW235506   6.779   5.876   4.451 -0.3766 -0.5164 -0.3722
11566SOL     OW35507   6.812   0.832   5.617 -0.1959 -0.0185 -0.2631
11566SOL    HW135508   6.750   0.896   5.582 -0.9116 -1.0115 -0.8817
11566SOL    HW235509   6.773   0.802   5.699 -0.8986 -1.0974 -0.9529
11567SOL     OW35510   6.296   3.592   0.299  0.3189 -0.0424  0.7193
11567SOL    HW135511   6.298   3.686   0.281  1.3832 -0.1381  0.2453
11567SOL    HW235512   6.388   3.565   0.298 -0.0493 -1.4910 -1.4164
11568SOL     OW35513   0.048   5.009   4.683 -0.0002 -0.2381  0.0203
11568SOL    HW135514   0.044   4.987   4.776  0.8412 -2.4537 -0.3952
11568SOL    HW235515   0.115   5.076   4.677  0.4234 -0.5555  0.9508
11569SOL     OW35516   6.626   3.546   3.826 -0.4331 -0.0296 -0.5003
11569SOL    HW135517   6.658   3.526   3.914 -1.1429  2.0807  0.3120
11569SOL    HW235518   6.634   3.464   3.778  2.0589 -0.7050  0.8806
11570SOL     OW35519   2.753   0.647   7.848  0.1575  0.8207 -0.0239
11570SOL    HW135520   2.660   0.623   7.847  0.0517  1.1935 -1.3666
11570SOL    HW235521   2.753   0.742   7.859  0.4363  0.7056  1.1087
11571SOL     OW35522   6.025   6.768   2.480 -0.0689  0.4871  0.4206
11571SOL    HW135523   5.963   6.746   2.410 -1.9139  2.6764  1.2319
11571SOL    HW235524   6.082   6.834   2.440 -0.2491  0.7341  0.5683
11572SOL     OW35525   0.102   6.990   1.143 -0.3508  0.3376  0.1077
11572SOL    HW135526   0.184   7.037   1.128 -1.1732  1.9346  0.4040
11572SOL    HW235527   0.097   6.981   1.238  0.1575 -1.0955  0.0348
11573SOL     OW35528   5.216   5.495   7.803 -0.0540  0.0451 -0.6299
11573SOL    HW135529   5.304   5.485   7.767 -1.0521 -1.9427 -2.7796
11573SOL    HW235530   5.160   5.509   7.727 -1.7418  0.1932  0.5818
11574SOL     OW35531   5.749   1.352   3.601  0.0250  0.0257  0.1050
11574SOL    HW135532   5.713   1.373   3.515 -1.7649 -0.7147  0.6299
11574SOL    HW235533   5.733   1.430   3.654 -1.1115 -0.3843  0.4018
11575SOL     OW35534   2.766   1.145   5.745 -0.2013  0.1039 -0.5451
11575SOL    HW135535   2.806   1.139   5.831 -2.1581 -1.0089  0.3643
11575SOL    HW235536   2.798   1.070   5.696 -1.5504 -1.1206  0.3825
11576SOL     OW35537   5.942   5.414   3.956 -0.3823 -0.1434  0.2618
11576SOL    HW135538   5.943   5.356   3.880 -0.1762 -0.6386  0.6388
11576SOL    HW235539   6.034   5.421   3.982 -0.5268 -0.5896  0.9218
11577SOL     OW35540   7.595   2.036   7.263 -0.7497 -0.3300 -0.3702
11577SOL    HW135541   7.688   2.015   7.249 -1.0549 -0.7053 -1.9920
11577SOL    HW235542   7.565   2.068   7.178 -1.5827  1.9354  0.7042
11578SOL     OW35543   7.069   5.002   5.879 -0.1260  0.0204  0.2914
11578SOL    HW135544   7.003   4.990   5.811 -1.3228 -0.8782  1.5503
11578SOL    HW235545   7.097   4.913   5.900  0.4640  0.3082  0.7593
11579SOL     OW35546   6.211   6.338   7.353  0.2641  0.0876 -0.2382
11579SOL    HW135547   6.252   6.296   7.278  0.8995  1.3229 -0.6032
11579SOL    HW235548   6.283   6.383   7.398 -0.3377  0.5386  0.2968
11580SOL     OW35549   4.422   5.656   3.757  0.7242  0.4636 -0.6879
11580SOL    HW135550   4.355   5.724   3.767  2.1096  1.7657  0.2611
11580SOL    HW235551   4.434   5.622   3.846  0.6537 -0.4294 -1.0137
11581SOL     OW35552   1.530   6.132   3.316  0.6219 -0.4192  0.1966
11581SOL    HW135553   1.518   6.138   3.221 -0.3547  1.1532  0.3913
11581SOL    HW235554   1.441   6.130   3.352  0.9808 -1.0959  1.0798
11582SOL     OW35555   4.487   5.398   4.776  0.3224  0.1156  0.6115
11582SOL    HW135556   4.437   5.364   4.850 -0.1932  0.3917  0.4021
11582SOL    HW235557   4.485   5.327   4.712  1.1895 -0.3095  1.0469
11583SOL     OW35558   0.432   3.812   3.300 -0.3304  0.3357 -0.2884
11583SOL    HW135559   0.347   3.771   3.314 -0.4908  1.1752  1.3789
11583SOL    HW235560   0.453   3.792   3.208 -1.5379 -1.3042 -0.2630
11584SOL     OW35561   2.566   0.910   2.094  0.5399 -0.3761 -0.2401
11584SOL    HW135562   2.475   0.935   2.076  0.7870  0.6552 -0.0594
11584SOL    HW235563   2.609   0.914   2.009  0.4117 -0.9515 -0.3415
11585SOL     OW35564   1.100   2.417   6.770 -0.0372  0.2380  0.4664
11585SOL    HW135565   1.079   2.381   6.685 -1.6430  0.7595  0.6128
11585SOL    HW235566   1.106   2.341   6.828 -0.0421 -0.0272  0.1212
11586SOL     OW35567   0.439   6.250   7.701 -0.5329 -0.0843 -0.4349
11586SOL    HW135568   0.354   6.288   7.680 -1.0701 -0.3358  1.2055
11586SOL    HW235569   0.429   6.156   7.683  0.2266  0.1865 -2.6820
11587SOL     OW35570   4.344   5.918   2.191 -0.0387 -0.1684  0.0494
11587SOL    HW135571   4.287   5.934   2.266 -0.0278  1.6865 -0.3051
11587SOL    HW235572   4.284   5.894   2.120 -0.5454  2.7159 -0.5859
11588SOL     OW35573   2.439   0.475   0.944 -0.3157 -0.0247  0.0579
11588SOL    HW135574   2.490   0.436   0.873  0.3633 -0.5906  0.8337
11588SOL    HW235575   2.492   0.549   0.974 -0.7502  0.4071 -0.2179
11589SOL     OW35576   3.982   4.342   1.996 -0.0539  0.5621  0.5014
11589SOL    HW135577   4.047   4.366   2.063  1.6322  0.1611 -0.9162
11589SOL    HW235578   3.913   4.408   2.005  0.4013  0.8614  2.2225
11590SOL     OW35579   3.791   2.381   3.817  0.3851  0.4903  0.3216
11590SOL    HW135580   3.863   2.319   3.825 -0.0781 -0.2434 -1.0339
11590SOL    HW235581   3.780   2.394   3.723 -1.3206  0.5126  0.4996
11591SOL     OW35582   4.594   7.652   0.128 -0.2890 -0.5914 -0.4282
11591SOL    HW135583   4.600   7.659   0.032  1.1597 -0.7245 -0.3707
11591SOL    HW235584   4.604   7.558   0.145 -0.7957 -0.5982 -0.1470
11592SOL     OW35585   5.446   2.182   5.070 -0.2928  0.3054 -0.1385
11592SOL    HW135586   5.395   2.103   5.055  1.1129 -0.3464 -1.9260
11592SOL    HW235587   5.500   2.191   4.991  0.1283  2.6485  0.3239
11593SOL     OW35588   1.049   5.975   0.180 -0.0609  0.0775  1.0844
11593SOL    HW135589   1.012   6.011   0.099  0.0981  0.1947  1.0623
11593SOL    HW235590   0.984   5.995   0.247  0.5503  1.5031  1.3035
11594SOL     OW35591   6.798   7.896   3.247 -0.1323 -0.3300  0.0597
11594SOL    HW135592   6.756   7.885   3.162 -1.4942  1.0971  0.5001
11594SOL    HW235593   6.725   7.909   3.308  0.8553 -0.3469  1.2708
11595SOL     OW35594   4.920   0.210   5.537  0.3419  0.2597  0.3816
11595SOL    HW135595   4.856   0.175   5.475 -0.1440 -0.7953  1.4309
11595SOL    HW235596   4.948   0.134   5.588  1.1990  0.9893  1.0428
11596SOL     OW35597   7.063   6.617   0.947  0.1852  0.6301 -0.2420
11596SOL    HW135598   7.114   6.654   1.018  2.0849 -0.0720 -1.1790
11596SOL    HW235599   7.064   6.684   0.879 -0.3468  0.6996 -0.1864
11597SOL     OW35600   7.075   7.650   5.520 -0.0974  0.0675 -0.1968
11597SOL    HW135601   7.087   7.738   5.484 -1.1584  0.4475  0.3286
11597SOL    HW235602   7.005   7.660   5.585 -0.4086 -1.2082 -0.3028
11598SOL     OW35603   1.160   7.235   7.138  0.7594 -0.8957  0.2957
11598SOL    HW135604   1.086   7.211   7.193  1.7023 -0.8381  1.6224
11598SOL    HW235605   1.156   7.330   7.133  0.0999 -0.9540 -0.5910
11599SOL     OW35606   0.543   1.198   6.198 -0.1506 -0.2681 -0.6539
11599SOL    HW135607   0.617   1.253   6.222 -0.2274  0.0136 -1.0511
11599SOL    HW235608   0.539   1.203   6.102  0.5629 -1.9103 -0.8000
11600SOL     OW35609   3.747   1.129   5.488  0.1922  0.6018  0.2108
11600SOL    HW135610   3.810   1.064   5.519  1.6004  0.8554 -1.8619
11600SOL    HW235611   3.799   1.208   5.475 -0.8134  1.1989 -0.3436
11601SOL     OW35612   1.273   1.751   0.910  0.0797 -0.3312 -0.0547
11601SOL    HW135613   1.353   1.804   0.905  0.0792 -0.2992  0.2297
11601SOL    HW235614   1.295   1.679   0.969  0.0143 -0.5338 -0.2760
11602SOL     OW35615   7.546   6.367   6.827  0.8020 -0.0562 -0.1393
11602SOL    HW135616   7.451   6.365   6.815  0.7824  0.8362 -0.2238
11602SOL    HW235617   7.562   6.311   6.903  0.2664 -0.6547 -0.4589
11603SOL     OW35618   7.609   1.581   0.460  0.2171  0.2795  0.1597
11603SOL    HW135619   7.639   1.590   0.370 -0.1236 -0.5953 -0.0489
11603SOL    HW235620   7.568   1.495   0.464  1.9408 -0.5567  1.6509
11604SOL     OW35621   8.003   6.928   4.345 -0.2401 -0.0582 -0.6844
11604SOL    HW135622   8.092   6.904   4.370 -0.0869  0.8185 -0.3687
11604SOL    HW235623   7.958   6.844   4.335  0.6513 -0.5172 -0.9872
11605SOL     OW35624   1.434   1.796   0.261  0.6471  0.3079  0.2634
11605SOL    HW135625   1.509   1.741   0.286  1.5630  1.6322  0.5394
11605SOL    HW235626   1.395   1.822   0.344  1.3980  1.6133  0.2434
11606SOL     OW35627   2.665   2.439   2.343  0.4311  0.3461 -0.1346
11606SOL    HW135628   2.735   2.383   2.310 -0.0333 -0.2186 -0.1721
11606SOL    HW235629   2.635   2.396   2.423  0.6496  1.0025  0.3139
11607SOL     OW35630   5.243   1.946   0.251  0.3388 -0.0021  0.3524
11607SOL    HW135631   5.309   1.942   0.321  1.0993 -0.8943 -0.3957
11607SOL    HW235632   5.210   2.036   0.255  0.6731  0.0890  1.5827
11608SOL     OW35633   6.882   1.953   6.937  0.4054  0.1396  0.2029
11608SOL    HW135634   6.873   1.989   6.849  0.3138  0.5376  0.3704
11608SOL    HW235635   6.836   2.016   6.993  0.6917  0.0316  0.5652
11609SOL     OW35636   5.636   3.577   3.883  0.0333 -0.5163 -0.4446
11609SOL    HW135637   5.719   3.595   3.928 -0.3094  0.3534 -0.1374
11609SOL    HW235638   5.573   3.561   3.954 -0.1468 -0.7906 -0.6634
11610SOL     OW35639   1.384   0.376   5.621  0.1701 -0.2549  0.2670
11610SOL    HW135640   1.395   0.445   5.687  0.3436  0.9183 -0.9401
11610SOL    HW235641   1.335   0.418   5.551 -1.3604 -1.9186  0.2792
11611SOL     OW35642   2.534   4.287   0.553  0.1594 -0.1027  0.3637
11611SOL    HW135643   2.581   4.214   0.514  0.9377  0.2321  0.6577
11611SOL    HW235644   2.527   4.351   0.482 -1.8529 -1.0295 -0.3511
11612SOL     OW35645   7.754   0.265   4.413 -0.2985  0.4054 -0.0526
11612SOL    HW135646   7.698   0.231   4.483  2.8121 -0.0025  2.5095
11612SOL    HW235647   7.713   0.236   4.332 -2.3886 -1.9631  1.7040
11613SOL     OW35648   6.919   5.626   1.402 -0.1812  0.2917  0.5836
11613SOL    HW135649   6.905   5.543   1.448  0.8181 -1.9703 -2.8528
11613SOL    HW235650   6.833   5.647   1.364  0.2673 -1.1313 -1.3713
11614SOL     OW35651   5.703   0.072   4.361 -0.4720 -0.2797 -0.0713
11614SOL    HW135652   5.765   0.041   4.295 -1.1539 -0.4194 -0.6574
11614SOL    HW235653   5.628   0.104   4.311 -0.8594 -0.0670  0.6247
11615SOL     OW35654   0.946   1.750   6.760  0.2496  0.5455  0.1452
11615SOL    HW135655   1.033   1.760   6.722  0.0926  0.2905 -0.2925
11615SOL    HW235656   0.890   1.730   6.685  0.1094 -0.9886  0.6315
11616SOL     OW35657   6.343   2.381   2.621  0.9436 -0.3735  0.1994
11616SOL    HW135658   6.330   2.476   2.628 -0.5692 -0.6230  1.2321
11616SOL    HW235659   6.343   2.364   2.527 -1.4701  0.3722 -0.0144
11617SOL     OW35660   0.276   0.108   2.845  0.0649 -0.3376 -0.0242
11617SOL    HW135661   0.210   0.140   2.906 -0.8568 -1.4067 -0.4484
11617SOL    HW235662   0.331   0.049   2.897  0.3269  0.0735  0.1745
11618SOL     OW35663   4.601   0.509   2.733  0.5654 -0.7243  1.1636
11618SOL    HW135664   4.569   0.556   2.656  1.9074 -0.3578  0.8142
11618SOL    HW235665   4.636   0.427   2.698  1.3160 -0.4917  1.3689
11619SOL     OW35666   3.410   4.539   4.627 -0.0981 -0.1608 -0.5980
11619SOL    HW135667   3.348   4.593   4.676 -0.6033  2.0357 -3.3628
11619SOL    HW235668   3.457   4.489   4.694 -1.1368  2.1172  2.0341
11620SOL     OW35669   4.964   6.046   5.664  0.1253  0.7270 -0.2688
11620SOL    HW135670   5.018   5.968   5.656  0.2317  0.6986  0.5893
11620SOL    HW235671   4.917   6.034   5.747 -1.3143  0.6830 -1.0453
11621SOL     OW35672   6.506   5.959   6.689 -0.6904 -0.3400 -0.0807
11621SOL    HW135673   6.448   5.886   6.668 -0.0287 -0.5911 -1.1491
11621SOL    HW235674   6.448   6.028   6.719 -1.5682 -0.5741 -1.1519
11622SOL     OW35675   3.866   3.801   6.311 -0.8070  0.3261  0.3053
11622SOL    HW135676   3.915   3.875   6.347 -1.6537  0.5144  1.0892
11622SOL    HW235677   3.807   3.775   6.382 -2.5721  0.7503 -0.9576
11623SOL     OW35678   5.412   6.436   3.413 -0.0096 -0.1470 -0.4045
11623SOL    HW135679   5.489   6.408   3.463  0.2679 -0.5849 -1.0679
11623SOL    HW235680   5.347   6.459   3.480  0.8690  0.7468  0.1747
11624SOL     OW35681   7.803   3.445   0.129 -0.8812 -0.0256 -0.0247
11624SOL    HW135682   7.860   3.417   0.057 -0.2151 -0.7992  0.7814
11624SOL    HW235683   7.856   3.433   0.208 -1.7946  0.2642  0.6515
11625SOL     OW35684   2.588   4.182   4.775 -0.1977  0.1540 -0.4685
11625SOL    HW135685   2.616   4.254   4.831  0.0217  1.5617 -2.2875
11625SOL    HW235686   2.515   4.142   4.822  0.9001  0.3171  1.4783
11626SOL     OW35687   5.565   1.373   1.547  0.1854 -0.1891  0.3803
11626SOL    HW135688   5.595   1.411   1.464  0.9881 -1.4068  0.1017
11626SOL    HW235689   5.608   1.288   1.552 -0.2821 -0.3658  1.7976
11627SOL     OW35690   7.464   5.468   1.161  0.4169  1.0204 -0.6195
11627SOL    HW135691   7.369   5.453   1.158  0.4901  0.2124  0.4942
11627SOL    HW235692   7.500   5.387   1.197  1.5217  1.3927 -0.8474
11628SOL     OW35693   6.443   6.841   3.284 -0.1778  0.5415 -0.2990
11628SOL    HW135694   6.498   6.794   3.221 -0.4383 -0.1314 -0.0379
11628SOL    HW235695   6.385   6.773   3.320  1.7857  0.2834  2.7140
11629SOL     OW35696   5.375   5.758   7.494 -0.0606  0.7284  0.2873
11629SOL    HW135697   5.345   5.843   7.462  1.2353  0.5732 -1.4413
11629SOL    HW235698   5.373   5.700   7.417 -0.2663 -0.6474  1.2760
11630SOL     OW35699   2.188   0.875   4.227 -0.5357  0.4976 -0.6077
11630SOL    HW135700   2.159   0.965   4.215  0.5201  1.1010  1.0148
11630SOL    HW235701   2.109   0.827   4.255 -0.5092  1.6209  1.5830
11631SOL     OW35702   3.396   7.960   0.988 -0.0653 -0.3349 -0.4240
11631SOL    HW135703   3.378   8.046   0.949  1.2567 -1.0819 -2.8825
11631SOL    HW235704   3.491   7.958   0.999 -0.1482 -1.2290  0.2335
11632SOL     OW35705   7.119   5.787   6.351  0.3485  0.0283  0.5065
11632SOL    HW135706   7.028   5.757   6.348 -0.4879  2.3914 -0.6869
11632SOL    HW235707   7.121   5.849   6.424  0.5169  1.2607 -0.5069
11633SOL     OW35708   1.213   5.745   5.893  0.4301 -0.4469  0.4995
11633SOL    HW135709   1.295   5.795   5.895 -1.0178  2.1199  0.4497
11633SOL    HW235710   1.160   5.784   5.964 -1.9845  0.3529 -1.5942
11634SOL     OW35711   4.203   2.673   4.950  0.0858  0.0445 -0.0866
11634SOL    HW135712   4.228   2.618   5.024 -2.4443 -1.4723 -0.2325
11634SOL    HW235713   4.257   2.643   4.877  0.3199 -0.6868  0.3837
11635SOL     OW35714   0.809   2.493   0.456 -0.2887  0.6330  0.0795
11635SOL    HW135715   0.828   2.535   0.540  0.6884 -1.9200  1.2678
11635SOL    HW235716   0.719   2.462   0.464  0.9951 -3.3580  2.1720
11636SOL     OW35717   4.928   6.722   0.307  0.6404 -0.1844  0.1074
11636SOL    HW135718   4.941   6.660   0.236  2.7083  0.8238 -0.4812
11636SOL    HW235719   5.007   6.715   0.360  0.7769  1.6330  0.2229
11637SOL     OW35720   4.877   5.311   7.967  0.0171 -0.3868  0.2293
11637SOL    HW135721   4.900   5.360   8.046  2.5417 -0.4627 -0.3723
11637SOL    HW235722   4.960   5.278   7.934 -0.7889  0.4032 -2.9776
11638SOL     OW35723   3.716   4.302   7.646  0.3085  0.4983 -0.3141
11638SOL    HW135724   3.792   4.307   7.588 -0.4301 -0.4199 -1.4127
11638SOL    HW235725   3.689   4.211   7.641 -0.5221  0.6907  0.5187
11639SOL     OW35726   4.000   5.479   4.041 -0.6081 -0.5216 -0.3233
11639SOL    HW135727   4.062   5.406   4.042  0.9811  0.7700  0.1899
11639SOL    HW235728   3.947   5.464   3.963  2.1062 -0.3158 -2.3811
11640SOL     OW35729   5.493   4.130   2.384  0.2965 -0.0945 -0.3117
11640SOL    HW135730   5.538   4.203   2.425 -1.1206  1.0702 -0.7646
11640SOL    HW235731   5.505   4.144   2.290  0.9891 -1.0931 -0.3870
11641SOL     OW35732   0.867   6.434   5.740  0.1200  0.4558 -0.5427
11641SOL    HW135733   0.793   6.375   5.757  0.4916 -0.9309 -3.2606
11641SOL    HW235734   0.827   6.520   5.729 -0.8647  0.0596 -0.1774
11642SOL     OW35735   6.677   3.113   5.893 -0.1017 -0.3649  0.1817
11642SOL    HW135736   6.637   3.148   5.973  0.6388 -2.4773  1.5567
11642SOL    HW235737   6.738   3.181   5.866  0.3934 -0.0212  2.0241
11643SOL     OW35738   3.477   3.558   7.078  0.4421  0.0439 -0.2587
11643SOL    HW135739   3.395   3.608   7.069  0.1349 -0.2717  0.6663
11643SOL    HW235740   3.525   3.604   7.147  0.7594 -0.1488 -0.3509
11644SOL     OW35741   0.662   7.669   1.183  0.3298  0.0181  0.2243
11644SOL    HW135742   0.686   7.709   1.100  0.6224  0.8828  0.7253
11644SOL    HW235743   0.739   7.618   1.209 -0.2321 -1.3479 -0.6771
11645SOL     OW35744   0.224   2.078   6.675 -1.1067 -0.2786  0.6076
11645SOL    HW135745   0.273   2.004   6.639 -1.0028  0.8654 -1.7841
11645SOL    HW235746   0.213   2.138   6.601 -3.4762  0.9139  1.8127
11646SOL     OW35747   7.513   4.020   6.852 -0.0052 -0.0333  0.1604
11646SOL    HW135748   7.560   3.937   6.849  2.3611  1.1113  1.7544
11646SOL    HW235749   7.572   4.082   6.808 -1.4333  0.9540 -0.4534
11647SOL     OW35750   2.392   4.165   3.668 -0.0948  0.1800  0.1500
11647SOL    HW135751   2.477   4.209   3.677  0.4666 -0.2697 -2.1521
11647SOL    HW235752   2.407   4.078   3.705 -0.6728  1.2089  3.0321
11648SOL     OW35753   1.170   2.804   6.312 -0.1284 -0.7338 -0.0588
11648SOL    HW135754   1.166   2.808   6.217  1.9039  0.2489 -0.1523
11648SOL    HW235755   1.115   2.877   6.342  0.6539  0.0698 -0.5450
11649SOL     OW35756   0.492   3.785   6.383  0.4700 -0.5358 -0.1707
11649SOL    HW135757   0.474   3.708   6.329 -1.7583 -0.0906 -0.1792
11649SOL    HW235758   0.458   3.762   6.470 -0.2321  0.3970 -0.1770
11650SOL     OW35759   4.027   7.180   4.601 -0.1581 -0.5467 -0.6539
11650SOL    HW135760   3.965   7.236   4.554  0.6796  0.2943 -0.7845
11650SOL    HW235761   3.972   7.126   4.658 -0.9554  1.0041  0.1166
11651SOL     OW35762   3.661   1.493   6.803  0.7138 -0.2094  0.5803
11651SOL    HW135763   3.721   1.492   6.729  1.2729  0.5829  0.9996
11651SOL    HW235764   3.618   1.408   6.802  0.1072  0.0786 -1.1411
11652SOL     OW35765   0.407   5.301   0.043 -0.6655 -0.2431 -0.4668
11652SOL    HW135766   0.315   5.324   0.034 -0.7358  0.7118  1.9956
11652SOL    HW235767   0.446   5.375   0.090  1.1139 -1.1372 -0.4555
11653SOL     OW35768   6.281   1.431   4.787 -0.0862  0.5806 -0.2673
11653SOL    HW135769   6.275   1.431   4.691 -0.6877  1.1934 -0.2388
11653SOL    HW235770   6.208   1.376   4.815 -0.0634  0.6095 -0.1513
11654SOL     OW35771   0.485   5.701   3.013 -0.4735 -0.0823 -0.4655
11654SOL    HW135772   0.414   5.708   3.077 -0.6381 -2.2877 -0.3326
11654SOL    HW235773   0.563   5.729   3.061 -1.0708  1.6495 -0.3992
11655SOL     OW35774   3.280   0.300   4.625 -0.1103 -0.1310  0.3202
11655SOL    HW135775   3.349   0.361   4.600 -0.4544  0.2345  0.2449
11655SOL    HW235776   3.212   0.355   4.663 -0.5773 -0.4295 -0.0726
11656SOL     OW35777   5.244   5.602   1.839 -0.2173  0.6606 -0.0882
11656SOL    HW135778   5.230   5.690   1.804  0.5553  0.3027 -1.3486
11656SOL    HW235779   5.273   5.550   1.764 -0.9761 -0.7574  0.5649
11657SOL     OW35780   1.289   3.411   1.272  0.6600 -0.2324  0.3672
11657SOL    HW135781   1.307   3.501   1.300  0.0621 -0.6022  2.0529
11657SOL    HW235782   1.256   3.420   1.183  0.4384  1.2422  0.5659
11658SOL     OW35783   4.350   5.183   5.619 -0.5198  0.3045 -0.0733
11658SOL    HW135784   4.405   5.246   5.573  0.3907 -0.4839 -0.0876
11658SOL    HW235785   4.337   5.112   5.557 -3.3537  1.3709 -0.8812
11659SOL     OW35786   4.537   5.746   0.005  0.6099  0.4077 -0.0035
11659SOL    HW135787   4.455   5.726   0.049  0.8893  0.0877  0.3771
11659SOL    HW235788   4.596   5.774   0.074  0.0943  3.0982 -0.5692
11660SOL     OW35789   3.675   1.523   1.420 -0.4152  0.0198 -0.1705
11660SOL    HW135790   3.626   1.559   1.347 -1.0143 -0.8504 -0.2070
11660SOL    HW235791   3.735   1.593   1.446 -0.6993  0.5842 -1.0266
11661SOL     OW35792   4.656   0.385   7.065 -0.8152 -0.0060  0.0687
11661SOL    HW135793   4.697   0.405   7.149 -0.1442 -0.9273 -0.0131
11661SOL    HW235794   4.594   0.456   7.049 -0.3302  0.6136  0.9348
11662SOL     OW35795   0.440   4.611   7.216  0.2657  0.1121 -0.5456
11662SOL    HW135796   0.406   4.585   7.130 -0.7233 -0.2521 -0.0628
11662SOL    HW235797   0.531   4.635   7.200  0.6083 -1.6131 -1.4045
11663SOL     OW35798   2.005   1.302   6.135 -0.1675 -0.9629 -0.1849
11663SOL    HW135799   2.024   1.393   6.155 -1.9476 -0.9707  1.8956
11663SOL    HW235800   1.956   1.305   6.052  0.7554 -0.1760 -0.7209
11664SOL     OW35801   7.650   6.344   0.489  0.3854 -0.5036  0.1502
11664SOL    HW135802   7.619   6.431   0.513  1.0675 -0.3926  0.6543
11664SOL    HW235803   7.580   6.285   0.517 -1.7375  0.0967 -3.3581
11665SOL     OW35804   5.817   1.911   7.978 -0.0341  0.1935 -0.4931
11665SOL    HW135805   5.740   1.906   7.923  1.2341  1.5274 -2.5291
11665SOL    HW235806   5.783   1.925   8.067 -2.1558 -2.6660 -0.7391
11666SOL     OW35807   2.879   0.979   5.560 -0.6793 -0.2343 -0.2937
11666SOL    HW135808   2.861   0.901   5.613 -1.0305 -0.5070 -0.8163
11666SOL    HW235809   2.956   0.955   5.508  1.2537  0.8844  1.8455
11667SOL     OW35810   6.013   0.402   4.510 -0.2546 -0.2520 -0.7870
11667SOL    HW135811   5.982   0.492   4.521  0.4114 -0.1757  0.5975
11667SOL    HW235812   6.059   0.381   4.591  0.7192 -1.4031 -1.5797
11668SOL     OW35813   6.279   7.263   3.894 -0.4103  0.5608 -0.2002
11668SOL    HW135814   6.355   7.208   3.910 -0.4132  0.5312 -0.2878
11668SOL    HW235815   6.289   7.336   3.955  0.2985  1.1617 -1.0119
11669SOL     OW35816   6.447   2.055   0.345 -0.6415 -0.7115 -0.2749
11669SOL    HW135817   6.507   1.980   0.339 -0.4548 -0.6009  0.1715
11669SOL    HW235818   6.495   2.128   0.306  0.2765 -0.1726  1.7081
11670SOL     OW35819   3.307   7.552   7.059 -0.3511 -0.0428  0.5094
11670SOL    HW135820   3.223   7.585   7.092  0.3082  2.5505 -0.2124
11670SOL    HW235821   3.305   7.571   6.965  0.4677 -1.3207  0.2057
11671SOL     OW35822   5.848   7.357   6.389 -0.3525  0.4816 -0.2964
11671SOL    HW135823   5.893   7.292   6.443 -2.2127 -1.3162 -0.7970
11671SOL    HW235824   5.856   7.324   6.299 -3.1963 -0.3343 -0.3385
11672SOL     OW35825   7.673   2.358   2.812 -0.0278  0.4314 -0.6087
11672SOL    HW135826   7.742   2.314   2.861  0.4209  1.4534 -0.3103
11672SOL    HW235827   7.594   2.346   2.865  0.2932  0.8396 -0.0282
11673SOL     OW35828   3.839   2.171   7.664  0.1464  0.5086 -0.0383
11673SOL    HW135829   3.800   2.172   7.751  1.1028 -0.4231  0.4342
11673SOL    HW235830   3.777   2.122   7.610  0.0247  0.2059  0.3731
11674SOL     OW35831   1.970   0.904   0.996  0.2221  0.3712  0.4642
11674SOL    HW135832   2.051   0.911   0.946  0.3742  0.5992  0.7363
11674SOL    HW235833   1.948   0.994   1.019 -0.5943  0.3930 -0.3624
11675SOL     OW35834   5.334   2.626   4.665  0.2969  0.2505  0.1060
11675SOL    HW135835   5.263   2.673   4.622  0.8536 -0.2111 -1.3781
11675SOL    HW235836   5.414   2.666   4.630  0.7854  0.2868  1.2132
11676SOL     OW35837   6.419   0.955   3.362  0.7053 -0.2699  0.0431
11676SOL    HW135838   6.360   0.924   3.294  0.2162 -1.0995  0.8246
11676SOL    HW235839   6.441   1.045   3.336 -0.9215  0.0745 -0.2564
11677SOL     OW35840   2.416   1.454   7.502  0.0489  0.0518  0.5176
11677SOL    HW135841   2.464   1.400   7.440  0.0224 -0.9470  1.3311
11677SOL    HW235842   2.329   1.413   7.507 -0.5821  1.2209 -0.1607
11678SOL     OW35843   5.884   5.888   3.725 -0.4828  0.2005  0.9158
11678SOL    HW135844   5.922   5.823   3.665  1.3067  1.1982  0.9008
11678SOL    HW235845   5.790   5.883   3.708 -0.0252  1.1804 -2.8294
11679SOL     OW35846   1.467   6.784   2.787  0.4129  0.1286 -0.1986
11679SOL    HW135847   1.530   6.852   2.813  1.5906  0.0291 -2.5355
11679SOL    HW235848   1.383   6.830   2.783  0.9047  1.0682 -0.1370
11680SOL     OW35849   2.548   0.640   2.974  0.2113  0.1673  0.1978
11680SOL    HW135850   2.621   0.697   2.998  0.9199  0.5583 -2.5264
11680SOL    HW235851   2.582   0.586   2.903 -1.7819 -0.4878 -0.3201
11681SOL     OW35852   0.565   5.849   1.106  0.2164 -0.2196  0.0518
11681SOL    HW135853   0.518   5.931   1.123  0.4346  0.1118 -0.8760
11681SOL    HW235854   0.626   5.871   1.035  1.9859 -0.5501  1.3974
11682SOL     OW35855   3.890   5.013   1.731  0.5880  0.6033  0.2294
11682SOL    HW135856   3.965   5.058   1.691  0.0177  0.3987 -1.1536
11682SOL    HW235857   3.817   5.034   1.673 -0.9958  2.7438  2.7656
11683SOL     OW35858   1.313   4.159   0.264  0.2291 -0.3000  0.4232
11683SOL    HW135859   1.220   4.168   0.246  0.2052 -1.1657  0.0621
11683SOL    HW235860   1.327   4.065   0.274  0.8539 -0.1096  1.6490
11684SOL     OW35861   3.640   3.341   7.176  0.2481 -0.3743 -0.0624
11684SOL    HW135862   3.577   3.405   7.141  0.2829 -0.0950  0.3781
11684SOL    HW235863   3.687   3.310   7.099  0.8040  0.7509 -0.2064
11685SOL     OW35864   4.957   0.275   6.845 -0.2813  0.2288  0.0751
11685SOL    HW135865   4.936   0.207   6.781  1.5914 -0.4707  0.1532
11685SOL    HW235866   4.901   0.256   6.920 -2.0508  0.6886 -1.0530
11686SOL     OW35867   4.567   5.822   4.351 -0.0525  0.1825 -0.6936
11686SOL    HW135868   4.592   5.822   4.443  0.1975  0.8909 -0.7508
11686SOL    HW235869   4.570   5.730   4.325  0.0994  0.0022 -0.0583
11687SOL     OW35870   2.124   5.031   5.255 -0.1068 -0.4707  0.5751
11687SOL    HW135871   2.185   4.971   5.212  0.4548  0.0574  0.6223
11687SOL    HW235872   2.176   5.109   5.273 -0.9825  0.2659 -0.0226
11688SOL     OW35873   1.228   1.310   4.123 -0.4534 -0.2610 -0.0301
11688SOL    HW135874   1.275   1.329   4.204 -1.5955  0.1650  0.5476
11688SOL    HW235875   1.235   1.215   4.114 -0.8092 -0.3916  0.8976
11689SOL     OW35876   6.867   7.739   6.947  0.2057  0.2245  0.2666
11689SOL    HW135877   6.918   7.723   6.868  1.9302  3.0750  0.6345
11689SOL    HW235878   6.794   7.793   6.918  0.0190  0.0525  0.4139
11690SOL     OW35879   1.070   7.641   0.344  0.3745 -0.3287 -0.3669
11690SOL    HW135880   1.095   7.678   0.259 -2.0843  1.7043 -0.3139
11690SOL    HW235881   0.981   7.610   0.331  0.5270 -1.4591  1.0885
11691SOL     OW35882   7.231   5.887   1.181 -0.9478  0.0174  1.1330
11691SOL    HW135883   7.316   5.915   1.214 -0.4407 -1.6490  1.3375
11691SOL    HW235884   7.183   5.968   1.165  0.8575  1.0063  0.5210
11692SOL     OW35885   4.401   0.875   5.322  0.3733  0.8404 -0.3692
11692SOL    HW135886   4.332   0.928   5.363  1.0945  0.9081  0.7926
11692SOL    HW235887   4.474   0.936   5.310  1.7955 -0.1457  2.4216
11693SOL     OW35888   5.856   0.196   7.215  0.4473 -0.6444  0.0837
11693SOL    HW135889   5.920   0.146   7.265 -0.3356  0.2124  2.0438
11693SOL    HW235890   5.897   0.282   7.202  0.1300 -0.4319  0.4444
11694SOL     OW35891   5.114   0.737   1.230 -0.1072 -0.6378 -0.4705
11694SOL    HW135892   5.132   0.816   1.179 -0.2436 -0.6283 -0.5047
11694SOL    HW235893   5.085   0.770   1.315  1.5513 -0.6443  0.1455
11695SOL     OW35894   4.165   5.760   4.901 -0.5471  0.3731  0.5186
11695SOL    HW135895   4.148   5.785   4.810 -1.2080 -1.4929  0.0767
11695SOL    HW235896   4.087   5.787   4.949 -1.8302 -1.8445 -0.1894
11696SOL     OW35897   3.442   4.983   3.592 -0.0458  0.1235 -0.5736
11696SOL    HW135898   3.408   4.895   3.610  1.7923 -0.7089 -0.9662
11696SOL    HW235899   3.497   5.004   3.667  0.2400  0.5528 -0.8999
11697SOL     OW35900   2.404   3.144   0.442  0.0311 -0.2794  0.8384
11697SOL    HW135901   2.374   3.201   0.372  0.0144 -0.5257  0.6410
11697SOL    HW235902   2.498   3.137   0.429 -0.1754 -1.7638 -0.2811
11698SOL     OW35903   6.085   3.067   1.102  0.0600  0.2740  0.0898
11698SOL    HW135904   6.093   3.107   1.188  0.3702  0.3295  0.0368
11698SOL    HW235905   6.070   2.974   1.119  0.4084  0.2366  0.2017
11699SOL     OW35906   3.822   0.971   6.462  0.0976 -0.3010 -0.6487
11699SOL    HW135907   3.840   0.918   6.384 -0.9252 -0.3367 -0.8810
11699SOL    HW235908   3.751   0.924   6.507  2.0386 -1.4251  1.4557
11700SOL     OW35909   3.249   4.238   7.671 -0.0725  0.2166  0.1026
11700SOL    HW135910   3.216   4.187   7.597 -0.1399 -0.7831  0.7962
11700SOL    HW235911   3.233   4.329   7.647  0.0341 -0.0799 -1.1650
11701SOL     OW35912   0.861   0.449   6.188  0.3215 -0.4557 -0.4590
11701SOL    HW135913   0.950   0.477   6.168  0.3143 -0.8106 -1.0069
11701SOL    HW235914   0.858   0.357   6.163  0.1402 -0.7764  0.6620
11702SOL     OW35915   1.783   0.387   6.289  0.2699 -0.5133  0.3506
11702SOL    HW135916   1.721   0.374   6.361  1.9719  0.0886  2.0145
11702SOL    HW235917   1.776   0.306   6.237 -2.5348 -0.0886 -0.1268
11703SOL     OW35918   0.882   3.239   6.923  0.5181  0.3350  0.4077
11703SOL    HW135919   0.938   3.268   6.851 -1.3955 -0.2109 -1.3827
11703SOL    HW235920   0.843   3.319   6.958  0.6955  0.5230  0.1726
11704SOL     OW35921   3.312   2.728   2.552  0.4922 -0.2215  0.0186
11704SOL    HW135922   3.406   2.730   2.534  0.5004  0.2697  0.1185
11704SOL    HW235923   3.301   2.658   2.617  0.6679 -0.9013 -0.6730
11705SOL     OW35924   5.191   2.849   2.283  0.4383 -0.3757  0.5895
11705SOL    HW135925   5.127   2.780   2.300 -0.4719  0.3992  0.3584
11705SOL    HW235926   5.153   2.928   2.321  1.0948  0.1712  0.1408
11706SOL     OW35927   3.581   0.434   1.531  0.6429 -0.0297 -0.0035
11706SOL    HW135928   3.648   0.445   1.464  0.9811  3.8289  0.7711
11706SOL    HW235929   3.629   0.423   1.613  0.3676  1.4824  0.3834
11707SOL     OW35930   4.716   6.322   4.345  0.4812  0.0783  0.2914
11707SOL    HW135931   4.724   6.319   4.250 -0.6664  0.9453  0.1519
11707SOL    HW235932   4.646   6.260   4.365  0.6146  0.0142  0.5567
11708SOL     OW35933   6.630   7.873   7.700 -0.5685 -0.1414 -0.0529
11708SOL    HW135934   6.576   7.947   7.725 -1.0710  0.1707 -1.8894
11708SOL    HW235935   6.597   7.800   7.752 -1.0245  0.6119  0.7304
11709SOL     OW35936   1.852   2.291   5.466 -0.4438  0.5220  0.1054
11709SOL    HW135937   1.786   2.355   5.437 -0.2696 -0.0846 -1.7892
11709SOL    HW235938   1.906   2.276   5.388  0.8978 -0.2759  1.1462
11710SOL     OW35939   2.582   5.488   0.598  0.4507 -0.3165 -0.7409
11710SOL    HW135940   2.489   5.489   0.620  0.1989 -0.9206 -1.7251
11710SOL    HW235941   2.585   5.511   0.506  0.9640 -3.4107 -1.6115
11711SOL     OW35942   3.862   1.724   2.420  0.0034 -0.6460  0.0772
11711SOL    HW135943   3.919   1.767   2.357 -0.4753  0.3893  0.3212
11711SOL    HW235944   3.777   1.719   2.375  0.0262 -1.2220  0.0994
11712SOL     OW35945   6.957   1.264   2.975  0.5059 -0.5324 -0.4885
11712SOL    HW135946   7.047   1.296   2.986  1.0043 -2.1328  0.3717
11712SOL    HW235947   6.967   1.185   2.922 -0.2834 -1.2359  0.3983
11713SOL     OW35948   7.133   6.347   2.857  0.5991 -0.0895 -0.2309
11713SOL    HW135949   7.183   6.365   2.936  0.1410 -0.0619  0.0547
11713SOL    HW235950   7.199   6.345   2.787  1.5951 -3.7678  0.5960
11714SOL     OW35951   4.045   4.038   1.193 -0.0727  0.5930  0.0400
11714SOL    HW135952   4.119   4.096   1.207 -0.7568  1.2986  0.8226
11714SOL    HW235953   3.994   4.079   1.124 -0.5883  0.9711  0.6343
11715SOL     OW35954   7.773   2.509   4.734 -0.5190  0.6619  0.2306
11715SOL    HW135955   7.682   2.483   4.721 -0.4966  1.0805 -0.9548
11715SOL    HW235956   7.797   2.474   4.819 -0.9673 -1.7645 -0.5738
11716SOL     OW35957   6.093   2.479   5.439 -0.0120 -0.3931 -0.1060
11716SOL    HW135958   5.998   2.494   5.443  0.1138  0.1523  2.2514
11716SOL    HW235959   6.101   2.388   5.411 -1.2810 -0.6989  0.4263
11717SOL     OW35960   5.242   2.110   3.984  0.1748  0.3793  0.4869
11717SOL    HW135961   5.322   2.060   3.969 -0.0026  0.5233 -1.1611
11717SOL    HW235962   5.172   2.053   3.951 -0.2510  0.8703  0.5301
11718SOL     OW35963   4.674   2.229   3.664  0.1840 -0.5316  0.4884
11718SOL    HW135964   4.754   2.187   3.631  0.2986 -1.0899  1.4242
11718SOL    HW235965   4.661   2.190   3.751 -1.6541 -1.1597 -0.0294
11719SOL     OW35966   5.131   5.332   3.439 -0.0030 -0.0313  0.3864
11719SOL    HW135967   5.122   5.237   3.446 -0.3865 -0.0128  0.1401
11719SOL    HW235968   5.114   5.364   3.528 -2.6286  0.0236 -0.0503
11720SOL     OW35969   5.004   7.173   1.732 -0.6859  0.0827 -0.2577
11720SOL    HW135970   5.018   7.089   1.689 -0.5155  0.3029 -0.6384
11720SOL    HW235971   4.909   7.182   1.738 -0.7627  0.6741 -1.8564
11721SOL     OW35972   1.623   0.566   7.349 -0.0249  0.2726 -0.3664
11721SOL    HW135973   1.695   0.625   7.324  0.8951 -1.2311 -1.4533
11721SOL    HW235974   1.638   0.549   7.442  0.3461  0.8609 -0.3089
11722SOL     OW35975   6.350   2.816   6.264  0.2082 -0.2806 -0.5377
11722SOL    HW135976   6.293   2.784   6.194  0.5804 -2.6761  0.1310
11722SOL    HW235977   6.325   2.907   6.276 -0.8488 -0.2036 -2.7970
11723SOL     OW35978   7.882   3.654   5.869  0.1549 -0.1626  0.4402
11723SOL    HW135979   7.952   3.589   5.879  0.4098  0.0987  0.3658
11723SOL    HW235980   7.894   3.689   5.781  0.8893  0.9834  0.9773
11724SOL     OW35981   2.068   2.909   3.631  0.1802  0.0564  0.7794
11724SOL    HW135982   2.054   2.977   3.697  2.8893  1.0649  0.4378
11724SOL    HW235983   2.159   2.921   3.603  0.2236 -2.6496 -0.5523
11725SOL     OW35984   2.530   4.014   3.360  0.4758 -0.3640  0.0432
11725SOL    HW135985   2.451   4.034   3.411  0.6657  1.0994 -0.2024
11725SOL    HW235986   2.496   3.983   3.276  0.1506 -0.1302  0.0829
11726SOL     OW35987   7.794   5.076   5.316 -0.0030  0.2464 -0.1739
11726SOL    HW135988   7.781   5.125   5.235  1.3163  1.8480  0.5359
11726SOL    HW235989   7.878   5.031   5.304  0.0200  0.1981  0.1741
11727SOL     OW35990   0.143   6.475   6.109  0.2843 -0.4774  0.1553
11727SOL    HW135991   0.166   6.495   6.018 -1.7034 -0.6715 -0.4281
11727SOL    HW235992   0.194   6.397   6.130  1.5953  0.1995 -0.4062
11728SOL     OW35993   1.672   3.036   6.968 -0.5017 -0.8527  0.3547
11728SOL    HW135994   1.679   3.111   7.027 -0.2742 -0.5003 -0.1211
11728SOL    HW235995   1.692   3.071   6.881  0.6866 -1.6732  0.2700
11729SOL     OW35996   7.979   7.866   6.457 -0.2542 -0.3398  0.6442
11729SOL    HW135997   8.054   7.814   6.428 -0.3975  0.2614 -0.8531
11729SOL    HW235998   7.933   7.890   6.377 -0.3743  1.8444  1.2979
11730SOL     OW35999   1.341   4.420   6.454 -0.1373  0.7614 -0.2317
11730SOL    HW136000   1.347   4.514   6.435  0.3944  0.4370 -1.7793
11730SOL    HW236001   1.264   4.412   6.509 -0.8087  1.9871 -0.9420
11731SOL     OW36002   4.897   4.432   7.185  0.6487  0.2989  0.3478
11731SOL    HW136003   4.812   4.476   7.196  1.0715  1.3884 -0.5431
11731SOL    HW236004   4.960   4.504   7.175  1.9380 -0.4388  2.4949
11732SOL     OW36005   7.610   6.480   6.334  0.5697  0.6898 -0.1878
11732SOL    HW136006   7.672   6.428   6.282  0.7201  1.6220 -0.9737
11732SOL    HW236007   7.530   6.480   6.281  0.1607  0.2024  0.4198
11733SOL     OW36008   7.015   6.295   5.648  0.1103  0.3251  0.3734
11733SOL    HW136009   7.054   6.365   5.597 -1.1304  0.3889 -0.5447
11733SOL    HW236010   6.946   6.337   5.699 -1.2690 -0.3163 -0.8807
11734SOL     OW36011   6.271   2.808   4.465 -0.2903 -0.1214 -0.3290
11734SOL    HW136012   6.266   2.898   4.433  1.1809 -0.1506 -0.7044
11734SOL    HW236013   6.299   2.816   4.556 -3.2214 -0.0975  0.6591
11735SOL     OW36014   0.464   7.048   7.185 -0.3505  0.3246  0.2415
11735SOL    HW136015   0.371   7.034   7.200 -0.4753  0.2548 -0.5413
11735SOL    HW236016   0.468   7.124   7.126 -0.1022 -1.5040 -2.2702
11736SOL     OW36017   3.501   5.415   7.022 -0.4812  0.1659  0.3923
11736SOL    HW136018   3.416   5.446   7.053 -0.1159  0.4929  1.0728
11736SOL    HW236019   3.527   5.479   6.956 -0.8252 -0.0194  0.0684
11737SOL     OW36020   0.452   4.684   3.033  0.1280 -0.3488 -0.3029
11737SOL    HW136021   0.424   4.608   2.983 -1.4688  1.2557 -1.9793
11737SOL    HW236022   0.376   4.741   3.036  0.5459  0.2590  2.9295
11738SOL     OW36023   5.038   0.422   4.936 -0.2963  0.0816 -0.0673
11738SOL    HW136024   4.947   0.451   4.924  0.2390  1.8500 -0.0776
11738SOL    HW236025   5.075   0.484   4.999  0.9015 -0.6519 -0.0177
11739SOL     OW36026   4.429   7.253   4.373 -0.3209  0.1470  0.0487
11739SOL    HW136027   4.499   7.188   4.374  0.8684  1.3582 -0.9523
11739SOL    HW236028   4.453   7.314   4.444  1.5248  2.3710 -2.2979
11740SOL     OW36029   1.479   2.835   2.987 -0.0408  0.2024 -0.2196
11740SOL    HW136030   1.404   2.884   2.953  0.9859  0.9469 -1.5624
11740SOL    HW236031   1.453   2.808   3.074 -1.6139  1.0079 -0.3995
11741SOL     OW36032   6.133   6.777   0.792  0.5660 -0.0962 -0.0706
11741SOL    HW136033   6.046   6.773   0.832  1.1181  0.8991  1.2975
11741SOL    HW236034   6.126   6.847   0.727 -0.1767 -1.3419 -1.3873
11742SOL     OW36035   4.003   1.276   0.215  0.2903  0.5817  0.3044
11742SOL    HW136036   4.053   1.357   0.218  0.3596  0.6521 -1.7526
11742SOL    HW236037   3.986   1.261   0.122 -0.7365 -1.1437  0.7257
11743SOL     OW36038   5.653   4.819   6.918 -0.0229 -0.1522  0.0738
11743SOL    HW136039   5.634   4.903   6.960  1.4308 -1.3408  3.3697
11743SOL    HW236040   5.645   4.755   6.988  0.0470 -2.6853 -2.0979
11744SOL     OW36041   7.442   4.646   1.383  0.5705 -0.0391  0.4631
11744SOL    HW136042   7.484   4.560   1.380  1.8397  0.5040  1.3370
11744SOL    HW236043   7.515   4.707   1.398 -0.1422  1.3344 -1.3474
11745SOL     OW36044   2.064   5.451   7.756  0.2563  0.4734  0.1071
11745SOL    HW136045   2.151   5.478   7.725  0.4238 -0.6751 -0.4879
11745SOL    HW236046   2.032   5.392   7.687  0.5387 -1.9755  1.9557
11746SOL     OW36047   8.003   0.122   7.563 -0.4386 -0.2292 -0.0395
11746SOL    HW136048   7.942   0.133   7.490 -1.0573 -1.2508  0.2972
11746SOL    HW236049   8.013   0.209   7.600 -0.3364  0.2536 -1.1585
11747SOL     OW36050   7.075   5.802   0.526  0.4823 -0.3194  0.2249
11747SOL    HW136051   7.100   5.817   0.435 -2.5208 -2.1798 -1.0601
11747SOL    HW236052   7.040   5.886   0.555  0.2803 -0.0242 -0.8110
11748SOL     OW36053   6.847   0.220   0.580 -0.4318  0.7262  0.3923
11748SOL    HW136054   6.880   0.190   0.664 -1.1626  0.3295  0.5386
11748SOL    HW236055   6.857   0.315   0.583 -0.3686  0.7041  0.8852
11749SOL     OW36056   3.458   2.691   6.668  0.3476  0.2006  0.4411
11749SOL    HW136057   3.426   2.681   6.578 -1.8917  0.3481  1.1771
11749SOL    HW236058   3.486   2.603   6.694  0.6709  0.0882 -0.2472
11750SOL     OW36059   5.402   3.165   1.357  0.1912 -0.0743 -0.5699
11750SOL    HW136060   5.338   3.214   1.409  0.9618 -0.6961  1.0355
11750SOL    HW236061   5.445   3.108   1.421  2.7724  0.7437 -1.4715
11751SOL     OW36062   2.262   7.283   1.858 -0.7249  0.4177  0.5100
11751SOL    HW136063   2.247   7.349   1.791 -1.5411  0.2577  0.5223
11751SOL    HW236064   2.248   7.329   1.941 -0.1671  0.5054  0.5580
11752SOL     OW36065   5.200   2.713   7.971 -0.7127 -0.1705  0.3169
11752SOL    HW136066   5.220   2.770   7.896 -1.4875 -0.7767 -0.3801
11752SOL    HW236067   5.105   2.716   7.978 -0.5805  0.8291  2.0706
11753SOL     OW36068   3.866   5.181   5.836 -0.4968  0.4985 -0.0781
11753SOL    HW136069   3.857   5.138   5.921  0.4658  0.8736  0.2225
11753SOL    HW236070   3.776   5.197   5.807 -0.9272 -2.1578 -0.4445
11754SOL     OW36071   2.868   7.284   3.435 -0.1637 -0.8292 -0.2438
11754SOL    HW136072   2.935   7.349   3.416 -0.2726 -1.0218 -1.3552
11754SOL    HW236073   2.823   7.316   3.513  1.1431 -0.6412  0.4463
11755SOL     OW36074   0.877   3.064   1.437 -0.2973  0.6233 -0.1038
11755SOL    HW136075   0.818   3.069   1.362 -0.0040 -0.3834 -0.4119
11755SOL    HW236076   0.953   3.015   1.405 -0.6486 -0.7984  1.1383
11756SOL     OW36077   1.784   6.604   6.848  0.6104 -0.1547 -0.0127
11756SOL    HW136078   1.688   6.598   6.846  0.6273 -1.1311  1.2298
11756SOL    HW236079   1.813   6.543   6.780  0.3634 -1.2500  0.8310
11757SOL     OW36080   1.208   7.087   2.569  0.5901 -0.5188 -0.7715
11757SOL    HW136081   1.169   7.100   2.482  0.7452  0.5853 -0.6833
11757SOL    HW236082   1.236   7.174   2.596 -0.8605 -0.5686  1.0744
11758SOL     OW36083   2.207   0.418   0.735  0.0763  0.2209 -0.3500
11758SOL    HW136084   2.141   0.487   0.733  1.3773  1.5145 -1.8155
11758SOL    HW236085   2.280   0.456   0.784 -0.4284 -1.4355  1.8696
11759SOL     OW36086   3.243   1.277   6.226 -0.3537 -0.7705 -0.7519
11759SOL    HW136087   3.230   1.360   6.180  2.1689  1.6028  2.3829
11759SOL    HW236088   3.156   1.236   6.224 -3.2591  4.2120  1.4941
11760SOL     OW36089   6.083   3.541   4.252 -0.1018  0.4162 -0.1724
11760SOL    HW136090   5.990   3.525   4.235 -0.3608  1.3419  0.3085
11760SOL    HW236091   6.127   3.460   4.226 -1.3739 -1.3033  2.5689
11761SOL     OW36092   3.400   5.080   7.499  0.2143  0.0228  0.6858
11761SOL    HW136093   3.426   5.021   7.570 -0.6495  1.0918  1.9351
11761SOL    HW236094   3.450   5.160   7.515  0.8643 -0.0999 -0.5991
11762SOL     OW36095   6.132   4.338   6.024 -0.3520 -0.3416  0.4561
11762SOL    HW136096   6.186   4.407   6.062  0.1314 -0.7677  0.5485
11762SOL    HW236097   6.093   4.378   5.947  0.9845 -0.3635 -0.2637
11763SOL     OW36098   5.649   4.693   1.282 -0.0000  0.3060  0.4452
11763SOL    HW136099   5.738   4.683   1.248 -0.2418  0.8719 -0.3855
11763SOL    HW236100   5.594   4.650   1.217 -0.5549  2.2042 -0.3929
11764SOL     OW36101   7.192   3.541   1.474 -0.1121  0.0387  0.4298
11764SOL    HW136102   7.209   3.594   1.396  0.3937 -0.0782  0.4519
11764SOL    HW236103   7.160   3.457   1.440 -0.0491  0.0453  0.3539
11765SOL     OW36104   1.797   4.220   1.140  0.2706  0.5610 -0.5300
11765SOL    HW136105   1.840   4.271   1.209 -1.2836  0.5335  0.5077
11765SOL    HW236106   1.713   4.264   1.126 -0.1250 -0.3853 -1.2614
11766SOL     OW36107   4.956   1.580   5.603  0.0176  0.4515 -0.0453
11766SOL    HW136108   4.919   1.608   5.519 -1.5705  2.0264  1.0888
11766SOL    HW236109   4.945   1.657   5.659  0.9896 -0.5917  1.6295
11767SOL     OW36110   6.592   7.846   0.495  0.4741 -0.1704  0.3042
11767SOL    HW136111   6.614   7.937   0.473  1.9590 -0.4708  0.4137
11767SOL    HW236112   6.655   7.794   0.444  1.2503 -1.0391  2.0612
11768SOL     OW36113   5.149   1.781   2.420 -0.3488 -0.1037  0.3757
11768SOL    HW136114   5.174   1.689   2.421  3.3486  0.7018 -0.8878
11768SOL    HW236115   5.117   1.799   2.508  0.2628 -2.2527  1.0872
11769SOL     OW36116   6.829   3.808   0.066  0.2661  0.5989 -0.3705
11769SOL    HW136117   6.843   3.877   0.131 -0.9495  0.7041 -0.1960
11769SOL    HW236118   6.868   3.843  -0.014  0.4266  1.1180 -0.0732
11770SOL     OW36119   5.328   7.911   5.602 -0.3804  0.2088 -0.2541
11770SOL    HW136120   5.260   7.864   5.554 -0.2526  0.4858 -0.7123
11770SOL    HW236121   5.379   7.956   5.534  2.4351 -2.7076 -0.3308
11771SOL     OW36122   2.486   2.977   2.059  0.4122 -0.3892 -0.2802
11771SOL    HW136123   2.506   3.034   2.134 -0.8153  0.9739 -0.9427
11771SOL    HW236124   2.391   2.968   2.061  0.1147  1.3189 -2.7977
11772SOL     OW36125   4.224   5.337   1.298  0.4655 -0.1880  0.7397
11772SOL    HW136126   4.182   5.250   1.296 -1.0282  0.4966  0.7611
11772SOL    HW236127   4.238   5.355   1.391 -1.0315  0.3930  0.8782
11773SOL     OW36128   7.751   7.225   0.012  0.2834 -0.1532 -0.0628
11773SOL    HW136129   7.781   7.191  -0.072 -0.0561 -0.9886  0.1398
11773SOL    HW236130   7.660   7.251  -0.004  0.7343  1.2734 -0.3790
11774SOL     OW36131   0.522   6.073   0.728  0.2068 -0.0037 -0.3491
11774SOL    HW136132   0.539   6.154   0.679  1.0310  0.3882  0.5624
11774SOL    HW236133   0.430   6.079   0.754  0.1142  0.3747 -0.7523
11775SOL     OW36134   7.031   6.099   7.882  0.5855 -0.0764  0.2786
11775SOL    HW136135   7.032   6.167   7.815 -1.1773  0.2157  0.5013
11775SOL    HW236136   7.122   6.070   7.888  1.3804  2.2224  0.1617
11776SOL     OW36137   2.772   7.456   6.137 -0.0562  0.6443 -0.3794
11776SOL    HW136138   2.823   7.477   6.216  1.8482 -0.3656 -1.2782
11776SOL    HW236139   2.725   7.537   6.117 -1.6203  0.5662  2.4826
11777SOL     OW36140   7.230   2.952   1.967  0.4961  0.7948  0.0410
11777SOL    HW136141   7.254   2.866   1.933  2.2954  1.3672 -0.2689
11777SOL    HW236142   7.134   2.951   1.970  0.4539 -0.9282 -0.6918
11778SOL     OW36143   1.770   1.848   4.783  0.0835 -0.1205 -0.3197
11778SOL    HW136144   1.799   1.762   4.753  0.4069 -0.0753 -0.1299
11778SOL    HW236145   1.844   1.906   4.767 -0.3488  0.2577 -1.0403
11779SOL     OW36146   6.634   2.279   0.516 -0.1976 -0.0604 -0.5055
11779SOL    HW136147   6.640   2.361   0.466 -0.7560  0.7610  0.7219
11779SOL    HW236148   6.631   2.307   0.608  0.0481 -1.4903 -0.0374
11780SOL     OW36149   1.470   1.941   0.865  0.0342  0.1745  0.4517
11780SOL    HW136150   1.563   1.966   0.864  0.0426  0.2052 -1.1740
11780SOL    HW236151   1.429   1.998   0.800 -0.6489 -1.4439 -0.6132
11781SOL     OW36152   4.377   2.417   4.549  0.1698 -0.0382  0.4646
11781SOL    HW136153   4.306   2.374   4.597  1.3734  0.1163  2.4437
11781SOL    HW236154   4.450   2.355   4.553  0.4845  0.2229 -0.7193
11782SOL     OW36155   5.075   5.670   2.243 -0.3166 -0.5869 -0.2829
11782SOL    HW136156   5.114   5.758   2.234 -0.0529 -0.8560 -2.1125
11782SOL    HW236157   4.985   5.680   2.212 -0.6295 -0.7416  0.5543
11783SOL     OW36158   3.576   3.936   4.176  0.5077 -0.0211  0.3942
11783SOL    HW136159   3.604   3.916   4.086 -1.3102  1.0691 -0.4808
11783SOL    HW236160   3.647   3.988   4.212  2.5485 -2.7638  0.6256
11784SOL     OW36161   7.302   3.835   2.500 -0.7408 -0.2469  0.2123
11784SOL    HW136162   7.274   3.913   2.548  1.4906 -0.1892  1.5848
11784SOL    HW236163   7.247   3.765   2.533 -0.3491  0.1106  1.6733
11785SOL     OW36164   0.501   3.716   3.064  0.7110  0.0866 -0.4903
11785SOL    HW136165   0.543   3.667   2.993 -2.8535 -0.5561 -2.3933
11785SOL    HW236166   0.504   3.807   3.036 -1.4342 -0.2500 -2.0529
11786SOL     OW36167   5.953   4.022   0.835 -0.3508 -0.4224  0.8996
11786SOL    HW136168   5.873   4.054   0.877  0.6011  2.4107  0.8009
11786SOL    HW236169   6.020   4.085   0.862  2.1239 -3.2108  1.7482
11787SOL     OW36170   2.355   6.908   5.610  0.3068 -0.5490 -0.6715
11787SOL    HW136171   2.395   6.842   5.667 -2.9095 -0.0927  2.5063
11787SOL    HW236172   2.426   6.968   5.589  2.2817 -2.3397  0.4678
11788SOL     OW36173   2.613   2.875   0.135  0.0112  0.3223 -0.0005
11788SOL    HW136174   2.589   2.855   0.044 -1.0684 -0.1960  0.3804
11788SOL    HW236175   2.686   2.936   0.128 -0.2782  0.5506 -1.2211
11789SOL     OW36176   3.211   3.588   4.136  0.5505 -0.0752  0.4228
11789SOL    HW136177   3.153   3.517   4.165 -0.9616  0.2185 -1.6229
11789SOL    HW236178   3.294   3.570   4.179 -0.7126 -1.1666  2.6029
11790SOL     OW36179   5.108   4.022   5.372 -0.2803 -0.4440 -0.1514
11790SOL    HW136180   5.161   4.067   5.438 -0.3684 -0.9378  0.2579
11790SOL    HW236181   5.056   4.092   5.332 -1.6400 -0.3735  1.6119
11791SOL     OW36182   2.675   0.674   2.228 -0.3626  0.5336  0.0484
11791SOL    HW136183   2.664   0.727   2.150 -0.7565 -0.4919 -0.6139
11791SOL    HW236184   2.586   0.654   2.256 -0.3614  3.2256  2.4599
11792SOL     OW36185   2.260   3.857   0.453 -0.2768 -0.0299  0.4899
11792SOL    HW136186   2.248   3.843   0.359  2.6198  0.2416 -0.0103
11792SOL    HW236187   2.284   3.949   0.461  1.4161 -0.4958  1.2250
11793SOL     OW36188   7.889   4.143   0.205 -0.0413 -0.4613 -0.1892
11793SOL    HW136189   7.894   4.210   0.138  0.2253 -0.2931 -0.0016
11793SOL    HW236190   7.799   4.110   0.199 -0.1344 -0.1777 -0.3659
11794SOL     OW36191   7.765   1.062   5.392  0.0795  0.4603 -0.0992
11794SOL    HW136192   7.679   1.019   5.399  0.7868 -1.1502 -0.9405
11794SOL    HW236193   7.824   1.007   5.444  1.3250 -0.5791 -2.4476
11795SOL     OW36194   1.738   2.262   5.730  0.3056  0.2582  0.5339
11795SOL    HW136195   1.807   2.291   5.790  0.2539 -0.3482  0.8936
11795SOL    HW236196   1.777   2.271   5.643  1.0708 -0.6538  0.7678
11796SOL     OW36197   6.095   4.502   0.974  0.5024  0.3253 -0.4241
11796SOL    HW136198   6.125   4.546   0.894  0.6886  1.3664  0.1990
11796SOL    HW236199   6.124   4.559   1.045 -1.2013  0.3355  0.3123
11797SOL     OW36200   5.557   6.082   1.364 -0.5144 -0.1274 -0.0743
11797SOL    HW136201   5.564   6.164   1.413 -1.2226  0.7886 -1.4279
11797SOL    HW236202   5.647   6.059   1.341 -0.2912  0.1302  0.5334
11798SOL     OW36203   7.831   4.026   3.466 -0.2902  0.0380  0.2047
11798SOL    HW136204   7.812   4.111   3.504 -0.0880  0.2097 -0.0714
11798SOL    HW236205   7.819   4.039   3.371 -1.8673 -0.6630  0.2850
11799SOL     OW36206   1.423   3.173   1.158  0.1122 -0.1250  0.7432
11799SOL    HW136207   1.400   3.218   1.076  1.6706 -1.1860 -0.3499
11799SOL    HW236208   1.411   3.239   1.226 -0.8572  0.9147 -0.3850
11800SOL     OW36209   5.386   4.660   2.679  0.2624  0.3968  0.0356
11800SOL    HW136210   5.389   4.597   2.751  2.5584  0.6469  0.2306
11800SOL    HW236211   5.316   4.628   2.622 -2.1005  0.5390  2.6225
11801SOL     OW36212   3.259   2.690   1.395 -0.2516 -0.2695  0.3375
11801SOL    HW136213   3.265   2.596   1.412  0.9727 -0.4104 -0.7091
11801SOL    HW236214   3.329   2.728   1.449 -0.0707 -0.0816 -0.0264
11802SOL     OW36215   1.390   6.243   6.575  0.3726  0.1098  0.2094
11802SOL    HW136216   1.305   6.208   6.547  0.3055  0.6804 -0.3194
11802SOL    HW236217   1.380   6.260   6.668 -0.0984  0.1742  0.1490
11803SOL     OW36218   5.080   7.124   7.976  0.2114  0.0268 -0.0146
11803SOL    HW136219   5.107   7.207   8.015  1.0968 -0.9374  1.4906
11803SOL    HW236220   5.038   7.076   8.048 -2.2630 -0.0255 -1.3683
11804SOL     OW36221   7.078   2.380   4.482 -0.2509  0.3720 -0.3889
11804SOL    HW136222   7.066   2.286   4.495 -1.7927  0.5950 -0.0404
11804SOL    HW236223   6.995   2.419   4.508  1.2103  2.0946  2.1127
11805SOL     OW36224   0.070   6.027   3.420 -0.2539 -0.4633 -0.0193
11805SOL    HW136225   0.098   6.046   3.331 -1.0101  0.6522 -0.0395
11805SOL    HW236226   0.141   5.975   3.457  1.3191  1.2919 -0.4258
11806SOL     OW36227   6.319   4.525   5.830 -0.4165  0.7744 -0.2491
11806SOL    HW136228   6.374   4.447   5.841 -0.6134  0.6374 -0.2328
11806SOL    HW236229   6.266   4.506   5.753 -1.9439 -0.0041  0.9247
11807SOL     OW36230   7.230   2.477   7.662  0.3177  0.3185 -0.0870
11807SOL    HW136231   7.207   2.488   7.754 -0.7330  3.3152 -0.5810
11807SOL    HW236232   7.317   2.516   7.654  0.1261  0.6820 -0.4604
11808SOL     OW36233   1.520   0.128   0.089 -0.2198  0.2842 -0.3317
11808SOL    HW136234   1.508   0.098   0.179  0.4173  0.9201 -0.0261
11808SOL    HW236235   1.544   0.048   0.040 -0.8054 -0.1030  0.0031
11809SOL     OW36236   0.905   0.747   5.879 -0.3254  0.3927  0.0412
11809SOL    HW136237   0.960   0.821   5.855  2.2899 -0.7135  2.1465
11809SOL    HW236238   0.896   0.697   5.798 -0.1308  1.7495 -0.8521
11810SOL     OW36239   5.511   7.758   6.105 -0.2963  0.3375  0.5721
11810SOL    HW136240   5.452   7.798   6.041 -0.7616 -0.5350  0.4321
11810SOL    HW236241   5.582   7.822   6.117 -0.7399  0.9512 -0.0356
11811SOL     OW36242   6.256   5.644   1.337 -0.3286 -0.3918  0.5127
11811SOL    HW136243   6.243   5.630   1.430 -1.1512  1.5753  0.7331
11811SOL    HW236244   6.349   5.626   1.323  0.1924  0.9202  2.0447
11812SOL     OW36245   2.949   2.402   6.564 -0.6849 -0.6155 -0.3947
11812SOL    HW136246   2.930   2.445   6.648 -0.3154 -0.0207 -0.6099
11812SOL    HW236247   3.032   2.440   6.536 -0.9982 -0.5170 -1.2190
11813SOL     OW36248   1.275   5.118   1.399 -0.3998  0.0932 -0.0905
11813SOL    HW136249   1.240   5.060   1.466 -0.8143  0.2305 -0.1898
11813SOL    HW236250   1.200   5.140   1.344  0.2586 -1.5133 -1.7300
11814SOL     OW36251   1.526   5.085   2.176 -0.2002  0.0895 -0.3412
11814SOL    HW136252   1.556   4.997   2.153 -0.8324 -0.1153 -0.4021
11814SOL    HW236253   1.512   5.129   2.092  0.0736  0.2329 -0.3114
11815SOL     OW36254   7.603   7.905   2.642 -0.0083  0.3472  0.7958
11815SOL    HW136255   7.602   7.825   2.695  1.6520  0.3862  0.9420
11815SOL    HW236256   7.691   7.909   2.606  0.4822  2.8792  2.0038
11816SOL     OW36257   4.409   4.772   0.332  0.0676  0.0514  0.3784
11816SOL    HW136258   4.402   4.742   0.423  0.4410 -0.6872  0.1721
11816SOL    HW236259   4.492   4.737   0.302 -0.8141 -1.1228 -0.7577
11817SOL     OW36260   2.843   0.527   7.465 -0.4109 -0.1891  0.5960
11817SOL    HW136261   2.907   0.465   7.498  0.9795 -0.6302 -2.5155
11817SOL    HW236262   2.770   0.473   7.434  0.5035 -0.3563 -1.4800
11818SOL     OW36263   3.329   0.152   0.822  0.2040  0.6139  0.7866
11818SOL    HW136264   3.308   0.090   0.753  2.5120  1.0292 -0.3676
11818SOL    HW236265   3.314   0.238   0.783 -0.3488  0.8327  1.4635
11819SOL     OW36266   0.851   1.834   2.410 -0.5146  0.2982 -0.1933
11819SOL    HW136267   0.940   1.853   2.439 -0.4911  1.5980 -1.0239
11819SOL    HW236268   0.850   1.739   2.394  0.7370  0.2792 -0.2443
11820SOL     OW36269   3.380   7.643   6.129 -0.0480 -0.2587  0.1155
11820SOL    HW136270   3.389   7.568   6.187  0.3861  0.5745  1.1588
11820SOL    HW236271   3.434   7.622   6.053  1.7512 -0.1729  1.2924
11821SOL     OW36272   3.308   3.012   3.196 -0.7882  0.1621  0.4075
11821SOL    HW136273   3.387   3.031   3.145 -1.0741 -0.1387 -0.1538
11821SOL    HW236274   3.337   3.017   3.287 -0.1188  0.0543  0.2067
11822SOL     OW36275   2.190   1.187   2.443  0.3615 -0.9833  0.1764
11822SOL    HW136276   2.185   1.213   2.351  0.3091 -1.2678  0.0988
11822SOL    HW236277   2.264   1.127   2.448  1.8064  0.7610  0.7438
11823SOL     OW36278   7.449   5.184   3.707  0.1666 -0.0293  0.6243
11823SOL    HW136279   7.513   5.229   3.761  0.3617 -0.8595  1.0891
11823SOL    HW236280   7.499   5.152   3.632 -0.1738  1.4717 -0.2988
11824SOL     OW36281   1.811   2.455   1.844 -0.0501 -0.8224  0.4894
11824SOL    HW136282   1.861   2.491   1.917 -0.3779  1.0816 -0.1819
11824SOL    HW236283   1.874   2.398   1.798  0.2794 -1.6881  1.9592
11825SOL     OW36284   0.138   2.886   7.070  0.1908  0.2729 -0.2039
11825SOL    HW136285   0.057   2.849   7.035  0.0804 -0.8120  1.1159
11825SOL    HW236286   0.114   2.975   7.096 -0.3669  0.2360 -0.5818
11826SOL     OW36287   0.147   5.064   7.124  0.1742  0.0095  0.3106
11826SOL    HW136288   0.160   5.097   7.035 -0.9589 -0.7176 -0.1518
11826SOL    HW236289   0.211   5.111   7.177  0.4348  0.9225 -0.7784
11827SOL     OW36290   4.726   4.731   5.223  0.1982  0.0910 -0.4665
11827SOL    HW136291   4.763   4.816   5.249 -0.8422 -0.2715  2.6560
11827SOL    HW236292   4.673   4.751   5.146  0.5767  2.1456 -0.2654
11828SOL     OW36293   3.524   4.356   5.732  0.1501  0.0371 -0.2660
11828SOL    HW136294   3.578   4.283   5.764 -0.8613 -0.1487  1.1088
11828SOL    HW236295   3.561   4.433   5.775 -0.9338 -0.1551  1.0808
11829SOL     OW36296   3.944   5.263   7.295 -0.0915 -0.7180 -0.2150
11829SOL    HW136297   3.988   5.188   7.255  0.0114 -2.2907  2.6235
11829SOL    HW236298   4.014   5.328   7.309  0.5751 -1.5863  0.5970
11830SOL     OW36299   1.314   5.066   0.022 -0.3888  0.1078  0.2834
11830SOL    HW136300   1.302   5.161   0.029  0.7516  0.5384 -2.3437
11830SOL    HW236301   1.271   5.042  -0.060  3.2724 -0.7722 -1.5557
11831SOL     OW36302   6.525   5.734   1.119  0.3284 -0.5173  0.5856
11831SOL    HW136303   6.480   5.649   1.122  0.5339 -0.6051  1.7301
11831SOL    HW236304   6.546   5.747   1.027 -0.8833 -1.0860  0.2099
11832SOL     OW36305   4.363   1.661   6.404  0.2528  0.8658 -0.2424
11832SOL    HW136306   4.458   1.672   6.397  0.7683 -1.2735  1.9044
11832SOL    HW236307   4.332   1.743   6.440  1.6571  0.7854  1.2583
11833SOL     OW36308   4.472   4.400   3.218  0.3541 -0.3604 -0.4301
11833SOL    HW136309   4.440   4.466   3.157 -2.3640 -1.2504 -0.1218
11833SOL    HW236310   4.541   4.445   3.268  0.3537  1.4026 -1.9155
11834SOL     OW36311   6.068   4.444   6.442 -0.1227  0.4808 -0.0953
11834SOL    HW136312   6.038   4.439   6.351  0.2322  1.2412 -0.2641
11834SOL    HW236313   6.014   4.513   6.480 -1.2500 -0.7775  0.6770
11835SOL     OW36314   7.988   6.331   4.536  0.5230 -0.1529 -0.0870
11835SOL    HW136315   8.022   6.372   4.615  0.8903 -1.5656  0.5249
11835SOL    HW236316   8.064   6.324   4.478  0.3989  0.2698 -0.3065
11836SOL     OW36317   5.400   0.636   3.825 -0.2848  0.5003 -0.0202
11836SOL    HW136318   5.327   0.575   3.829 -0.7695  1.0550 -0.3501
11836SOL    HW236319   5.431   0.642   3.916 -0.3782 -0.0508  0.0530
11837SOL     OW36320   0.670   0.869   6.935  0.3529 -0.8250 -0.4202
11837SOL    HW136321   0.629   0.857   6.849  1.5930 -1.1157 -0.9896
11837SOL    HW236322   0.740   0.932   6.919  0.5110 -0.7890  0.4156
11838SOL     OW36323   4.588   4.250   7.482  0.0990  0.5288  0.1486
11838SOL    HW136324   4.586   4.292   7.567  0.3212 -3.2466  2.2661
11838SOL    HW236325   4.497   4.230   7.463  0.2011 -0.5261  0.6556
11839SOL     OW36326   4.899   7.804   6.649  0.2660  0.0061 -0.1782
11839SOL    HW136327   4.828   7.766   6.700 -0.2520 -1.1030 -1.6699
11839SOL    HW236328   4.976   7.752   6.672  0.3278  0.3444  0.4143
11840SOL     OW36329   1.150   4.589   0.344  0.3200 -0.4333  0.5582
11840SOL    HW136330   1.245   4.597   0.348  0.4229 -1.4033  0.2213
11840SOL    HW236331   1.124   4.563   0.433  0.3640 -0.1902  0.6440
11841SOL     OW36332   0.586   7.887   0.602 -0.1230 -0.2396  0.2863
11841SOL    HW136333   0.679   7.906   0.590 -0.3736  0.8266 -0.1450
11841SOL    HW236334   0.569   7.809   0.550 -0.0539  1.2117 -2.0331
11842SOL     OW36335   2.200   3.347   1.044 -0.3073  0.3364  0.2569
11842SOL    HW136336   2.155   3.299   0.974 -0.3334 -0.5760  0.8808
11842SOL    HW236337   2.131   3.366   1.108  0.0556 -0.6189  0.9741
11843SOL     OW36338   0.540   4.390   6.245 -0.5367  0.1636  0.2529
11843SOL    HW136339   0.634   4.410   6.246 -0.8907  1.9982  1.5692
11843SOL    HW236340   0.511   4.407   6.335 -2.4052  1.1115 -0.4746
11844SOL     OW36341   0.993   3.501   0.961  0.0806 -0.6397 -0.0423
11844SOL    HW136342   0.897   3.496   0.961 -0.0619  1.2579 -0.1948
11844SOL    HW236343   1.021   3.416   0.994 -1.6255 -1.5343 -0.7575
11845SOL     OW36344   5.263   4.486   0.550 -0.0054  0.4430 -0.3154
11845SOL    HW136345   5.168   4.473   0.552 -0.1792  0.8775 -2.7353
11845SOL    HW236346   5.274   4.579   0.570 -0.2593  0.8147 -1.8151
11846SOL     OW36347   3.383   6.452   7.234 -0.6284  0.1433  0.4482
11846SOL    HW136348   3.465   6.473   7.278 -0.7592 -0.3477  0.9216
11846SOL    HW236349   3.316   6.493   7.288 -0.8809 -1.3846  1.3265
11847SOL     OW36350   3.979   5.513   7.816  0.7102 -0.5295  0.3377
11847SOL    HW136351   4.018   5.588   7.772 -0.8061  0.7047  0.9841
11847SOL    HW236352   3.929   5.468   7.748  0.5995 -0.2174  0.2140
11848SOL     OW36353   6.507   7.139   4.455  0.2871 -0.0451  0.2110
11848SOL    HW136354   6.443   7.068   4.451 -0.4232  0.6267 -0.8616
11848SOL    HW236355   6.475   7.204   4.392  1.4642  0.7775  0.4275
11849SOL     OW36356   6.199   3.810   7.324  0.3682 -0.2603  0.2337
11849SOL    HW136357   6.237   3.844   7.243  3.2732 -2.6305  0.4451
11849SOL    HW236358   6.127   3.754   7.295 -0.4091  1.0477 -0.4621
11850SOL     OW36359   2.486   7.361   4.567  0.3875 -0.0827 -0.2664
11850SOL    HW136360   2.581   7.354   4.579  0.6211  1.0212 -1.3101
11850SOL    HW236361   2.457   7.424   4.633  0.3338 -0.5886  0.2013
11851SOL     OW36362   4.574   3.073   3.847  0.1815  0.1583 -0.1734
11851SOL    HW136363   4.663   3.040   3.833 -0.3814 -0.8431 -1.7022
11851SOL    HW236364   4.539   3.085   3.759 -1.4813 -0.2903  0.3891
11852SOL     OW36365   2.586   4.244   2.303 -1.0791  0.4782 -0.8243
11852SOL    HW136366   2.583   4.323   2.357 -0.6429 -0.3865  0.5251
11852SOL    HW236367   2.666   4.252   2.252  1.3202 -0.9106  2.3529
11853SOL     OW36368   6.536   3.843   0.319 -0.7851  0.2842 -0.1831
11853SOL    HW136369   6.564   3.927   0.284 -1.5573  0.2681 -0.8634
11853SOL    HW236370   6.443   3.856   0.339 -0.6185 -0.0412  0.8473
11854SOL     OW36371   3.731   3.247   6.941  0.0772 -0.5257  0.5295
11854SOL    HW136372   3.665   3.182   6.916  0.3481 -1.1842  1.5049
11854SOL    HW236373   3.813   3.212   6.906  0.0278 -0.0292 -0.1101
11855SOL     OW36374   4.115   0.294   7.073 -0.4225 -0.6340 -0.3295
11855SOL    HW136375   4.167   0.359   7.025 -0.0752  0.6530  1.6516
11855SOL    HW236376   4.101   0.334   7.159 -0.9811 -2.8245  0.6675
11856SOL     OW36377   2.766   1.786   3.791 -0.0672 -0.1560  0.1207
11856SOL    HW136378   2.811   1.834   3.722  1.3008 -0.5380  0.7169
11856SOL    HW236379   2.806   1.699   3.790 -0.9829 -0.6000  0.4991
11857SOL     OW36380   6.611   3.703   6.741 -0.8543 -0.1771  0.6467
11857SOL    HW136381   6.667   3.701   6.664  0.2507  1.1454  1.3690
11857SOL    HW236382   6.628   3.621   6.786 -0.5683 -0.4006  0.1347
11858SOL     OW36383   0.343   7.594   3.216  0.1886 -0.2359  0.3741
11858SOL    HW136384   0.351   7.684   3.246 -0.9323 -0.6852  2.1874
11858SOL    HW236385   0.262   7.592   3.165  0.5009 -0.1282 -0.1410
11859SOL     OW36386   2.878   6.058   5.452 -0.7805 -0.1662 -0.4145
11859SOL    HW136387   2.904   6.084   5.541  2.7384 -0.1340 -1.3246
11859SOL    HW236388   2.796   6.009   5.465  0.5114 -1.7090  3.0811
11860SOL     OW36389   0.248   5.100   5.780 -0.4611  0.2217  0.5410
11860SOL    HW136390   0.259   5.195   5.773  0.3829  0.0846 -0.3701
11860SOL    HW236391   0.153   5.086   5.779 -0.5884  1.0395  0.2690
11861SOL     OW36392   3.026   7.494   1.911 -0.2073 -0.0974 -0.3036
11861SOL    HW136393   3.044   7.430   1.980 -1.6305 -0.5842 -0.3475
11861SOL    HW236394   2.936   7.476   1.885 -0.5876  1.8218 -0.4429
11862SOL     OW36395   6.365   1.932   7.161  0.2618  0.3716 -0.0659
11862SOL    HW136396   6.383   1.895   7.074  0.2645 -0.6661  0.3634
11862SOL    HW236397   6.300   1.873   7.199 -1.5760  2.1363 -0.2563
11863SOL     OW36398   7.297   3.564   6.061 -0.0990 -0.1550 -0.3747
11863SOL    HW136399   7.286   3.482   6.012  0.9852 -1.6688  1.7414
11863SOL    HW236400   7.208   3.591   6.083 -0.4513 -1.3967 -0.1711
11864SOL     OW36401   7.021   4.006   6.922 -0.6570 -0.2275  0.1173
11864SOL    HW136402   7.093   3.954   6.957  0.0310 -1.2064 -2.5387
11864SOL    HW236403   7.044   4.022   6.830 -3.1417  0.6651 -0.4472
11865SOL     OW36404   6.826   5.768   2.799 -0.1862  0.2749 -0.3679
11865SOL    HW136405   6.793   5.788   2.887 -1.6956 -0.0026 -0.8395
11865SOL    HW236406   6.921   5.763   2.810 -0.3367  0.2750  1.2412
11866SOL     OW36407   0.220   1.935   4.782 -0.1058  0.1729 -0.3982
11866SOL    HW136408   0.210   1.844   4.810  0.9116 -0.5132 -2.1213
11866SOL    HW236409   0.303   1.936   4.734  0.4515  2.2546  0.4882
11867SOL     OW36410   2.936   3.383   1.871 -0.6522 -0.3839  0.3122
11867SOL    HW136411   2.946   3.310   1.931  0.8222 -0.6586 -0.2287
11867SOL    HW236412   2.865   3.357   1.813 -2.1814 -0.0690  1.9400
11868SOL     OW36413   5.722   2.025   1.550 -0.3880  0.4088  0.2585
11868SOL    HW136414   5.737   1.984   1.636 -0.9769  0.3725  0.3481
11868SOL    HW236415   5.705   1.952   1.491  0.5847  0.3938 -0.0187
11869SOL     OW36416   7.425   2.335   5.229  0.3846 -0.5481  0.2462
11869SOL    HW136417   7.339   2.373   5.246 -0.0280 -0.8741 -0.9867
11869SOL    HW236418   7.487   2.405   5.246 -0.2328  0.1098 -0.1732
11870SOL     OW36419   7.074   1.065   1.638 -0.5439 -0.0028  0.4739
11870SOL    HW136420   7.028   1.109   1.567 -0.5628  0.0647  0.5278
11870SOL    HW236421   7.006   1.014   1.682 -0.2439 -1.3240 -0.5340
11871SOL     OW36422   1.997   7.334   3.141  0.3467 -0.4068  0.5792
11871SOL    HW136423   2.020   7.353   3.051  0.5335 -4.6534 -0.4936
11871SOL    HW236424   1.959   7.415   3.174 -0.6402  1.0595 -3.5786
11872SOL     OW36425   2.016   7.535   1.519  0.4879  0.0957 -0.3844
11872SOL    HW136426   2.098   7.531   1.470 -0.1116  1.8431 -1.6553
11872SOL    HW236427   1.952   7.493   1.462  0.0315  1.0047 -0.5652
11873SOL     OW36428   1.791   5.539   5.447  0.3757  0.4522  0.1738
11873SOL    HW136429   1.728   5.607   5.472 -0.1432  0.0423  0.0116
11873SOL    HW236430   1.737   5.470   5.407  0.7882 -0.4146  1.0667
11874SOL     OW36431   5.520   0.699   7.385 -0.6460 -0.1550  0.2416
11874SOL    HW136432   5.471   0.743   7.455  1.7062 -0.1266  2.0234
11874SOL    HW236433   5.607   0.740   7.388  0.6668 -2.6922 -0.1541
11875SOL     OW36434   0.833   2.659   0.672  0.0962  0.0854  0.5675
11875SOL    HW136435   0.807   2.667   0.764 -1.0487  1.3521  0.1625
11875SOL    HW236436   0.886   2.736   0.655  1.9808 -1.1265  0.6450
11876SOL     OW36437   6.646   5.926   4.799 -0.1779 -0.0631  0.1672
11876SOL    HW136438   6.595   6.001   4.768 -1.8431 -1.4050 -0.5024
11876SOL    HW236439   6.598   5.894   4.875 -1.4271 -2.4220 -1.5206
11877SOL     OW36440   0.470   1.812   0.061 -0.4641  0.5284  0.1532
11877SOL    HW136441   0.403   1.748   0.035 -0.3798  0.9626 -1.1712
11877SOL    HW236442   0.550   1.781   0.019 -0.4286  1.5093 -0.5293
11878SOL     OW36443   4.423   4.169   0.792  0.1297  0.2435  0.1293
11878SOL    HW136444   4.411   4.120   0.874  1.8031 -0.4472  0.0102
11878SOL    HW236445   4.396   4.109   0.724 -1.2909  0.8298  0.1503
11879SOL     OW36446   2.151   6.289   5.241  0.0149 -0.5159 -0.4376
11879SOL    HW136447   2.094   6.228   5.288 -0.0235 -1.1197 -1.2439
11879SOL    HW236448   2.187   6.346   5.310  0.0251 -1.4283  0.3381
11880SOL     OW36449   2.529   0.334   2.324  0.6541  0.0283  0.2271
11880SOL    HW136450   2.502   0.262   2.381  1.0088  1.2296  1.9872
11880SOL    HW236451   2.449   0.359   2.277  0.1179 -0.3907  0.9005
11881SOL     OW36452   7.014   4.294   5.229 -0.0340  0.3983 -0.0361
11881SOL    HW136453   7.037   4.234   5.158  3.0099 -0.6896  1.7059
11881SOL    HW236454   7.045   4.250   5.309 -1.9527  2.2361  1.8550
11882SOL     OW36455   0.602   1.655   3.689 -0.0963  0.2868 -0.0740
11882SOL    HW136456   0.675   1.636   3.630 -1.9973 -0.0666 -2.4986
11882SOL    HW236457   0.580   1.746   3.671 -0.6116  0.2161  0.1771
11883SOL     OW36458   4.424   4.266   3.624 -0.0112 -0.3171 -0.3516
11883SOL    HW136459   4.477   4.327   3.675  1.7378 -1.8038 -0.3328
11883SOL    HW236460   4.383   4.322   3.557  0.5150  1.0720  0.4384
11884SOL     OW36461   3.870   5.330   2.767 -0.3739  0.0991  0.1583
11884SOL    HW136462   3.917   5.348   2.685 -1.3253 -1.4236 -0.7870
11884SOL    HW236463   3.813   5.406   2.780  0.6640  0.9069  0.0757
11885SOL     OW36464   7.547   6.882   1.843 -0.0356 -0.4597 -0.0686
11885SOL    HW136465   7.496   6.820   1.791 -1.9463  0.0746  1.0587
11885SOL    HW236466   7.483   6.921   1.903  1.8328 -0.1865  1.8707
11886SOL     OW36467   7.484   1.811   4.360 -0.9015 -0.3033  0.0179
11886SOL    HW136468   7.477   1.777   4.450 -3.0564  0.7200  0.3026
11886SOL    HW236469   7.454   1.739   4.305 -1.3100 -0.3307  0.2725
11887SOL     OW36470   4.501   2.131   0.384 -0.4847  0.3925  0.0966
11887SOL    HW136471   4.551   2.191   0.440  0.9393 -0.2679 -0.4195
11887SOL    HW236472   4.470   2.064   0.444 -1.3534  1.1593  0.5348
11888SOL     OW36473   7.239   5.215   4.985 -0.0809  0.1982 -0.0477
11888SOL    HW136474   7.245   5.279   4.913 -0.5705 -0.4491 -0.6750
11888SOL    HW236475   7.153   5.175   4.974  0.4144 -0.9165  0.0398
11889SOL     OW36476   7.459   7.374   0.471 -1.1270  0.0249  0.0666
11889SOL    HW136477   7.487   7.465   0.470  0.9803 -0.5772  0.0418
11889SOL    HW236478   7.455   7.349   0.379  2.3649 -0.9939  0.0668
11890SOL     OW36479   0.463   2.640   4.910 -0.0466  0.8777 -0.4121
11890SOL    HW136480   0.435   2.704   4.845 -2.1316  2.4572  1.8666
11890SOL    HW236481   0.443   2.681   4.995  1.4328 -1.5416  1.2466
11891SOL     OW36482   6.565   2.503   5.467  0.1483  0.1123  0.0356
11891SOL    HW136483   6.541   2.595   5.456  1.1216  0.4965  0.9126
11891SOL    HW236484   6.533   2.480   5.554  2.0510  0.3868  0.8708
11892SOL     OW36485   3.642   5.640   7.286 -0.1972  0.5328 -0.2807
11892SOL    HW136486   3.598   5.563   7.248 -1.5716  1.1319  0.0247
11892SOL    HW236487   3.633   5.708   7.220  1.6194  0.2705 -0.8371
11893SOL     OW36488   5.198   4.406   5.287 -0.5974 -0.4204 -0.2391
11893SOL    HW136489   5.269   4.396   5.351  0.4023  0.4832 -1.1649
11893SOL    HW236490   5.194   4.500   5.270 -1.8809 -0.4863 -0.3717
11894SOL     OW36491   4.531   1.344   7.210  0.1380  0.4069 -0.3438
11894SOL    HW136492   4.586   1.410   7.253  1.7819 -1.6299  0.8812
11894SOL    HW236493   4.576   1.323   7.129  0.2140  0.0531 -0.2158
11895SOL     OW36494   2.669   0.252   6.852 -0.2752 -0.4019 -0.5732
11895SOL    HW136495   2.662   0.173   6.798  0.9669 -0.6088 -0.4482
11895SOL    HW236496   2.736   0.231   6.917 -1.3019  0.0759  0.6702
11896SOL     OW36497   5.947   3.630   7.536  0.4661  0.5816 -0.1986
11896SOL    HW136498   5.873   3.601   7.590  1.0581 -3.6497 -1.2996
11896SOL    HW236499   5.918   3.615   7.446  2.5317 -1.2464 -0.6619
11897SOL     OW36500   3.485   7.222   0.462  0.6632  0.4713  0.1280
11897SOL    HW136501   3.393   7.248   0.453  0.0598 -2.0413 -2.4558
11897SOL    HW236502   3.534   7.297   0.430 -0.5061  1.4979  0.6464
11898SOL     OW36503   6.777   6.171   5.202  0.3123  0.1736 -0.3992
11898SOL    HW136504   6.812   6.243   5.150  0.3115  0.4578 -0.0085
11898SOL    HW236505   6.853   6.119   5.226  0.4317  0.5699  0.1118
11899SOL     OW36506   4.221   3.608   2.979  0.1472 -0.2930 -0.2069
11899SOL    HW136507   4.181   3.638   3.061  1.3773  0.2239  0.2410
11899SOL    HW236508   4.160   3.543   2.945 -0.3586 -0.5918  1.1783
11900SOL     OW36509   5.434   3.569   2.723 -0.0885  0.4560  0.5977
11900SOL    HW136510   5.409   3.661   2.715  0.5788  0.7530  1.7091
11900SOL    HW236511   5.503   3.568   2.789 -2.1844 -1.2029  2.9280
11901SOL     OW36512   3.918   6.560   6.848  0.0465 -0.2139  0.5566
11901SOL    HW136513   3.972   6.547   6.926  0.2133  0.4504  0.5587
11901SOL    HW236514   3.939   6.649   6.819  1.1711 -0.9877 -1.1517
11902SOL     OW36515   7.136   0.040   2.273 -0.1276 -0.3059  0.6799
11902SOL    HW136516   7.052   0.014   2.237 -1.0163 -0.0734  2.4677
11902SOL    HW236517   7.129   0.134   2.288  0.8714 -0.0803 -0.1920
11903SOL     OW36518   4.292   0.253   3.394 -0.1150 -0.3093  0.0033
11903SOL    HW136519   4.340   0.190   3.340  1.0659  0.9880 -0.5291
11903SOL    HW236520   4.282   0.209   3.479  0.1930 -1.4212 -0.5143
11904SOL     OW36521   0.183   0.300   3.050 -0.5026  0.2544  0.3312
11904SOL    HW136522   0.100   0.288   3.097 -0.5517 -0.9634 -0.0364
11904SOL    HW236523   0.246   0.249   3.101  0.3318  2.1576  1.3184
11905SOL     OW36524   5.959   3.900   3.587 -0.0453 -0.4857 -0.1407
11905SOL    HW136525   5.883   3.853   3.554  0.1300 -1.6543  1.0389
11905SOL    HW236526   5.973   3.865   3.675  3.2918 -2.0523 -1.1342
11906SOL     OW36527   6.383   5.737   5.216 -0.3430 -0.1816 -0.4001
11906SOL    HW136528   6.441   5.671   5.255 -1.0910 -0.0447  1.0046
11906SOL    HW236529   6.313   5.686   5.175 -0.8284 -0.2847  0.5357
11907SOL     OW36530   4.210   4.878   3.703  1.6015 -0.1757 -0.0306
11907SOL    HW136531   4.216   4.838   3.616 -0.9583  0.1810 -0.4297
11907SOL    HW236532   4.190   4.970   3.686  0.9247 -0.1335  0.9369
11908SOL     OW36533   6.379   1.583   4.998 -0.1283 -0.3948 -0.1381
11908SOL    HW136534   6.470   1.588   4.968 -0.3508  2.0667 -0.5838
11908SOL    HW236535   6.331   1.549   4.922  0.1758 -0.1230 -0.4546
11909SOL     OW36536   4.321   6.865   1.804  0.4487 -0.0816  0.1928
11909SOL    HW136537   4.339   6.825   1.719 -0.8013  0.5023 -0.3777
11909SOL    HW236538   4.385   6.825   1.864  1.6728 -0.1444 -1.1034
11910SOL     OW36539   7.912   1.375   1.267  0.4708  0.0552  0.0899
11910SOL    HW136540   7.927   1.438   1.338  0.3757 -0.4127  0.5374
11910SOL    HW236541   7.999   1.338   1.250  0.3287 -0.5441  0.6506
11911SOL     OW36542   5.432   5.025   4.293  0.6495  0.6916  0.1690
11911SOL    HW136543   5.381   4.982   4.224 -0.3828 -0.7887  1.7611
11911SOL    HW236544   5.498   5.075   4.246  1.7022 -2.3290 -1.8957
11912SOL     OW36545   1.591   4.717   1.709 -0.4610 -0.8178  0.7281
11912SOL    HW136546   1.608   4.630   1.673  1.3288  0.1114 -0.8836
11912SOL    HW236547   1.495   4.724   1.709 -0.6166 -2.1362 -0.8407
11913SOL     OW36548   5.406   5.451   4.944  0.4205 -0.2667 -0.4962
11913SOL    HW136549   5.453   5.368   4.932 -2.2817 -1.7577 -1.5532
11913SOL    HW236550   5.368   5.469   4.858 -2.5517 -0.2222  0.7311
11914SOL     OW36551   4.066   6.679   5.678  0.0172  0.3202  0.1424
11914SOL    HW136552   4.050   6.589   5.708 -1.9768 -0.0107 -1.6163
11914SOL    HW236553   4.042   6.733   5.753  0.7100 -0.5734  1.0459
11915SOL     OW36554   5.183   5.056   0.373  0.0641 -0.1789  0.2430
11915SOL    HW136555   5.173   5.087   0.463  1.7504  0.8342  0.1226
11915SOL    HW236556   5.270   5.017   0.371  0.5314  0.8365 -1.1988
11916SOL     OW36557   7.446   4.358   6.525 -0.2195 -0.4998 -0.4577
11916SOL    HW136558   7.417   4.407   6.449 -1.6077 -1.9890 -0.9450
11916SOL    HW236559   7.510   4.295   6.491  0.1589 -0.2892 -0.1519
11917SOL     OW36560   1.616   4.051   1.645  0.0141 -0.4422  0.4315
11917SOL    HW136561   1.644   4.103   1.570 -1.3053  0.4567  0.5389
11917SOL    HW236562   1.550   3.991   1.609 -0.2099 -0.3982  0.7705
11918SOL     OW36563   1.732   6.242   6.836  0.7611  0.0592 -0.7793
11918SOL    HW136564   1.639   6.258   6.851  0.4000 -3.0672  1.3426
11918SOL    HW236565   1.772   6.252   6.922  1.8139 -1.5214 -1.0382
11919SOL     OW36566   7.498   6.126   1.675 -0.3330  0.0131 -0.0066
11919SOL    HW136567   7.486   6.092   1.763  0.7503  0.6267  0.3988
11919SOL    HW236568   7.505   6.048   1.620 -1.2339 -0.3738  0.4072
11920SOL     OW36569   7.569   2.702   2.853  0.5334  0.1788  0.0322
11920SOL    HW136570   7.664   2.688   2.855  0.8024  1.8505  1.0570
11920SOL    HW236571   7.542   2.697   2.945 -0.3810 -0.3102 -0.2521
11921SOL     OW36572   1.714   5.990   2.758  0.1301 -0.3364 -0.2616
11921SOL    HW136573   1.675   5.923   2.703  2.1968 -2.0114  0.2067
11921SOL    HW236574   1.761   6.048   2.697 -1.0779  0.3203 -0.5985
11922SOL     OW36575   7.903   6.712   0.429 -0.4689  0.3524 -0.0765
11922SOL    HW136576   7.896   6.727   0.335 -0.4714  0.5538 -0.0452
11922SOL    HW236577   7.903   6.800   0.467 -0.0884  0.2832  0.0838
11923SOL     OW36578   0.639   7.532   2.667  0.2633  0.4997  0.2776
11923SOL    HW136579   0.649   7.607   2.608  0.5929  0.7876  0.6880
11923SOL    HW236580   0.663   7.567   2.753  1.6500 -0.3949  0.2810
11924SOL     OW36581   5.620   5.704   5.573  0.4593  0.3153  0.6654
11924SOL    HW136582   5.566   5.762   5.626 -0.1677  0.8313 -0.4928
11924SOL    HW236583   5.642   5.755   5.495  1.3928 -0.3973  0.4347
11925SOL     OW36584   4.064   5.054   7.196  0.0458 -0.2878  0.0250
11925SOL    HW136585   4.156   5.031   7.182 -0.2543 -0.7115 -1.3515
11925SOL    HW236586   4.028   4.980   7.245  0.1536 -0.6714 -0.4762
11926SOL     OW36587   7.937   2.298   3.291 -0.2989  0.3290 -0.0938
11926SOL    HW136588   7.874   2.342   3.234 -0.1192  0.6199 -0.0700
11926SOL    HW236589   8.021   2.337   3.267 -0.0125 -0.6088 -0.6760
11927SOL     OW36590   4.789   5.553   4.405 -0.0498 -0.4978 -0.4133
11927SOL    HW136591   4.827   5.634   4.372 -0.1872  0.2896  1.2218
11927SOL    HW236592   4.841   5.483   4.367  2.5241  0.5015  1.0597
11928SOL     OW36593   1.252   3.365   5.452  0.2169  0.1521 -0.1218
11928SOL    HW136594   1.161   3.359   5.480 -0.2069  0.1964 -1.4283
11928SOL    HW236595   1.295   3.291   5.495 -0.4969 -0.0625  0.2443
11929SOL     OW36596   4.088   4.304   1.741  0.1813  0.2472 -0.6359
11929SOL    HW136597   4.128   4.218   1.732 -1.7584 -0.9080  0.7359
11929SOL    HW236598   4.074   4.314   1.836  0.7755  2.2950 -0.7146
11930SOL     OW36599   2.432   5.342   2.344  0.0945 -0.8231 -0.1005
11930SOL    HW136600   2.449   5.306   2.431  1.3438 -1.0401 -0.4176
11930SOL    HW236601   2.384   5.423   2.361 -1.0426 -1.6365  0.7059
11931SOL     OW36602   5.653   6.407   4.220  0.0027 -0.2385  0.0318
11931SOL    HW136603   5.576   6.350   4.225 -1.1282  1.2787  0.5833
11931SOL    HW236604   5.619   6.495   4.228  1.6368  0.6159 -1.5838
11932SOL     OW36605   4.092   0.177   0.403  0.7306 -0.3806 -0.1538
11932SOL    HW136606   4.090   0.260   0.356  0.4513 -1.5234 -2.2796
11932SOL    HW236607   4.158   0.125   0.357 -1.0671 -2.3104 -0.7115
11933SOL     OW36608   1.945   2.033   5.561 -0.1238 -0.0633  0.1045
11933SOL    HW136609   1.901   2.111   5.526 -0.1508  0.3888  1.1372
11933SOL    HW236610   2.000   2.003   5.488  0.9736  1.7324  0.1350
11934SOL     OW36611   0.916   0.974   5.059  0.5184  0.0930  0.0132
11934SOL    HW136612   0.969   0.897   5.037 -0.2040 -0.5028  0.3104
11934SOL    HW236613   0.979   1.039   5.089  1.0873 -0.5965  0.3342
11935SOL     OW36614   1.446   6.273   6.894 -0.4797 -0.0082  0.4071
11935SOL    HW136615   1.451   6.287   6.989  2.2388  0.9363  0.2298
11935SOL    HW236616   1.394   6.347   6.862  0.2561  0.8071  1.0255
11936SOL     OW36617   1.275   0.339   3.023 -0.4175 -0.1970 -0.0023
11936SOL    HW136618   1.213   0.267   3.021  0.9701 -1.4532  0.3586
11936SOL    HW236619   1.361   0.298   3.012  0.3522  1.5133 -0.9122
11937SOL     OW36620   6.515   0.833   3.786 -0.3582 -0.1147 -0.4294
11937SOL    HW136621   6.576   0.775   3.741 -0.0703  0.2844 -0.5602
11937SOL    HW236622   6.445   0.848   3.722 -0.7469 -0.7959 -0.1810
11938SOL     OW36623   4.465   1.153   1.554 -0.1012 -0.0317  0.4237
11938SOL    HW136624   4.386   1.158   1.500  0.5827  0.9263 -0.5308
11938SOL    HW236625   4.470   1.238   1.598  1.1725  0.5091 -0.6912
11939SOL     OW36626   7.722   3.850   7.073  0.0737  0.1663  0.3030
11939SOL    HW136627   7.647   3.904   7.102  1.7244  2.9368 -0.1916
11939SOL    HW236628   7.701   3.827   6.983  0.0171  1.3588 -0.0029
11940SOL     OW36629   6.616   0.321   7.398 -0.0338  0.2361 -0.0632
11940SOL    HW136630   6.666   0.379   7.339 -0.3041 -0.1660 -0.7014
11940SOL    HW236631   6.591   0.377   7.471  1.8415  0.3319  0.5779
11941SOL     OW36632   4.413   2.865   0.967  0.1801  0.4467  0.0358
11941SOL    HW136633   4.456   2.857   1.053  0.4726 -1.5257 -0.2470
11941SOL    HW236634   4.319   2.865   0.987  0.2566  0.8734  0.4093
11942SOL     OW36635   3.677   3.113   4.251  0.1942  0.0641 -0.2985
11942SOL    HW136636   3.676   3.026   4.211 -0.4578  0.6891 -1.6838
11942SOL    HW236637   3.768   3.142   4.244  0.0773  0.1912 -1.4199
11943SOL     OW36638   7.437   4.516   2.164 -0.8567 -0.1970  0.6158
11943SOL    HW136639   7.414   4.594   2.114  1.5718  0.7209  0.8196
11943SOL    HW236640   7.413   4.443   2.106 -0.1243  0.7875 -1.0001
11944SOL     OW36641   6.229   7.131   5.711 -0.5714 -0.4073 -0.2899
11944SOL    HW136642   6.175   7.098   5.783  0.2922 -0.5746  0.2844
11944SOL    HW236643   6.169   7.133   5.636 -1.7455  0.6668  0.6296
11945SOL     OW36644   4.231   3.021   6.833  0.3338  0.4762  0.8311
11945SOL    HW136645   4.183   2.947   6.871 -0.7561  1.5540  1.6788
11945SOL    HW236646   4.285   3.054   6.905 -0.1877  1.2838  0.8697
11946SOL     OW36647   7.404   5.570   2.374 -0.0887  0.1998 -0.0393
11946SOL    HW136648   7.424   5.477   2.364  0.0221  0.1854  0.3207
11946SOL    HW236649   7.483   5.607   2.414  1.1743  1.0411 -3.0304
11947SOL     OW36650   7.576   5.930   3.020 -0.0222  0.1702  0.2862
11947SOL    HW136651   7.506   5.883   3.066 -0.0657  0.1215  0.1718
11947SOL    HW236652   7.642   5.863   3.002  0.7561  0.5115  1.7447
11948SOL     OW36653   6.427   4.076   4.424  0.0143  0.3000 -0.6852
11948SOL    HW136654   6.339   4.075   4.463  0.7937 -0.4063  1.1664
11948SOL    HW236655   6.425   4.151   4.364 -1.3249  1.3800  0.6109
11949SOL     OW36656   6.705   5.115   4.772  0.3956 -0.3613  0.1700
11949SOL    HW136657   6.694   5.073   4.857  3.6153 -0.1033  0.8494
11949SOL    HW236658   6.668   5.202   4.783 -0.6418 -0.8506  0.7447
11950SOL     OW36659   0.633   7.951   3.244  0.0659  0.2217  0.7093
11950SOL    HW136660   0.605   7.881   3.303 -1.5792  1.3928  1.3906
11950SOL    HW236661   0.595   7.926   3.159 -2.3100  1.2559  1.3961
11951SOL     OW36662   0.928   1.391   6.492 -0.1426  0.4930  0.7617
11951SOL    HW136663   0.834   1.404   6.497 -0.0431  0.9791  1.6375
11951SOL    HW236664   0.962   1.434   6.571  0.7521 -0.2226  0.7820
11952SOL     OW36665   2.009   0.084   0.870 -0.1154  0.0433  0.1268
11952SOL    HW136666   2.047   0.130   0.795 -2.0909  0.7899 -0.4856
11952SOL    HW236667   1.976   0.154   0.926 -1.8027 -0.5554 -0.0610
11953SOL     OW36668   5.474   7.429   6.123  0.1680 -0.5215 -0.0473
11953SOL    HW136669   5.424   7.444   6.043 -0.7285 -1.0882  0.3971
11953SOL    HW236670   5.540   7.364   6.099  0.3067 -0.2224 -0.4804
11954SOL     OW36671   6.094   4.451   5.577 -0.2445  0.2083  0.0141
11954SOL    HW136672   6.036   4.429   5.504  0.3179 -0.3144 -0.2923
11954SOL    HW236673   6.161   4.506   5.538 -0.1725  0.2669  0.2228
11955SOL     OW36674   6.487   5.660   7.444 -0.4703  0.4142  0.1193
11955SOL    HW136675   6.473   5.745   7.401 -0.1802  0.2070 -0.3926
11955SOL    HW236676   6.573   5.632   7.414 -0.8507 -0.3792 -0.2691
11956SOL     OW36677   2.697   3.341   2.967 -0.1932  0.0233  0.6124
11956SOL    HW136678   2.638   3.352   2.893  0.5587  1.4266  0.1773
11956SOL    HW236679   2.777   3.387   2.941  0.3795 -0.1474  1.9780
11957SOL     OW36680   1.484   5.399   5.926 -0.1208  0.2867 -0.0648
11957SOL    HW136681   1.524   5.313   5.942 -1.1867 -0.3744 -0.7766
11957SOL    HW236682   1.489   5.409   5.831 -1.7441  0.1022 -0.1982
11958SOL     OW36683   2.396   7.621   0.009 -0.1043 -0.0160  0.2272
11958SOL    HW136684   2.448   7.541   0.004  0.3445  0.1631  1.4992
11958SOL    HW236685   2.367   7.637  -0.080  0.6754 -1.0215 -0.2246
11959SOL     OW36686   7.825   4.374   1.156  0.4078 -0.6316  0.1099
11959SOL    HW136687   7.785   4.461   1.160  0.2486 -0.7313  0.9075
11959SOL    HW236688   7.810   4.337   1.243  1.5166 -0.9988  0.1586
11960SOL     OW36689   3.188   4.801   7.974  0.3843  0.6292  0.0462
11960SOL    HW136690   3.147   4.801   8.060 -0.4852  1.9740 -0.3279
11960SOL    HW236691   3.270   4.753   7.985  1.0762  2.1477  2.0042
11961SOL     OW36692   6.143   6.112   2.039  0.1913 -0.5110  0.3841
11961SOL    HW136693   6.173   6.058   1.966  2.2793  0.9699  0.0532
11961SOL    HW236694   6.223   6.138   2.085 -0.8118  1.2043  1.2942
11962SOL     OW36695   2.755   4.669   6.540  0.0665 -0.3040 -0.3408
11962SOL    HW136696   2.748   4.575   6.559 -1.4005 -0.1622 -0.0897
11962SOL    HW236697   2.665   4.698   6.529  0.4101  1.3668  0.9320
11963SOL     OW36698   3.320   5.790   6.771  0.7419 -0.3327 -0.7878
11963SOL    HW136699   3.330   5.788   6.867 -1.1771  2.1793 -0.4267
11963SOL    HW236700   3.403   5.826   6.740  0.2657  1.8621  0.2932
11964SOL     OW36701   5.230   2.530   5.920  0.1160  0.3626  0.4932
11964SOL    HW136702   5.205   2.607   5.971 -0.4157  1.4538 -1.3339
11964SOL    HW236703   5.314   2.502   5.959 -0.7505  0.4926  2.5970
11965SOL     OW36704   3.053   7.207   4.906 -0.5443 -0.0745  0.4470
11965SOL    HW136705   3.131   7.258   4.926 -0.6618 -0.3616  1.7676
11965SOL    HW236706   3.057   7.191   4.812  1.2475 -0.5059  0.5750
11966SOL     OW36707   4.521   5.307   0.437 -0.1076  0.3295  0.2322
11966SOL    HW136708   4.502   5.271   0.524 -0.1471 -0.3216 -0.0373
11966SOL    HW236709   4.509   5.233   0.378  0.2121  0.6960 -0.2962
11967SOL     OW36710   6.216   6.562   2.346  0.2405  0.2457  0.1213
11967SOL    HW136711   6.259   6.489   2.391  1.1746  1.2324  0.8845
11967SOL    HW236712   6.123   6.541   2.349  0.5708 -1.5884 -0.9229
11968SOL     OW36713   1.163   6.105   3.976 -0.3365  0.5170 -0.0402
11968SOL    HW136714   1.194   6.025   3.934  0.1591  0.3850  0.5646
11968SOL    HW236715   1.161   6.170   3.905 -0.0943  0.1407 -0.3934
11969SOL     OW36716   7.144   3.295   6.827  0.2412  0.3422 -0.4668
11969SOL    HW136717   7.159   3.285   6.733  0.8184 -0.2733 -0.3193
11969SOL    HW236718   7.196   3.371   6.852  2.1474 -0.9513 -0.2192
11970SOL     OW36719   3.101   5.548   4.100  0.3272 -0.6410 -0.1994
11970SOL    HW136720   3.181   5.590   4.069  0.4472 -0.1337  0.7622
11970SOL    HW236721   3.065   5.609   4.164 -1.1412 -0.5987 -1.0200
11971SOL     OW36722   0.136   5.753   3.760  0.2067  0.2448  0.2573
11971SOL    HW136723   0.130   5.757   3.664 -2.3966 -2.8025  0.1022
11971SOL    HW236724   0.224   5.720   3.778  0.1041 -1.0016 -1.2772
11972SOL     OW36725   3.815   3.782   1.768  0.0589  0.4572 -0.0197
11972SOL    HW136726   3.862   3.778   1.852  0.9203 -4.5602 -0.4364
11972SOL    HW236727   3.884   3.792   1.702 -0.1284 -0.2282 -0.3243
11973SOL     OW36728   3.327   1.216   1.492  0.3962  0.4859 -0.0183
11973SOL    HW136729   3.293   1.168   1.416 -0.9032  0.6422  0.4385
11973SOL    HW236730   3.294   1.168   1.568 -0.5069  1.7925  0.4458
11974SOL     OW36731   6.052   5.394   1.451 -0.2455 -0.6588 -0.2471
11974SOL    HW136732   6.046   5.399   1.546 -1.8566 -0.6889 -0.3192
11974SOL    HW236733   6.143   5.370   1.434 -0.0293 -1.0414  1.3004
11975SOL     OW36734   3.122   4.713   4.371  1.0997 -0.1728 -0.1718
11975SOL    HW136735   3.149   4.787   4.316  0.3476  0.1616 -0.1116
11975SOL    HW236736   3.197   4.654   4.372  0.4336 -1.2179 -3.2652
11976SOL     OW36737   5.958   1.855   5.701  0.1200  0.1386 -0.2314
11976SOL    HW136738   5.950   1.788   5.633  2.2793  0.4171 -0.8535
11976SOL    HW236739   6.047   1.842   5.736 -0.2724  1.1993  1.2600
11977SOL     OW36740   7.942   3.005   7.461 -0.2151 -0.5130 -0.0915
11977SOL    HW136741   7.969   3.080   7.408 -0.6663  0.0841  0.5078
11977SOL    HW236742   8.024   2.964   7.488  0.0643  0.3136  0.3436
11978SOL     OW36743   7.219   0.887   3.943 -0.5342 -0.4989 -0.1828
11978SOL    HW136744   7.310   0.908   3.922 -1.0622  0.4454 -1.5881
11978SOL    HW236745   7.187   0.963   3.990 -1.0313 -0.1935 -1.0083
11979SOL     OW36746   1.616   5.149   7.034 -0.0829  0.4625 -0.1113
11979SOL    HW136747   1.626   5.060   7.067 -1.3029  0.1774 -0.4809
11979SOL    HW236748   1.651   5.145   6.945 -0.5638  0.2442 -0.2891
11980SOL     OW36749   7.945   5.358   2.710 -0.4964  0.5992  0.0082
11980SOL    HW136750   7.897   5.278   2.687  0.0489  0.0242  0.8018
11980SOL    HW236751   8.023   5.327   2.754 -0.4347  1.5921  0.6314
11981SOL     OW36752   7.169   2.975   4.995  0.3052  0.1923 -0.2027
11981SOL    HW136753   7.152   2.936   4.909  0.9923 -0.8709  0.1198
11981SOL    HW236754   7.229   3.047   4.977  1.0819 -0.5199 -0.5377
11982SOL     OW36755   2.183   5.014   7.075  0.3428  0.6158 -0.5263
11982SOL    HW136756   2.114   5.075   7.053 -0.9485 -1.1777 -1.7316
11982SOL    HW236757   2.232   5.057   7.146 -2.4860  1.6153  0.9672
11983SOL     OW36758   1.640   0.615   0.429 -0.1314 -0.4535  0.6487
11983SOL    HW136759   1.598   0.616   0.343  0.9624 -0.3148  0.0939
11983SOL    HW236760   1.596   0.545   0.477 -0.8613 -0.4264  0.0355
11984SOL     OW36761   2.062   0.212   6.547 -0.6018  0.0612 -0.2660
11984SOL    HW136762   2.037   0.147   6.480 -0.4707  2.0469 -2.3726
11984SOL    HW236763   2.080   0.291   6.497  0.7675  1.3161  2.0770
11985SOL     OW36764   2.452   6.316   5.364 -0.0631 -0.1949  0.7371
11985SOL    HW136765   2.441   6.390   5.304  0.3608 -0.0800  0.7969
11985SOL    HW236766   2.382   6.325   5.427 -0.9311 -0.6937 -0.1293
11986SOL     OW36767   4.542   1.711   3.719 -0.3674  0.0864 -0.8552
11986SOL    HW136768   4.565   1.758   3.639 -1.5266  1.2312 -0.5530
11986SOL    HW236769   4.625   1.701   3.765 -0.0167  1.5331 -1.1173
11987SOL     OW36770   2.622   6.745   6.732 -0.3222  0.4436  0.3352
11987SOL    HW136771   2.571   6.665   6.715 -2.3660  1.4497  1.3534
11987SOL    HW236772   2.580   6.784   6.809  3.0982  0.5096  2.3811
11988SOL     OW36773   0.386   7.852   6.099  0.5283  0.1619  0.1808
11988SOL    HW136774   0.413   7.827   6.188  1.8594 -0.2950 -0.3281
11988SOL    HW236775   0.372   7.769   6.054 -1.5536  0.3660  0.3139
11989SOL     OW36776   7.188   3.482   6.388  0.4650  0.3647  0.0805
11989SOL    HW136777   7.214   3.572   6.406  2.1323  0.0844 -0.6986
11989SOL    HW236778   7.249   3.453   6.320  0.4828 -1.6043  0.8704
11990SOL     OW36779   3.846   7.333   5.168 -0.0733 -0.2966  0.2445
11990SOL    HW136780   3.810   7.421   5.161 -0.2023 -0.2685  1.1577
11990SOL    HW236781   3.893   7.320   5.086 -0.5581  0.3919 -0.1511
11991SOL     OW36782   3.581   0.197   4.479  0.2504  0.2351 -0.3509
11991SOL    HW136783   3.662   0.207   4.429 -0.4054  0.7971 -1.3314
11991SOL    HW236784   3.596   0.247   4.559  1.3629 -0.7886  0.1097
11992SOL     OW36785   7.129   5.466   3.957 -0.0941  0.1353 -0.1294
11992SOL    HW136786   7.095   5.554   3.940  1.2575  0.7314  0.1205
11992SOL    HW236787   7.138   5.462   4.052 -2.7830 -1.3266  0.1576
11993SOL     OW36788   6.418   2.887   4.744 -0.8374 -0.4101  0.4905
11993SOL    HW136789   6.402   2.950   4.814 -0.2147 -1.4015  1.5703
11993SOL    HW236790   6.457   2.811   4.788 -1.0768 -1.3500 -0.8344
11994SOL     OW36791   5.465   1.224   0.602  0.8784  0.1553  0.4397
11994SOL    HW136792   5.443   1.317   0.606 -0.0333 -0.0834  1.3902
11994SOL    HW236793   5.410   1.183   0.669  0.9096 -1.1386 -0.2878
11995SOL     OW36794   2.374   5.175   4.551  0.5091  0.3615  0.3041
11995SOL    HW136795   2.410   5.243   4.493  1.1269 -0.6190 -0.5191
11995SOL    HW236796   2.311   5.221   4.606  0.8779  1.5907 -0.2501
11996SOL     OW36797   6.607   6.553   2.048 -0.5666  0.3301 -0.4348
11996SOL    HW136798   6.604   6.458   2.037 -2.4577  0.0906  1.3527
11996SOL    HW236799   6.635   6.587   1.963  1.4342 -1.8503 -0.7571
11997SOL     OW36800   2.616   5.537   3.058  0.3534  0.2885  0.1777
11997SOL    HW136801   2.533   5.495   3.038  0.6540  0.1148 -0.7512
11997SOL    HW236802   2.682   5.468   3.046  0.6523  0.4568  0.7738
11998SOL     OW36803   6.964   5.428   3.089 -0.0661  0.3200  0.2625
11998SOL    HW136804   6.885   5.480   3.105  0.0270  0.8823 -0.9414
11998SOL    HW236805   6.966   5.417   2.994  0.0098 -1.7864  0.4609
11999SOL     OW36806   6.651   3.037   4.381 -0.0667  0.5969 -0.3702
11999SOL    HW136807   6.680   2.998   4.463 -0.0695 -0.6852 -0.9469
11999SOL    HW236808   6.590   2.972   4.345 -0.5185  1.4113 -1.0980
12000SOL     OW36809   5.610   7.909   1.006  0.2336 -0.2263 -0.9397
12000SOL    HW136810   5.574   7.988   1.046  0.1573 -0.7373  0.0328
12000SOL    HW236811   5.680   7.940   0.949  2.3610  0.3627  1.7828
12001SOL     OW36812   1.953   7.173   1.351  0.6914  0.6655 -0.0845
12001SOL    HW136813   2.001   7.100   1.390  0.7610  0.5658 -0.3562
12001SOL    HW236814   1.861   7.153   1.368  0.6590  0.1062 -0.8474
12002SOL     OW36815   2.010   0.961   6.776  0.0096  0.3368 -0.0963
12002SOL    HW136816   2.082   0.994   6.830  1.3121  0.0035 -1.5528
12002SOL    HW236817   2.022   0.866   6.775 -0.2411  0.3072 -0.6355
12003SOL     OW36818   3.370   4.715   7.345 -0.0874  0.0199 -0.0656
12003SOL    HW136819   3.326   4.784   7.295 -0.6961 -1.8856 -2.3237
12003SOL    HW236820   3.318   4.637   7.329 -0.1779 -0.8410  3.4352
12004SOL     OW36821   6.751   1.649   4.647  0.0329 -0.5996  0.3412
12004SOL    HW136822   6.698   1.724   4.673  1.4251 -0.2383  2.3558
12004SOL    HW236823   6.792   1.619   4.728  1.0746 -2.3096 -0.7517
12005SOL     OW36824   4.996   6.238   4.386 -0.0376 -0.3004  0.6474
12005SOL    HW136825   4.902   6.230   4.405 -0.3457 -0.1914 -0.7695
12005SOL    HW236826   5.037   6.232   4.472 -1.4985  2.8645  1.7440
12006SOL     OW36827   4.006   4.636   4.404 -0.5286 -0.0346  0.2702
12006SOL    HW136828   3.925   4.584   4.400 -0.3648 -0.2629 -0.1816
12006SOL    HW236829   3.980   4.723   4.375 -0.2296 -0.5980 -1.8523
12007SOL     OW36830   7.192   5.383   1.508 -0.3796 -0.0227 -0.2642
12007SOL    HW136831   7.101   5.410   1.517 -0.3183 -0.1388  0.8216
12007SOL    HW236832   7.240   5.438   1.571  0.1566 -0.6468 -0.1138
12008SOL     OW36833   5.861   7.306   7.518  0.4829 -0.3966 -0.2535
12008SOL    HW136834   5.856   7.393   7.477 -1.9897 -0.0732  0.5607
12008SOL    HW236835   5.949   7.303   7.557  0.7179  1.6604 -0.4924
12009SOL     OW36836   2.094   5.482   1.639 -0.3147 -0.2803  0.2910
12009SOL    HW136837   2.173   5.536   1.635  0.0245 -0.7587  0.5172
12009SOL    HW236838   2.037   5.529   1.700  0.1080 -0.3410  0.7387
12010SOL     OW36839   0.643   6.001   6.395  0.0780 -0.6951 -0.5730
12010SOL    HW136840   0.711   6.021   6.460  1.7277 -1.2075 -2.0600
12010SOL    HW236841   0.577   5.953   6.444  0.4777  0.3045  1.0590
12011SOL     OW36842   0.870   0.360   4.495 -0.4037 -0.7566  0.3929
12011SOL    HW136843   0.776   0.378   4.501 -0.4116 -0.8354  0.5097
12011SOL    HW236844   0.888   0.301   4.568 -0.3810 -1.2341  0.0026
12012SOL     OW36845   2.680   4.438   1.187 -0.2418  0.0629 -0.4186
12012SOL    HW136846   2.631   4.417   1.267 -1.2893 -1.3438 -1.3655
12012SOL    HW236847   2.759   4.384   1.193 -0.4432 -0.2376 -0.4470
12013SOL     OW36848   4.328   2.451   1.295 -0.2110  0.6332  0.4904
12013SOL    HW136849   4.297   2.499   1.218 -0.2282 -1.4095 -0.8592
12013SOL    HW236850   4.250   2.434   1.347 -0.3374  1.2164  0.4996
12014SOL     OW36851   3.119   7.560   7.905  0.5237  0.5000  0.2867
12014SOL    HW136852   3.032   7.527   7.882 -0.2002  2.0840  0.6686
12014SOL    HW236853   3.103   7.626   7.972  1.9485  1.4289 -0.2471
12015SOL     OW36854   2.180   5.491   2.708  0.7281  0.0637 -0.3203
12015SOL    HW136855   2.250   5.543   2.748 -1.3542  1.7510  1.3673
12015SOL    HW236856   2.122   5.469   2.780 -0.1882 -1.8964 -1.5540
12016SOL     OW36857   3.314   4.243   2.632 -0.3099  0.4579 -0.1844
12016SOL    HW136858   3.404   4.273   2.620 -0.9635  3.5084  1.5182
12016SOL    HW236859   3.317   4.186   2.709  0.2351  0.0662 -0.4912
12017SOL     OW36860   5.198   0.749   6.661 -0.1481 -0.5013 -0.3468
12017SOL    HW136861   5.157   0.678   6.711  0.9771 -2.1315 -1.6447
12017SOL    HW236862   5.135   0.768   6.591 -0.1262 -0.7619 -0.4404
12018SOL     OW36863   5.632   6.992   5.304  0.2381 -0.3360 -0.3843
12018SOL    HW136864   5.614   7.038   5.386 -0.9246  0.9906 -1.3358
12018SOL    HW236865   5.706   6.934   5.325  2.3460  2.5010  0.7484
12019SOL     OW36866   4.358   2.475   2.138 -0.2469  0.4224  0.0010
12019SOL    HW136867   4.356   2.461   2.233 -0.5743  1.2630  0.1267
12019SOL    HW236868   4.432   2.422   2.108 -0.2113  0.0524  0.7051
12020SOL     OW36869   2.904   1.179   6.616 -0.3759  0.0785  0.1756
12020SOL    HW136870   2.903   1.084   6.627  0.2845  0.2972  2.7660
12020SOL    HW236871   2.880   1.214   6.702  0.7800  2.2604 -0.3021
12021SOL     OW36872   5.518   4.019   1.700  0.1191  0.6486 -0.0623
12021SOL    HW136873   5.519   3.939   1.647 -1.2748  0.2237  0.5103
12021SOL    HW236874   5.589   4.007   1.763 -0.7128 -0.6151  0.6703
12022SOL     OW36875   6.297   3.341   3.420 -0.1957  0.0365  0.4821
12022SOL    HW136876   6.359   3.307   3.355  0.6682 -1.5432  2.0395
12022SOL    HW236877   6.211   3.310   3.390  0.0947 -0.0278 -0.2974
12023SOL     OW36878   0.912   0.937   0.670  0.4661  0.2790 -0.4933
12023SOL    HW136879   0.965   0.917   0.748  0.0927 -2.9406 -0.9121
12023SOL    HW236880   0.955   0.888   0.599 -1.5154 -0.2514 -1.4068
12024SOL     OW36881   5.465   7.921   0.053 -0.1838 -0.6215  0.2924
12024SOL    HW136882   5.460   7.898  -0.040  0.7808  0.2438  0.0074
12024SOL    HW236883   5.558   7.912   0.074  0.1404  2.1969  0.3635
12025SOL     OW36884   1.762   5.971   5.517 -0.4200  0.1768 -0.1017
12025SOL    HW136885   1.694   5.909   5.542 -0.1893  0.1044  0.3607
12025SOL    HW236886   1.787   6.014   5.599 -3.3606  3.8174 -0.8684
12026SOL     OW36887   0.999   6.429   4.266  0.3423 -0.0971 -0.1820
12026SOL    HW136888   1.079   6.455   4.221  0.7540 -0.5883  0.2596
12026SOL    HW236889   0.995   6.334   4.255 -1.6340  0.1746 -2.6032
12027SOL     OW36890   5.611   4.927   3.511  0.5942 -0.1733  0.1860
12027SOL    HW136891   5.536   4.900   3.458  0.3543  0.6576  0.0940
12027SOL    HW236892   5.669   4.850   3.511  0.1608 -0.5104 -0.4818
12028SOL     OW36893   1.078   7.748   5.708  0.4089  0.3158  0.3130
12028SOL    HW136894   1.023   7.738   5.786 -0.0002 -0.8463 -0.1027
12028SOL    HW236895   1.138   7.673   5.711  0.8246  0.6245 -0.1444
12029SOL     OW36896   6.820   5.735   5.547  0.0242  0.1677 -0.4789
12029SOL    HW136897   6.883   5.675   5.589 -0.3755  1.1848  1.7209
12029SOL    HW236898   6.761   5.761   5.618 -1.0218  1.6201 -1.8150
12030SOL     OW36899   5.620   1.666   1.006  0.1939  0.0063 -0.2264
12030SOL    HW136900   5.691   1.615   0.967 -0.7747 -0.2662 -1.6960
12030SOL    HW236901   5.613   1.633   1.095  0.3259 -1.6618 -0.8068
12031SOL     OW36902   6.517   0.585   7.822  0.2682 -0.2623  0.3555
12031SOL    HW136903   6.454   0.627   7.882 -0.7360  1.0691 -1.5336
12031SOL    HW236904   6.590   0.646   7.818 -0.3020  0.3741 -0.8332
12032SOL     OW36905   4.831   3.079   6.341  0.8248 -0.1639  0.5061
12032SOL    HW136906   4.886   3.023   6.286 -1.0088 -0.0244 -1.6103
12032SOL    HW236907   4.883   3.158   6.355  1.9376 -0.8410  0.3166
12033SOL     OW36908   7.455   1.720   5.413 -0.8530 -0.4739  0.0685
12033SOL    HW136909   7.506   1.781   5.360 -1.6248 -0.2263 -0.4102
12033SOL    HW236910   7.483   1.737   5.503 -2.4961  2.0549  0.1973
12034SOL     OW36911   2.949   0.704   1.141 -0.4124 -0.4602  0.1663
12034SOL    HW136912   3.005   0.694   1.064  0.1668  0.2555  0.4721
12034SOL    HW236913   2.952   0.798   1.159  0.0349 -0.7033  1.4683
12035SOL     OW36914   1.942   1.168   6.389 -0.2664  0.1318 -0.1310
12035SOL    HW136915   1.974   1.204   6.306 -0.5619  2.2025  0.5964
12035SOL    HW236916   1.852   1.143   6.370 -0.3132  0.5323 -0.4744
12036SOL     OW36917   5.479   2.769   5.131  0.2735 -0.5795  0.4426
12036SOL    HW136918   5.482   2.863   5.145 -0.3211 -0.8107  2.6316
12036SOL    HW236919   5.397   2.754   5.084 -0.2035 -0.0647  1.0835
12037SOL     OW36920   4.266   5.804   0.104 -0.2307 -0.1187  0.0696
12037SOL    HW136921   4.183   5.758   0.119 -0.3156  0.3388  1.0392
12037SOL    HW236922   4.255   5.889   0.148  0.5788  0.1335 -0.1995
12038SOL     OW36923   6.747   3.574   1.835  0.2224 -0.3906 -0.0133
12038SOL    HW136924   6.676   3.516   1.862 -0.8900  0.8676 -0.1511
12038SOL    HW236925   6.801   3.584   1.914 -0.9843  0.3671  0.7495
12039SOL     OW36926   5.316   3.283   3.351  0.3890  0.3851  0.0686
12039SOL    HW136927   5.239   3.241   3.313  0.2206  0.3048  0.4927
12039SOL    HW236928   5.385   3.217   3.344  0.1391  0.0480  0.6880
12040SOL     OW36929   2.408   4.662   1.068  0.3911  0.1458 -0.1081
12040SOL    HW136930   2.465   4.709   1.007  0.5887 -0.2795 -0.2518
12040SOL    HW236931   2.422   4.707   1.152  0.2078  0.6541 -0.3445
12041SOL     OW36932   7.984   6.127   2.200  0.3167  0.1298 -0.1035
12041SOL    HW136933   8.071   6.157   2.174  0.5610  1.4206  1.9633
12041SOL    HW236934   7.981   6.142   2.295 -2.3297  0.6028 -0.1791
12042SOL     OW36935   1.639   5.701   7.845  0.0768  0.4118 -0.0141
12042SOL    HW136936   1.667   5.650   7.769  1.0526 -0.5218  0.9234
12042SOL    HW236937   1.560   5.658   7.876  0.5495 -0.1717  0.4037
12043SOL     OW36938   2.495   1.298   0.239 -0.3760  0.0506 -0.2516
12043SOL    HW136939   2.466   1.214   0.202 -0.5909  0.3461 -0.7703
12043SOL    HW236940   2.450   1.364   0.186 -1.7530  0.4957  1.3545
12044SOL     OW36941   4.482   6.551   4.858 -0.5803  0.2734  0.3810
12044SOL    HW136942   4.527   6.485   4.911 -1.1697 -1.9830 -1.7260
12044SOL    HW236943   4.390   6.525   4.859 -0.5567 -0.1478 -2.0201
12045SOL     OW36944   2.379   0.302   3.682 -0.0796  0.0255  0.0194
12045SOL    HW136945   2.388   0.393   3.653 -0.9873  0.1867  0.2229
12045SOL    HW236946   2.360   0.253   3.602  0.8381 -0.0610 -0.1567
12046SOL     OW36947   6.812   7.572   6.333  0.5194 -0.1865  0.4046
12046SOL    HW136948   6.876   7.507   6.362 -0.0036 -1.1937 -0.6324
12046SOL    HW236949   6.728   7.527   6.337 -0.0143  0.7855  0.7261
12047SOL     OW36950   7.959   6.762   1.559 -0.1797 -0.5579 -0.0495
12047SOL    HW136951   7.908   6.694   1.515 -0.4277 -0.1792 -0.3557
12047SOL    HW236952   7.919   6.771   1.645 -0.5442 -0.3609 -0.2378
12048SOL     OW36953   5.256   6.760   7.345 -0.6200  0.1130  0.1315
12048SOL    HW136954   5.246   6.751   7.440  0.5513 -0.5827  0.2000
12048SOL    HW236955   5.339   6.806   7.334 -0.7028  0.1039 -0.5646
12049SOL     OW36956   1.174   2.430   4.198 -0.5795 -0.3386  0.1891
12049SOL    HW136957   1.119   2.434   4.276 -0.0553  0.4315  0.5304
12049SOL    HW236958   1.166   2.339   4.168 -0.1897 -0.8677  1.5737
12050SOL     OW36959   3.217   1.574   7.233 -0.0011 -0.7538 -0.4361
12050SOL    HW136960   3.124   1.586   7.255  0.1919 -0.1466  0.1041
12050SOL    HW236961   3.262   1.641   7.285  0.7454 -1.0782 -0.6534
12051SOL     OW36962   6.610   3.285   1.653  0.2220 -0.4813 -0.5145
12051SOL    HW136963   6.569   3.204   1.623  0.9504 -0.4322 -1.7190
12051SOL    HW236964   6.700   3.278   1.624  0.5744  0.2906  0.3435
12052SOL     OW36965   7.995   5.039   5.804  0.4845  0.0245 -0.0309
12052SOL    HW136966   7.968   5.063   5.893 -0.0783 -0.4515 -0.0672
12052SOL    HW236967   7.938   5.092   5.747  2.0435  1.6681 -0.1303
12053SOL     OW36968   5.621   1.129   2.638  0.3403 -0.3795  0.3946
12053SOL    HW136969   5.590   1.181   2.564 -3.7438 -0.4913  1.7627
12053SOL    HW236970   5.584   1.042   2.624  2.2100 -1.3483  1.0592
12054SOL     OW36971   4.555   2.239   6.323 -0.4458  0.4439  0.3152
12054SOL    HW136972   4.626   2.253   6.260  2.2389 -0.2784  2.9560
12054SOL    HW236973   4.504   2.168   6.284 -0.3963  1.6379 -2.1427
12055SOL     OW36974   6.787   1.611   6.257 -0.1722 -0.3349 -0.1647
12055SOL    HW136975   6.744   1.526   6.265 -0.1733 -0.2496  1.0184
12055SOL    HW236976   6.715   1.672   6.239 -0.5406 -0.2576  1.3745
12056SOL     OW36977   0.696   5.099   1.131 -1.0379  0.0471  0.0366
12056SOL    HW136978   0.781   5.066   1.161 -0.8208  0.9725  0.4747
12056SOL    HW236979   0.647   5.114   1.212 -1.7937 -0.9039 -0.2308
12057SOL     OW36980   1.458   3.445   2.613 -0.2467 -0.8848  0.4108
12057SOL    HW136981   1.385   3.423   2.671 -1.1406  1.2546  0.1931
12057SOL    HW236982   1.420   3.446   2.526  0.4428 -1.3292  0.0949
12058SOL     OW36983   1.628   5.383   5.268 -0.1940 -0.0476  0.0544
12058SOL    HW136984   1.536   5.402   5.288 -0.0964 -0.5448  1.0233
12058SOL    HW236985   1.648   5.441   5.195 -1.1419  0.4206  0.1412
12059SOL     OW36986   7.143   4.555   4.779 -0.1384  0.2502  0.1301
12059SOL    HW136987   7.053   4.588   4.785 -0.3253  0.3389 -2.3815
12059SOL    HW236988   7.189   4.619   4.726  0.9718 -0.7006 -0.1027
12060SOL     OW36989   3.968   7.048   7.331 -0.1924 -0.1773 -0.0128
12060SOL    HW136990   3.891   7.100   7.307  0.3671  1.2931  1.2278
12060SOL    HW236991   4.024   7.050   7.253 -0.2451  0.9866 -0.0321
12061SOL     OW36992   3.976   3.881   0.344  0.4999 -0.7150  0.1163
12061SOL    HW136993   3.909   3.949   0.351  2.2221  1.4014 -2.2391
12061SOL    HW236994   3.996   3.857   0.435 -0.0374  2.1130  1.0657
12062SOL     OW36995   0.489   4.961   4.950  0.0789  0.1189  0.0717
12062SOL    HW136996   0.405   5.003   4.970 -0.2337 -0.5179  0.1035
12062SOL    HW236997   0.553   5.014   4.998 -0.3002  0.5933  0.0701
12063SOL     OW36998   7.094   0.396   4.816 -0.2006 -0.0826 -0.0638
12063SOL    HW136999   7.025   0.390   4.882 -0.2538 -0.1169 -0.1234
12063SOL    HW237000   7.139   0.478   4.837 -1.2660  0.7804 -1.0115
12064SOL     OW37001   4.575   2.785   7.866 -0.0031  0.3305  0.4435
12064SOL    HW137002   4.615   2.809   7.783 -2.9304  2.2740 -0.5601
12064SOL    HW237003   4.571   2.690   7.865 -0.4430  0.3268 -1.9087
12065SOL     OW37004   4.229   2.669   6.323  0.2527  0.4283  0.4544
12065SOL    HW137005   4.294   2.662   6.394  1.5566  2.3429 -0.4894
12065SOL    HW237006   4.280   2.664   6.243 -0.8058  1.5833 -0.3252
12066SOL     OW37007   0.217   7.408   4.989 -0.1563 -0.1033 -0.0529
12066SOL    HW137008   0.289   7.380   4.933 -1.3787  0.2859 -1.9142
12066SOL    HW237009   0.202   7.334   5.048  0.8381 -0.7512 -0.5849
12067SOL     OW37010   3.963   0.609   0.147 -0.0911  0.5341  0.0177
12067SOL    HW137011   3.979   0.660   0.226 -0.5616 -0.1596  0.5699
12067SOL    HW237012   4.018   0.532   0.156 -0.3352  0.3304 -0.2050
12068SOL     OW37013   0.613   0.938   4.973 -0.7710 -0.3532 -0.1324
12068SOL    HW137014   0.608   1.017   4.919 -2.2435 -0.1011  0.2986
12068SOL    HW237015   0.694   0.947   5.022 -0.7030  0.6814 -0.4170
12069SOL     OW37016   7.995   5.888   0.485 -0.0650  0.1731 -0.4080
12069SOL    HW137017   8.054   5.869   0.558  0.9935  1.3168 -0.9417
12069SOL    HW237018   7.990   5.984   0.483 -0.8245  0.1242 -1.2677
12070SOL     OW37019   3.416   4.006   2.478 -0.1968 -0.5019  0.6421
12070SOL    HW137020   3.463   4.007   2.394  0.1290 -1.3591  0.8007
12070SOL    HW237021   3.389   4.097   2.491 -2.3212 -0.7048 -1.5423
12071SOL     OW37022   2.371   1.875   6.301 -0.4191  0.2482 -0.5126
12071SOL    HW137023   2.388   1.893   6.393 -0.1471  1.0971 -0.7206
12071SOL    HW237024   2.417   1.793   6.283 -0.8247 -0.1451  0.2078
12072SOL     OW37025   3.392   1.817   7.704 -0.5381 -0.2241  0.6028
12072SOL    HW137026   3.305   1.849   7.679 -0.0869  1.1685  0.7472
12072SOL    HW237027   3.449   1.893   7.696  0.5461 -0.9542  1.1646
12073SOL     OW37028   5.799   7.681   2.737 -0.1217  0.3543 -0.5842
12073SOL    HW137029   5.724   7.705   2.683  0.4675  1.6426 -0.8703
12073SOL    HW237030   5.853   7.625   2.681 -0.7159 -0.3464 -0.4714
12074SOL     OW37031   7.951   2.006   4.008 -0.1158 -0.2336 -0.4339
12074SOL    HW137032   7.949   1.972   4.097 -2.4267  0.2242 -0.2404
12074SOL    HW237033   7.900   1.943   3.957 -3.4876  2.1022 -0.2826
12075SOL     OW37034   6.515   0.666   2.796  0.1981  0.7412  0.4585
12075SOL    HW137035   6.571   0.601   2.838  1.0226 -1.2021 -3.1658
12075SOL    HW237036   6.427   0.629   2.801  0.0445  1.2301  1.6216
12076SOL     OW37037   4.036   2.924   3.340  0.0522  0.8229  0.1190
12076SOL    HW137038   4.033   2.912   3.245  0.0041  1.2238  0.0664
12076SOL    HW237039   3.999   3.011   3.354 -2.2527 -0.1614  0.6956
12077SOL     OW37040   0.525   4.261   4.838  0.1409  0.1910 -0.0525
12077SOL    HW137041   0.455   4.320   4.867  1.7278  1.1343  2.0968
12077SOL    HW237042   0.485   4.174   4.836 -1.4272  0.8954 -0.2134
12078SOL     OW37043   4.659   3.320   0.960  0.5130  0.1395  0.2251
12078SOL    HW137044   4.632   3.409   0.938  1.4075  0.1482 -0.9138
12078SOL    HW237045   4.595   3.264   0.917  0.1056  0.2072  0.7232
12079SOL     OW37046   0.097   4.057   2.268  0.6243  0.3155  0.8601
12079SOL    HW137047   0.009   4.021   2.258  0.9712 -0.6147  1.0858
12079SOL    HW237048   0.099   4.133   2.209 -0.3270  0.3554  0.8654
12080SOL     OW37049   4.962   2.054   2.556 -0.1433 -0.0386  0.0052
12080SOL    HW137050   4.886   1.998   2.541  0.3377 -0.0842 -2.6526
12080SOL    HW237051   5.000   2.021   2.638 -1.3257 -1.9161 -0.1455
12081SOL     OW37052   4.718   7.335   7.295 -0.5301  0.2905  1.1144
12081SOL    HW137053   4.715   7.362   7.386 -1.0317  1.0972  0.8667
12081SOL    HW237054   4.772   7.255   7.295  2.4852  2.1545  1.6639
12082SOL     OW37055   6.862   7.668   6.078 -0.3819 -0.1345  0.6636
12082SOL    HW137056   6.877   7.673   6.173  1.6294  0.5434  0.3662
12082SOL    HW237057   6.925   7.604   6.047  2.7377  3.2318 -0.7641
12083SOL     OW37058   7.703   4.147   6.707 -0.0831  0.2604 -0.1794
12083SOL    HW137059   7.783   4.196   6.689 -0.1419  1.2865  1.9302
12083SOL    HW237060   7.657   4.144   6.624  1.5154  0.8246 -1.1362
12084SOL     OW37061   7.619   0.352   5.379 -0.0068 -0.0795 -0.0992
12084SOL    HW137062   7.683   0.324   5.444 -0.1529 -1.8653 -0.6761
12084SOL    HW237063   7.653   0.317   5.296 -1.7492 -1.1587 -0.4058
12085SOL     OW37064   4.187   6.142   1.130  0.3469  0.0163  0.2479
12085SOL    HW137065   4.192   6.068   1.070 -2.2906 -0.5526  0.6149
12085SOL    HW237066   4.104   6.184   1.111 -0.2749  0.2387  2.9706
12086SOL     OW37067   1.639   2.753   6.954  0.3388  0.1848  0.3695
12086SOL    HW137068   1.690   2.763   7.034  0.6212  0.4805  0.1547
12086SOL    HW237069   1.592   2.836   6.944  0.4743  0.2302  0.1116
12087SOL     OW37070   4.984   0.954   5.455 -0.2932 -0.0150 -0.6045
12087SOL    HW137071   4.933   0.879   5.486 -2.4315  1.9865  1.1268
12087SOL    HW237072   5.058   0.959   5.515  0.3255 -1.1199 -1.2225
12088SOL     OW37073   7.044   1.326   0.406 -0.1110  0.2545 -0.2870
12088SOL    HW137074   7.091   1.301   0.485 -1.0548 -0.6473  0.0082
12088SOL    HW237075   7.110   1.324   0.337  0.5821  0.4221  0.3530
12089SOL     OW37076   4.489   7.449   5.305 -0.1204  0.1742 -0.0545
12089SOL    HW137077   4.506   7.452   5.399  1.6317 -1.0528 -0.2748
12089SOL    HW237078   4.527   7.531   5.271  0.1735  0.1379  0.1821
12090SOL     OW37079   7.162   2.249   3.053 -0.4202  0.7516  0.5911
12090SOL    HW137080   7.180   2.281   3.142  1.0985  1.2589  0.1236
12090SOL    HW237081   7.090   2.304   3.022  0.1383  1.6944  0.9179
12091SOL     OW37082   2.305   0.987   2.049 -0.2844 -0.0754  0.4929
12091SOL    HW137083   2.251   1.050   2.001  1.6271 -1.4265 -3.8763
12091SOL    HW237084   2.241   0.935   2.099 -3.3326 -1.3962 -4.1135
12092SOL     OW37085   3.057   1.447   1.348  0.2043 -0.6043  0.3415
12092SOL    HW137086   3.059   1.462   1.254 -1.2405  0.6340  0.4717
12092SOL    HW237087   3.003   1.368   1.358  0.9186 -1.1290  0.1070
12093SOL     OW37088   3.466   7.475   3.556 -0.5218 -0.2025 -0.1052
12093SOL    HW137089   3.487   7.385   3.529 -0.9945 -0.2972 -0.1633
12093SOL    HW237090   3.514   7.487   3.638 -0.5338 -0.5430 -0.0445
12094SOL     OW37091   7.305   1.513   4.990 -0.3316 -0.1433 -0.0344
12094SOL    HW137092   7.283   1.538   4.900 -0.5009  0.9299  0.2966
12094SOL    HW237093   7.227   1.534   5.041 -0.3220 -0.9580  0.3427
12095SOL     OW37094   1.048   6.960   3.602 -0.0486  0.2149 -0.3271
12095SOL    HW137095   1.009   7.012   3.672  1.6196  0.6848  0.3056
12095SOL    HW237096   1.026   6.870   3.624 -1.2506  0.4907 -0.3265
12096SOL     OW37097   5.312   1.813   5.458  0.4592  0.0577  1.0731
12096SOL    HW137098   5.227   1.857   5.451 -0.3258 -1.4348  0.8968
12096SOL    HW237099   5.363   1.848   5.385  0.1523  1.2478  1.4006
12097SOL     OW37100   1.793   3.498   3.641  0.2607 -0.7880 -0.4191
12097SOL    HW137101   1.704   3.527   3.664  0.5749 -0.8508  0.9622
12097SOL    HW237102   1.798   3.512   3.547 -0.9958 -0.1618 -0.4282
12098SOL     OW37103   2.407   5.265   6.988 -0.1770 -0.0317 -0.1829
12098SOL    HW137104   2.474   5.219   7.038  0.4824 -0.0859 -1.0769
12098SOL    HW237105   2.433   5.253   6.896 -0.6932  1.0274 -0.4931
12099SOL     OW37106   5.046   0.340   6.087 -0.1385  0.2073  0.1593
12099SOL    HW137107   5.080   0.421   6.124 -0.3752 -0.1232  1.1202
12099SOL    HW237108   5.110   0.273   6.112 -0.1075  0.0412 -0.3520
12100SOL     OW37109   6.337   7.531   4.985  0.0999 -0.3355  0.6486
12100SOL    HW137110   6.260   7.517   5.040  0.2410 -0.9412  0.7084
12100SOL    HW237111   6.411   7.506   5.041  0.3309  0.1498  0.5625
12101SOL     OW37112   7.999   2.293   5.009 -0.4104 -0.1714 -0.5519
12101SOL    HW137113   7.919   2.341   4.990 -0.6174 -0.5612 -0.6771
12101SOL    HW237114   7.976   2.201   4.994  0.3982 -0.1964 -1.7899
12102SOL     OW37115   5.684   1.177   2.341 -0.6481  0.2408 -0.3919
12102SOL    HW137116   5.737   1.246   2.380 -1.4610  1.6684 -1.7093
12102SOL    HW237117   5.644   1.218   2.264 -1.1596 -1.7058 -1.2226
12103SOL     OW37118   5.297   5.025   3.518  0.1140  0.3935  0.1233
12103SOL    HW137119   5.239   4.954   3.489 -0.6872  2.0642 -2.6946
12103SOL    HW237120   5.361   5.035   3.447  0.6413  2.0466  0.7775
12104SOL     OW37121   2.619   0.061   3.391 -0.0890 -0.5792  0.3437
12104SOL    HW137122   2.586   0.141   3.349  0.0141 -0.8078 -0.1645
12104SOL    HW237123   2.651   0.007   3.320 -3.1586 -2.5415  0.2389
12105SOL     OW37124   6.358   2.471   3.527 -0.5842  0.2974  0.2133
12105SOL    HW137125   6.324   2.424   3.452  0.1425  0.0628  0.0256
12105SOL    HW237126   6.453   2.465   3.519 -0.4888 -0.5154  1.6366
12106SOL     OW37127   6.748   1.645   3.393 -0.5248 -0.1208  0.5479
12106SOL    HW137128   6.836   1.673   3.370  0.0786 -2.1885  0.0724
12106SOL    HW237129   6.702   1.639   3.309  0.0396 -2.4899  0.3259
12107SOL     OW37130   6.118   7.085   3.297 -0.9426 -0.6450 -0.4045
12107SOL    HW137131   6.137   7.088   3.390 -0.3019 -0.8857 -0.5250
12107SOL    HW237132   6.170   7.155   3.258 -1.1661 -0.5776 -0.5896
12108SOL     OW37133   3.750   0.787   1.941 -0.3369  0.1802  0.6151
12108SOL    HW137134   3.816   0.839   1.896  0.4596 -0.5086  0.9743
12108SOL    HW237135   3.798   0.716   1.983 -1.3680 -0.6882  0.3926
12109SOL     OW37136   7.688   2.325   2.164  0.2893  0.2708 -0.3918
12109SOL    HW137137   7.773   2.315   2.122 -0.8864 -0.2478 -2.8381
12109SOL    HW237138   7.671   2.419   2.159 -0.6785  0.0427 -3.0777
12110SOL     OW37139   4.610   1.050   5.853  0.2231  0.3304 -0.2470
12110SOL    HW137140   4.636   0.959   5.869 -2.5757 -0.4365  0.4287
12110SOL    HW237141   4.621   1.061   5.759  2.4033 -0.0160 -0.1029
12111SOL     OW37142   0.322   6.324   3.793 -0.2078 -0.2906  0.0481
12111SOL    HW137143   0.388   6.274   3.744  0.9351 -0.7376  1.9312
12111SOL    HW237144   0.306   6.402   3.740  0.9559 -0.7593 -1.0353
12112SOL     OW37145   1.714   0.994   7.761  0.2814 -0.3493 -0.0548
12112SOL    HW137146   1.728   0.906   7.727  2.4264  0.8702 -2.7151
12112SOL    HW237147   1.788   1.009   7.819 -0.2535 -0.3795  0.6474
12113SOL     OW37148   5.313   4.276   3.582  0.3000 -0.6801  0.6050
12113SOL    HW137149   5.245   4.313   3.638  0.3021 -0.1572  0.2707
12113SOL    HW237150   5.267   4.255   3.500  0.3926 -1.0077  0.6346
12114SOL     OW37151   2.118   6.996   2.546  0.1371 -0.0801 -0.4890
12114SOL    HW137152   2.117   6.997   2.642  0.0441  0.1811 -0.4906
12114SOL    HW237153   2.034   6.957   2.522 -0.3447  0.8927 -0.4662
12115SOL     OW37154   4.206   6.987   5.712  0.0291 -0.1835  0.3437
12115SOL    HW137155   4.173   6.922   5.774 -0.6808 -0.4770 -0.3074
12115SOL    HW237156   4.130   7.005   5.655  0.0742  1.5764  0.8030
12116SOL     OW37157   5.037   4.908   1.867 -0.3141  0.3263 -0.0117
12116SOL    HW137158   4.957   4.960   1.872  0.6000  2.1716 -2.5768
12116SOL    HW237159   5.023   4.837   1.929 -3.8800  0.6318 -0.2598
12117SOL     OW37160   4.228   2.236   0.762 -0.2737 -0.3052 -0.2242
12117SOL    HW137161   4.320   2.208   0.760 -0.4788 -0.9302 -1.2250
12117SOL    HW237162   4.233   2.331   0.750  0.2764 -0.2187  0.5704
12118SOL     OW37163   7.634   1.934   0.879  0.5242  0.0583  0.2144
12118SOL    HW137164   7.560   1.874   0.892 -0.2254  1.1871  1.4595
12118SOL    HW237165   7.636   1.987   0.959  0.2369  2.6806 -1.3904
12119SOL     OW37166   5.663   3.825   3.496  0.1798 -0.0173  0.4705
12119SOL    HW137167   5.600   3.761   3.464 -1.0205  0.7588  1.2026
12119SOL    HW237168   5.705   3.859   3.417 -0.7386 -0.1290 -0.0844
12120SOL     OW37169   1.291   0.120   4.705 -0.5171 -0.1813  0.0980
12120SOL    HW137170   1.294   0.146   4.613 -1.4484  0.7998  0.3273
12120SOL    HW237171   1.215   0.062   4.711 -0.2795 -0.4832  0.1885
12121SOL     OW37172   0.171   4.683   3.759 -0.0938  0.0535 -0.2784
12121SOL    HW137173   0.241   4.617   3.756  0.8149  1.0174 -2.0698
12121SOL    HW237174   0.177   4.721   3.846  0.7826 -0.7515  0.0294
12122SOL     OW37175   0.538   5.700   7.518 -0.5634 -0.6501 -0.1458
12122SOL    HW137176   0.582   5.620   7.543 -0.9562 -1.5337 -2.0885
12122SOL    HW237177   0.596   5.741   7.454 -0.0014  1.0603  1.3690
12123SOL     OW37178   1.242   4.824   0.489  0.1055 -0.0974 -0.0353
12123SOL    HW137179   1.321   4.782   0.455 -0.0289 -1.4299  1.2009
12123SOL    HW237180   1.189   4.842   0.411  0.5920 -1.4097 -0.6994
12124SOL     OW37181   1.724   7.116   5.700  0.0125 -0.5925 -0.3645
12124SOL    HW137182   1.672   7.104   5.779  0.6711  2.7597  0.7076
12124SOL    HW237183   1.815   7.111   5.730  0.2704  0.8075 -0.8393
12125SOL     OW37184   1.138   7.307   7.550  0.1773 -0.5431 -0.0840
12125SOL    HW137185   1.082   7.269   7.482  0.1556  0.8373 -0.8635
12125SOL    HW237186   1.156   7.396   7.520  0.3975  0.0148  1.5872
12126SOL     OW37187   7.559   6.608   4.197 -0.1582 -0.0156  0.4753
12126SOL    HW137188   7.608   6.672   4.145  0.2520 -0.4536  0.3211
12126SOL    HW237189   7.587   6.624   4.287 -0.3878  0.3166  0.4891
12127SOL     OW37190   6.818   1.668   7.366 -0.4974  0.0452 -0.4072
12127SOL    HW137191   6.859   1.626   7.290  2.0988 -1.3444  1.5970
12127SOL    HW237192   6.813   1.600   7.432 -1.6721  1.4687  1.0530
12128SOL     OW37193   0.460   1.976   1.490 -0.4591  0.3883 -0.7212
12128SOL    HW137194   0.395   2.046   1.487 -0.1792  0.6706 -0.3404
12128SOL    HW237195   0.544   2.022   1.498 -0.1158  0.0761 -2.1645
12129SOL     OW37196   1.262   6.275   0.861 -0.2096  0.3203 -0.3476
12129SOL    HW137197   1.275   6.199   0.805  0.9479 -0.3837  0.8278
12129SOL    HW237198   1.170   6.269   0.889 -0.2658 -0.3705 -0.6637
12130SOL     OW37199   1.692   5.547   3.029  0.2535  0.6475  0.2348
12130SOL    HW137200   1.604   5.549   2.991 -0.1029  0.9686  1.0452
12130SOL    HW237201   1.691   5.616   3.096  0.0044 -1.5339  2.6587
12131SOL     OW37202   0.124   7.775   7.091 -0.2474  0.4069 -0.1374
12131SOL    HW137203   0.100   7.867   7.099  2.4881  1.3177 -1.3292
12131SOL    HW237204   0.121   7.742   7.181 -0.3494  1.9107  0.4481
12132SOL     OW37205   6.121   0.699   5.952  0.1591 -0.5027 -0.0461
12132SOL    HW137206   6.075   0.731   5.875 -0.2132 -0.8846  0.0133
12132SOL    HW237207   6.067   0.627   5.984  0.2358 -0.2477  0.6651
12133SOL     OW37208   2.590   4.272   6.253  0.2452  0.5777 -0.7253
12133SOL    HW137209   2.563   4.272   6.345 -0.1739 -0.7144 -0.8243
12133SOL    HW237210   2.654   4.343   6.246  0.9681  0.1105  0.7683
12134SOL     OW37211   6.833   4.766   4.399  0.0148  0.5249 -0.2620
12134SOL    HW137212   6.765   4.808   4.453  1.4805  0.6480  1.5843
12134SOL    HW237213   6.881   4.839   4.360 -0.0888  0.4669 -0.4982
12135SOL     OW37214   7.283   0.328   0.563  0.4084 -0.0180 -0.1401
12135SOL    HW137215   7.225   0.346   0.637  1.2215 -0.7365  0.6953
12135SOL    HW237216   7.355   0.391   0.573  0.5538 -0.1609 -0.2776
12136SOL     OW37217   1.512   3.836   3.524  0.1270 -0.2968  0.4378
12136SOL    HW137218   1.491   3.758   3.574 -2.5110  0.9145  1.4128
12136SOL    HW237219   1.591   3.871   3.565 -1.3392  0.0681  3.1724
12137SOL     OW37220   5.765   4.694   2.410 -0.0925  0.2048 -0.2343
12137SOL    HW137221   5.767   4.761   2.479  0.3504  2.3988 -2.2282
12137SOL    HW237222   5.675   4.698   2.377  0.0329  0.0778 -0.5949
12138SOL     OW37223   4.922   4.615   6.745  0.1924 -0.3112 -0.3064
12138SOL    HW137224   4.930   4.692   6.688 -1.4807 -0.2501 -0.5165
12138SOL    HW237225   4.879   4.648   6.824 -0.3009 -0.9609 -0.2917
12139SOL     OW37226   6.001   1.356   6.568  0.0481 -0.1447  0.2097
12139SOL    HW137227   5.986   1.384   6.478 -1.1509 -0.7938  0.1911
12139SOL    HW237228   6.025   1.263   6.561  0.1581 -0.1440  0.5373
12140SOL     OW37229   3.098   2.006   1.839  0.0709 -0.6223  0.3576
12140SOL    HW137230   3.061   2.049   1.762  0.9263 -0.9491 -0.2562
12140SOL    HW237231   3.029   1.948   1.870 -0.9105  0.7924  0.8843
12141SOL     OW37232   3.942   0.876   7.586  0.1539 -0.2243 -0.2280
12141SOL    HW137233   3.971   0.834   7.667  0.3170  0.3694  0.0302
12141SOL    HW237234   4.020   0.920   7.552  0.0860 -0.4644 -0.7069
12142SOL     OW37235   4.907   2.811   3.639  0.4434 -0.5406  0.5761
12142SOL    HW137236   4.980   2.771   3.687  0.9224 -1.2459 -0.6686
12142SOL    HW237237   4.849   2.738   3.618  1.7710 -0.8904 -2.5149
12143SOL     OW37238   5.188   2.866   6.531 -0.0939 -0.2240 -0.0943
12143SOL    HW137239   5.197   2.797   6.596  1.2876  0.7330  0.7988
12143SOL    HW237240   5.265   2.921   6.544  0.5029 -0.2465 -2.8747
12144SOL     OW37241   2.115   4.264   5.217  0.8118 -0.2689  0.1009
12144SOL    HW137242   2.021   4.264   5.197  1.0835  0.9829 -1.3151
12144SOL    HW237243   2.119   4.281   5.312 -0.3811  0.0632  0.1058
12145SOL     OW37244   4.262   0.746   6.437 -0.6345 -0.3959  0.4631
12145SOL    HW137245   4.205   0.720   6.364 -0.9762 -3.0046  1.5495
12145SOL    HW237246   4.202   0.775   6.505 -0.6503 -1.8396  1.1097
12146SOL     OW37247   7.809   0.093   3.032  0.4868 -0.6715 -0.2844
12146SOL    HW137248   7.760   0.065   3.110 -1.2911  0.8355 -0.7871
12146SOL    HW237249   7.744   0.095   2.962  1.1323  1.7666 -0.9009
12147SOL     OW37250   7.247   6.714   4.476 -0.0825  0.3743  0.0744
12147SOL    HW137251   7.185   6.761   4.421  1.2093 -0.0213 -1.7798
12147SOL    HW237252   7.279   6.780   4.538 -2.4285  0.5413  1.2179
12148SOL     OW37253   1.422   4.746   5.204 -0.0467  0.6692 -0.4747
12148SOL    HW137254   1.348   4.690   5.226  0.0464  0.8451  0.2855
12148SOL    HW237255   1.478   4.690   5.149  0.6398 -0.3987  1.2373
12149SOL     OW37256   1.663   0.321   7.200 -0.1704 -0.3666  0.5392
12149SOL    HW137257   1.669   0.407   7.241 -2.6030  1.2319 -2.0623
12149SOL    HW237258   1.739   0.319   7.140  1.0225 -0.9530  2.0141
12150SOL     OW37259   6.659   1.271   6.938  0.7329  0.4537 -0.2267
12150SOL    HW137260   6.697   1.196   6.983 -1.2768 -1.4090 -1.4015
12150SOL    HW237261   6.575   1.284   6.980  0.4712  1.1383 -0.9405
12151SOL     OW37262   7.882   4.743   2.803 -0.3758  0.5594 -0.0769
12151SOL    HW137263   7.958   4.800   2.797 -1.2709  1.6637 -1.7599
12151SOL    HW237264   7.890   4.685   2.727  0.6018 -1.7738  1.6704
12152SOL     OW37265   2.103   7.931   6.787 -0.0222  0.2991  0.0198
12152SOL    HW137266   2.052   7.852   6.768  0.5328 -0.2362  0.7101
12152SOL    HW237267   2.040   7.993   6.822 -0.5587  0.3536 -1.0014
12153SOL     OW37268   3.150   5.093   7.396 -0.3425 -0.1520 -0.5228
12153SOL    HW137269   3.239   5.096   7.431  0.1690 -0.7642 -1.7358
12153SOL    HW237270   3.116   5.181   7.412  0.3450 -0.0082  0.2542
12154SOL     OW37271   4.418   7.870   7.780  0.2981  0.2105  0.3564
12154SOL    HW137272   4.420   7.884   7.685 -0.1455 -3.6692 -0.3856
12154SOL    HW237273   4.506   7.841   7.802  0.2670  0.6483  1.0957
12155SOL     OW37274   7.512   5.790   1.831  0.2663 -0.5183  0.2035
12155SOL    HW137275   7.592   5.739   1.846  0.0300 -0.5066  1.6815
12155SOL    HW237276   7.484   5.766   1.743  0.4530 -2.5637  0.6474
12156SOL     OW37277   0.145   4.265   7.179  0.1464 -0.2578 -0.0620
12156SOL    HW137278   0.200   4.244   7.104  0.8469  1.5324 -0.1024
12156SOL    HW237279   0.140   4.361   7.179 -2.4137 -0.3370  0.3572
12157SOL     OW37280   5.393   1.436   3.580  0.0730 -0.1419 -0.4673
12157SOL    HW137281   5.465   1.376   3.600  0.3259  0.4984  0.6177
12157SOL    HW237282   5.315   1.381   3.580  0.3184 -0.5095  0.3986
12158SOL     OW37283   0.647   2.046   3.132 -0.1528  0.5377  0.3417
12158SOL    HW137284   0.580   2.055   3.064  0.2380 -1.1190 -0.2910
12158SOL    HW237285   0.712   1.988   3.094 -0.3056 -1.0791  2.3967
12159SOL     OW37286   2.376   1.032   3.060  0.5222  0.5860  1.1536
12159SOL    HW137287   2.393   0.993   2.974 -0.8785 -0.5755  1.3547
12159SOL    HW237288   2.353   1.123   3.040  2.3606  0.9465  0.5280
12160SOL     OW37289   7.137   6.948   0.501 -0.0795 -0.0804 -0.2660
12160SOL    HW137290   7.119   7.037   0.531 -1.7030 -0.3083 -0.5149
12160SOL    HW237291   7.199   6.960   0.428 -1.1108  0.9402 -1.0112
12161SOL     OW37292   0.588   7.103   5.534  0.7734  0.0455  0.1272
12161SOL    HW137293   0.654   7.138   5.593 -0.5133  0.5844  1.2978
12161SOL    HW237294   0.565   7.018   5.570 -1.4191  1.1778  1.6358
12162SOL     OW37295   6.776   2.026   3.164 -0.0032 -0.1340 -0.6470
12162SOL    HW137296   6.688   1.987   3.171  0.5171 -1.7588 -2.3799
12162SOL    HW237297   6.820   1.973   3.098  2.2729  0.7333  0.1052
12163SOL     OW37298   7.372   3.125   3.238 -0.3845  0.2209  0.5069
12163SOL    HW137299   7.418   3.150   3.319  0.5018  3.0541 -0.7434
12163SOL    HW237300   7.420   3.048   3.207  0.5865  0.3496  1.6006
12164SOL     OW37301   2.297   1.181   3.713  0.8310  0.1227  0.2111
12164SOL    HW137302   2.376   1.229   3.689  0.3150  1.5341  1.2308
12164SOL    HW237303   2.319   1.136   3.794  1.5488 -2.0675 -1.1043
12165SOL     OW37304   1.742   1.389   4.278  0.6320  0.4236 -0.3397
12165SOL    HW137305   1.734   1.347   4.364 -0.9385  0.3382 -0.4880
12165SOL    HW237306   1.666   1.356   4.229 -0.8875  3.6279 -0.3566
12166SOL     OW37307   7.202   1.237   0.627  0.3440 -0.8283 -0.1242
12166SOL    HW137308   7.248   1.180   0.566  1.1208 -0.6608  0.2950
12166SOL    HW237309   7.271   1.278   0.679 -0.2670 -0.4317  0.3949
12167SOL     OW37310   5.841   6.129   7.356  0.1526 -0.3848  0.1125
12167SOL    HW137311   5.822   6.157   7.445 -2.5444 -2.3183  0.2566
12167SOL    HW237312   5.797   6.193   7.300 -2.0565 -1.6106  0.3416
12168SOL     OW37313   3.622   0.261   7.176  0.3882 -0.4422 -0.3713
12168SOL    HW137314   3.697   0.264   7.117  1.4227  0.3672  0.9613
12168SOL    HW237315   3.642   0.323   7.245 -0.8461 -1.2916  0.8024
12169SOL     OW37316   5.961   7.622   2.221  0.1306 -0.0747 -0.3376
12169SOL    HW137317   6.052   7.613   2.192  1.5543  1.1047  3.1853
12169SOL    HW237318   5.937   7.711   2.198  0.4382  0.1107  0.0394
12170SOL     OW37319   3.017   0.753   7.341 -0.1716  0.1471  0.2482
12170SOL    HW137320   3.044   0.692   7.410  0.5609  0.4939  0.2847
12170SOL    HW237321   3.075   0.828   7.352  0.3157 -0.0044 -1.0600
12171SOL     OW37322   6.584   7.087   1.480  0.1874 -0.1177  0.0858
12171SOL    HW137323   6.616   7.047   1.400  0.2630  0.5884 -0.2389
12171SOL    HW237324   6.489   7.073   1.477  0.1713  0.0496 -0.2064
12172SOL     OW37325   3.328   3.368   4.410 -0.2448  0.3497 -0.1260
12172SOL    HW137326   3.394   3.326   4.355  0.6441  0.8935  0.4891
12172SOL    HW237327   3.280   3.296   4.449  2.2525 -0.2451  2.1348
12173SOL     OW37328   6.029   3.818   0.669 -0.2912 -0.0221  0.4005
12173SOL    HW137329   5.995   3.888   0.724 -1.2691 -0.8443  0.8845
12173SOL    HW237330   6.047   3.746   0.730 -0.4561 -0.6085 -0.2286
12174SOL     OW37331   7.945   6.192   7.054  0.9544  0.2847  0.2385
12174SOL    HW137332   7.861   6.162   7.019  0.9793 -0.6556  0.9446
12174SOL    HW237333   8.009   6.129   7.022  1.6295  1.7351 -1.3882
12175SOL     OW37334   4.928   2.500   4.661  0.3362  0.2881  0.4426
12175SOL    HW137335   4.997   2.444   4.625  1.2501  2.3677 -1.1946
12175SOL    HW237336   4.966   2.588   4.663 -2.1389  1.4571 -0.1881
12176SOL     OW37337   4.480   4.854   2.606  0.4076 -0.1710 -0.5423
12176SOL    HW137338   4.424   4.898   2.670  0.4677 -1.1186  0.1912
12176SOL    HW237339   4.517   4.780   2.654  3.0725  0.9432 -0.7291
12177SOL     OW37340   6.885   2.260   2.626 -0.0673  0.5799 -0.2681
12177SOL    HW137341   6.813   2.322   2.609 -1.3769 -0.7392  0.2534
12177SOL    HW237342   6.842   2.183   2.663  1.7721  0.1676  1.1375
12178SOL     OW37343   5.224   0.623   2.481  0.2104 -0.3138 -0.7818
12178SOL    HW137344   5.176   0.694   2.522  0.6925 -0.3256 -0.1715
12178SOL    HW237345   5.243   0.654   2.392  2.7276  1.4966  0.2567
12179SOL     OW37346   7.196   0.768   1.397  0.0486  0.2858  0.1511
12179SOL    HW137347   7.243   0.700   1.445 -2.9639 -2.1425  0.0027
12179SOL    HW237348   7.187   0.840   1.459  0.4204 -0.8419  1.5530
12180SOL     OW37349   7.182   0.960   0.065 -0.2290  0.2300  0.1515
12180SOL    HW137350   7.112   0.979   0.003 -1.3426 -0.4821  1.1468
12180SOL    HW237351   7.185   1.038   0.121 -0.5934  0.0344  0.4425
12181SOL     OW37352   7.903   0.661   0.046 -0.3489 -0.1595  0.0974
12181SOL    HW137353   7.933   0.590   0.102 -2.4955 -0.7301  0.6026
12181SOL    HW237354   7.836   0.622  -0.011 -0.5388  1.1304 -0.6168
12182SOL     OW37355   0.960   4.746   0.216 -0.2725 -0.1582 -0.2332
12182SOL    HW137356   1.007   4.829   0.229 -1.4466  0.3212  1.2794
12182SOL    HW237357   1.024   4.678   0.237  0.2139  0.4323  0.2333
12183SOL     OW37358   4.133   7.760   1.132  0.4345 -0.7297  0.1599
12183SOL    HW137359   4.154   7.817   1.058 -0.3183  0.6273  0.9525
12183SOL    HW237360   4.183   7.680   1.115  1.1554 -0.0289 -1.2277
12184SOL     OW37361   0.818   6.341   3.348 -0.0660 -0.3184  0.1669
12184SOL    HW137362   0.830   6.272   3.283  1.7457 -2.1046  2.2527
12184SOL    HW237363   0.729   6.328   3.381  0.3408 -1.8716  0.7178
12185SOL     OW37364   5.877   1.333   5.545 -0.2030 -0.4679  0.7322
12185SOL    HW137365   5.897   1.423   5.516 -0.1846 -0.1119  1.8092
12185SOL    HW237366   5.875   1.339   5.641 -0.5684 -1.5475  0.7984
12186SOL     OW37367   3.225   2.337   3.763 -0.0735 -0.6119  0.4704
12186SOL    HW137368   3.221   2.424   3.803 -0.9535 -0.5132  0.1908
12186SOL    HW237369   3.188   2.279   3.828 -1.1787 -0.5025 -0.0413
12187SOL     OW37370   5.624   4.789   6.105 -0.5237 -0.7562  0.6895
12187SOL    HW137371   5.714   4.758   6.090 -0.2436 -0.2717  1.3361
12187SOL    HW237372   5.618   4.801   6.200 -0.4238  1.7087  0.4396
12188SOL     OW37373   2.753   4.765   5.528  0.2951 -0.1660  0.2711
12188SOL    HW137374   2.682   4.802   5.580 -0.5214 -0.3108 -0.6973
12188SOL    HW237375   2.827   4.823   5.542 -0.0218  0.0214  1.2581
12189SOL     OW37376   0.509   3.406   5.965  0.2290  0.0544 -0.2394
12189SOL    HW137377   0.429   3.436   6.008  1.1670  0.6696  1.1744
12189SOL    HW237378   0.479   3.350   5.894 -1.4362 -0.4365  0.7894
12190SOL     OW37379   2.933   1.341   4.145 -0.3197 -0.2602 -0.4320
12190SOL    HW137380   2.865   1.338   4.078 -0.5991 -0.2224 -0.1533
12190SOL    HW237381   2.885   1.353   4.227  0.0591  0.3213 -0.2911
12191SOL     OW37382   0.502   0.253   3.620  0.1821  0.2678 -0.0271
12191SOL    HW137383   0.491   0.231   3.712 -1.8432  0.2919 -0.2102
12191SOL    HW237384   0.480   0.346   3.615  0.0941  0.2217 -0.5630
12192SOL     OW37385   2.777   0.179   2.765 -0.3603  0.2855 -0.2039
12192SOL    HW137386   2.799   0.087   2.754  0.1621  0.1930  1.4131
12192SOL    HW237387   2.853   0.226   2.729  0.0220  0.0540  0.2962
12193SOL     OW37388   4.036   3.513   0.171 -0.3401  0.3108  0.4573
12193SOL    HW137389   4.045   3.606   0.154 -0.2184  0.1076 -0.6681
12193SOL    HW237390   3.957   3.505   0.224  0.5186  1.1864  1.9470
12194SOL     OW37391   7.519   2.568   4.070 -0.0703  0.0228  0.2511
12194SOL    HW137392   7.593   2.577   4.010  0.0155 -1.0894  0.1771
12194SOL    HW237393   7.469   2.494   4.036 -0.5914  0.0346  0.9640
12195SOL     OW37394   4.875   7.106   4.019  0.0115 -0.3875  0.0773
12195SOL    HW137395   4.934   7.031   4.029 -1.2021 -1.2497  0.8831
12195SOL    HW237396   4.870   7.145   4.106 -2.3449 -1.6656  0.5773
12196SOL     OW37397   5.863   0.983   5.195 -0.3789 -0.2675 -0.1160
12196SOL    HW137398   5.839   0.901   5.239 -0.2803  0.6253  1.6909
12196SOL    HW237399   5.921   1.028   5.257 -0.5921  1.2670 -0.9675
12197SOL     OW37400   7.736   1.005   0.701  0.0895  0.0543 -0.2694
12197SOL    HW137401   7.691   1.051   0.630  1.8574  1.4064 -0.5748
12197SOL    HW237402   7.828   1.031   0.692  0.8727 -2.1344  0.6817
12198SOL     OW37403   7.601   1.222   6.690  0.4238 -0.1360  0.0291
12198SOL    HW137404   7.656   1.259   6.621 -0.5113  0.0758 -0.6210
12198SOL    HW237405   7.537   1.168   6.643  0.5807 -1.0502  0.8318
12199SOL     OW37406   6.748   7.242   4.296  0.7292 -0.5527 -0.5481
12199SOL    HW137407   6.752   7.216   4.204 -4.7553  2.1393 -1.9098
12199SOL    HW237408   6.701   7.170   4.339  1.0768 -0.6797 -0.3748
12200SOL     OW37409   1.532   0.837   1.192  0.2422  0.1845  0.0934
12200SOL    HW137410   1.590   0.866   1.121 -0.4716 -0.1813 -0.6486
12200SOL    HW237411   1.564   0.750   1.215  0.2446  0.1487 -0.0428
12201SOL     OW37412   6.459   3.214   2.926 -0.4142  0.6814 -0.0612
12201SOL    HW137413   6.379   3.236   2.974 -0.1520 -1.2558  1.3922
12201SOL    HW237414   6.428   3.179   2.842 -1.0280  1.0470  0.0087
12202SOL     OW37415   1.261   5.350   5.573  0.0830  0.1129  0.1908
12202SOL    HW137416   1.289   5.322   5.486  1.2783  1.5878  0.0774
12202SOL    HW237417   1.202   5.423   5.557 -0.4963 -0.2506  0.6028
12203SOL     OW37418   4.660   2.214   7.782 -0.6688  0.0424  0.4111
12203SOL    HW137419   4.717   2.210   7.858 -1.5787  3.2025  1.4073
12203SOL    HW237420   4.572   2.202   7.818 -0.9933 -0.1579 -0.4271
12204SOL     OW37421   1.890   3.976   7.716 -0.0381 -0.5639 -0.0366
12204SOL    HW137422   1.976   4.017   7.709  1.1179 -2.9749 -1.3277
12204SOL    HW237423   1.891   3.907   7.649 -2.7828 -1.0173  0.2855
12205SOL     OW37424   1.581   6.371   0.836 -0.1254 -0.1025 -0.3926
12205SOL    HW137425   1.653   6.309   0.841  0.3177  0.4026 -0.4655
12205SOL    HW237426   1.505   6.321   0.867  0.1757 -0.7472 -0.6696
12206SOL     OW37427   2.293   0.926   2.462  0.4107 -0.3175  0.4814
12206SOL    HW137428   2.295   0.839   2.423 -2.3672 -0.8255  1.2464
12206SOL    HW237429   2.260   0.912   2.551  1.6060  1.3466  1.2250
12207SOL     OW37430   3.897   5.453   3.808  0.3659  0.1417 -0.4732
12207SOL    HW137431   3.837   5.453   3.734  0.3985 -3.6253 -0.7098
12207SOL    HW237432   3.983   5.472   3.770 -0.0321  1.2064 -0.8655
12208SOL     OW37433   7.185   2.630   7.925 -0.0919 -0.5804  0.7911
12208SOL    HW137434   7.232   2.672   7.853  0.2438 -0.2730  1.1846
12208SOL    HW237435   7.097   2.665   7.920 -0.4826 -1.6406 -0.3484
12209SOL     OW37436   6.656   0.518   5.971  0.4593  0.1094  0.9889
12209SOL    HW137437   6.751   0.505   5.983  0.6762  0.4449 -0.2904
12209SOL    HW237438   6.628   0.443   5.919  0.2932  0.7236  0.1689
12210SOL     OW37439   2.807   2.669   1.782 -0.0891  0.5609 -0.0207
12210SOL    HW137440   2.726   2.642   1.823  0.2018  1.7495  1.4319
12210SOL    HW237441   2.867   2.686   1.855  1.3981 -0.0704 -1.0432
12211SOL     OW37442   4.835   6.783   3.382  0.5103  0.6291 -0.5835
12211SOL    HW137443   4.833   6.831   3.465 -2.5029  1.0310 -0.7835
12211SOL    HW237444   4.782   6.705   3.398  0.2735  0.4798 -1.9792
12212SOL     OW37445   0.169   2.223   0.214  0.1916 -0.2298  0.5916
12212SOL    HW137446   0.154   2.257   0.125 -0.6550 -0.4008  0.6558
12212SOL    HW237447   0.206   2.136   0.200 -0.9570 -0.7144  0.3649
12213SOL     OW37448   0.258   6.325   2.789  0.5094 -0.0045  0.2916
12213SOL    HW137449   0.253   6.235   2.759  1.4886 -0.0211  0.1494
12213SOL    HW237450   0.348   6.335   2.822 -0.4005  0.0802  2.9934
12214SOL     OW37451   5.093   0.056   6.167  0.3550 -0.4230 -0.1296
12214SOL    HW137452   5.082   0.129   6.227  0.7696 -0.1642 -0.3652
12214SOL    HW237453   5.087  -0.022   6.223  0.2988 -0.1971  0.1814
12215SOL     OW37454   5.795   6.515   3.507 -0.0711 -0.2389 -0.5051
12215SOL    HW137455   5.742   6.450   3.553  2.3348 -2.7441 -0.9926
12215SOL    HW237456   5.733   6.562   3.452 -1.8403 -2.8265 -0.8913
12216SOL     OW37457   4.492   4.336   7.140  0.3032 -0.2025 -0.2285
12216SOL    HW137458   4.464   4.388   7.214 -0.5517  0.8877 -1.2813
12216SOL    HW237459   4.421   4.273   7.126  0.4741 -0.4227 -0.1063
12217SOL     OW37460   4.887   1.768   5.284  0.0549 -0.1525  0.3143
12217SOL    HW137461   4.850   1.854   5.304 -1.1021 -0.7328  0.7976
12217SOL    HW237462   4.973   1.769   5.326  0.4213  1.0688 -0.4293
12218SOL     OW37463   1.424   5.639   6.562  0.4939 -0.0173 -0.3440
12218SOL    HW137464   1.460   5.703   6.502 -0.0233  0.0808 -0.5573
12218SOL    HW237465   1.368   5.583   6.507  0.0171  0.0733  0.0411
12219SOL     OW37466   7.226   4.254   3.966  0.1168 -0.1017 -0.0305
12219SOL    HW137467   7.172   4.297   4.033  0.1406 -0.5810  0.2981
12219SOL    HW237468   7.259   4.176   4.008 -0.2413 -0.6575 -0.7484
12220SOL     OW37469   3.790   5.286   1.254 -0.0165  0.3959  0.3999
12220SOL    HW137470   3.721   5.256   1.196 -1.5279  2.8490  0.7887
12220SOL    HW237471   3.814   5.209   1.305 -2.6624 -0.4899  0.4410
12221SOL     OW37472   4.200   4.570   5.483 -0.2460  0.2458 -0.2093
12221SOL    HW137473   4.239   4.620   5.556 -0.3285 -0.0476  0.0379
12221SOL    HW237474   4.127   4.624   5.453  1.9090  2.1466 -2.4473
12222SOL     OW37475   0.330   4.432   7.891 -0.2621 -0.5552 -0.3840
12222SOL    HW137476   0.411   4.445   7.941 -0.8873  2.1570  0.0840
12222SOL    HW237477   0.359   4.422   7.801  0.5946  2.7406 -0.5742
12223SOL     OW37478   2.490   1.321   0.529 -0.0603  0.4100  0.3776
12223SOL    HW137479   2.504   1.314   0.434  0.6625 -0.2666  0.5298
12223SOL    HW237480   2.487   1.415   0.545 -3.3451  0.6534 -0.7584
12224SOL     OW37481   4.806   4.344   6.027  0.0535  0.4899  0.1735
12224SOL    HW137482   4.773   4.432   6.010 -1.4223  0.2654  1.6321
12224SOL    HW237483   4.899   4.356   6.047 -0.1871  1.7477  0.6101
12225SOL     OW37484   2.801   7.944   3.026  0.3391  0.1339  0.1321
12225SOL    HW137485   2.881   7.967   2.979  1.0997  0.5126  1.5348
12225SOL    HW237486   2.809   7.989   3.110 -1.3763  0.1965  0.3085
12226SOL     OW37487   0.067   4.549   7.975  0.5568 -0.1635  0.0394
12226SOL    HW137488   0.154   4.517   7.951  0.3157 -1.6719  1.0185
12226SOL    HW237489   0.080   4.641   7.997  1.7765 -0.2000 -0.4321
12227SOL     OW37490   1.203   5.824   5.311  0.2541 -0.0175  0.1374
12227SOL    HW137491   1.207   5.919   5.325  3.5286  0.1269 -0.9511
12227SOL    HW237492   1.238   5.786   5.392  2.9621  0.0089 -0.9174
12228SOL     OW37493   7.583   5.778   7.830  0.1562 -0.0361  0.4220
12228SOL    HW137494   7.550   5.698   7.789  0.6839 -0.1254  0.1752
12228SOL    HW237495   7.652   5.748   7.889  0.8066  0.2967 -0.1569
12229SOL     OW37496   2.773   6.508   1.246  0.3681 -0.0058  0.6184
12229SOL    HW137497   2.788   6.414   1.243  3.0210  0.3722 -0.6562
12229SOL    HW237498   2.691   6.521   1.198  0.9513 -1.5108 -0.8642
12230SOL     OW37499   5.328   6.934   0.209 -0.2502  0.3782 -0.0098
12230SOL    HW137500   5.295   6.851   0.176 -0.6019 -0.2646  1.8263
12230SOL    HW237501   5.373   6.974   0.135 -1.3845 -0.7501 -1.3395
12231SOL     OW37502   5.823   1.021   3.959  0.5398  0.1199  0.2852
12231SOL    HW137503   5.877   1.100   3.958  0.1321  0.3980  0.0927
12231SOL    HW237504   5.781   1.019   3.873  1.7003 -1.1203 -0.3094
12232SOL     OW37505   7.633   2.604   3.238  0.5517 -0.0752 -0.1711
12232SOL    HW137506   7.690   2.598   3.314  1.8389 -2.0939 -1.1942
12232SOL    HW237507   7.545   2.586   3.272  1.0315 -0.4216  0.9089
12233SOL     OW37508   7.997   0.965   4.654 -0.0993 -0.0947  0.2532
12233SOL    HW137509   8.042   1.014   4.723 -1.7780  1.4816  0.3230
12233SOL    HW237510   7.925   0.920   4.698 -0.9896  0.6624 -0.3718
12234SOL     OW37511   6.326   3.747   4.903  0.3257  0.5444  0.5448
12234SOL    HW137512   6.325   3.750   4.807  0.8783 -0.4474  0.4950
12234SOL    HW237513   6.409   3.705   4.924 -0.0535  0.2343  1.4440
12235SOL     OW37514   3.583   7.608   3.314 -0.7133  0.2004 -0.6080
12235SOL    HW137515   3.531   7.579   3.388 -0.4579  0.9238 -0.1318
12235SOL    HW237516   3.674   7.604   3.344 -0.4519 -1.1971 -1.4826
12236SOL     OW37517   7.874   6.452   6.195 -0.2347  0.7393 -0.2481
12236SOL    HW137518   7.900   6.389   6.261  0.1013  3.2710  2.2402
12236SOL    HW237519   7.955   6.475   6.150  0.3770  2.0781  1.4275
12237SOL     OW37520   3.914   7.290   0.903  0.1439  0.4168  0.0171
12237SOL    HW137521   3.874   7.237   0.834 -1.1450  0.8933  0.3687
12237SOL    HW237522   3.839   7.325   0.953  1.0319  0.5040  1.3301
12238SOL     OW37523   2.342   2.771   1.834  0.0910 -0.7589 -0.0676
12238SOL    HW137524   2.265   2.715   1.846 -1.1876  1.0663  0.8007
12238SOL    HW237525   2.322   2.849   1.885  2.0362  0.2732 -0.7959
12239SOL     OW37526   0.768   6.545   6.408  0.7074  0.1992 -0.0962
12239SOL    HW137527   0.765   6.464   6.359  0.6954  1.2605 -1.9266
12239SOL    HW237528   0.686   6.545   6.458  0.6192 -0.8043 -0.2171
12240SOL     OW37529   5.459   0.408   0.459 -0.0213 -0.0299  0.6867
12240SOL    HW137530   5.503   0.445   0.536  1.1050  1.0624 -0.4350
12240SOL    HW237531   5.531   0.384   0.400 -0.8848 -0.4601 -0.2023
12241SOL     OW37532   0.354   2.718   7.028 -0.2996 -0.1365  0.2475
12241SOL    HW137533   0.315   2.631   7.020 -0.3178 -0.0437 -0.7853
12241SOL    HW237534   0.280   2.778   7.025 -0.0908  0.0945 -2.6504
12242SOL     OW37535   2.392   7.484   4.783  0.0361  0.1872  0.3045
12242SOL    HW137536   2.319   7.493   4.844 -0.9884  0.3342 -0.8970
12242SOL    HW237537   2.452   7.555   4.807 -1.3655  1.6001 -0.1952
12243SOL     OW37538   7.343   0.803   3.097  0.4964  0.0229  0.2141
12243SOL    HW137539   7.287   0.817   3.173 -0.7596 -0.6277 -0.5500
12243SOL    HW237540   7.368   0.891   3.069 -1.2177  0.4264 -0.1681
12244SOL     OW37541   7.418   5.009   5.277 -0.0104 -0.3139  0.2074
12244SOL    HW137542   7.454   5.068   5.343 -0.7151  0.2884  0.0785
12244SOL    HW237543   7.369   4.944   5.327 -0.5596  0.1524  0.2976
12245SOL     OW37544   3.118   2.815   2.404 -0.3044  0.3881  0.8824
12245SOL    HW137545   3.057   2.831   2.475 -0.2998 -1.1736  1.2731
12245SOL    HW237546   3.193   2.773   2.446 -0.0907 -0.1078  0.0264
12246SOL     OW37547   2.552   1.032   3.567  0.1513 -0.5277 -0.8547
12246SOL    HW137548   2.561   1.099   3.499 -1.4497  0.4840 -0.1234
12246SOL    HW237549   2.548   1.082   3.649 -0.1497 -1.5908 -0.2017
12247SOL     OW37550   5.658   6.091   0.937  0.1741 -0.1865 -0.0036
12247SOL    HW137551   5.649   6.001   0.907 -1.4067 -0.9846  2.5632
12247SOL    HW237552   5.735   6.091   0.992 -1.0954 -0.6072  1.8592
12248SOL     OW37553   1.653   2.745   0.054  0.2592  0.1602  0.5306
12248SOL    HW137554   1.735   2.727   0.100  0.9079  0.0784 -0.5999
12248SOL    HW237555   1.602   2.665   0.064  0.8490 -0.2706  0.1997
12249SOL     OW37556   3.109   0.472   4.752 -0.3936  0.2109 -0.4809
12249SOL    HW137557   3.102   0.438   4.841  0.0275 -0.1810 -0.5919
12249SOL    HW237558   3.019   0.473   4.719 -0.7532  1.8436  0.4778
12250SOL     OW37559   3.689   0.546   6.126  0.4435 -0.2675  0.1702
12250SOL    HW137560   3.783   0.551   6.107  0.6352  0.4952  1.2594
12250SOL    HW237561   3.677   0.458   6.161  0.8404 -0.2065  0.4669
12251SOL     OW37562   6.784   2.565   6.729  0.2522  0.5325 -0.4604
12251SOL    HW137563   6.795   2.496   6.794  2.4141  1.9150  0.7812
12251SOL    HW237564   6.828   2.531   6.651 -0.2326 -0.1779 -0.4299
12252SOL     OW37565   6.049   2.343   6.731  0.1146  0.3381  0.2836
12252SOL    HW137566   6.073   2.357   6.640  0.7847  0.3029  0.4484
12252SOL    HW237567   6.112   2.395   6.781 -0.6605  0.8828  0.7083
12253SOL     OW37568   5.653   5.930   7.271 -0.1667 -0.9075  0.6258
12253SOL    HW137569   5.749   5.938   7.276 -0.0797 -1.6034  0.2605
12253SOL    HW237570   5.620   5.997   7.330  0.5474 -0.5079  0.5878
12254SOL     OW37571   6.533   1.875   6.554 -0.4768 -0.5878  0.0177
12254SOL    HW137572   6.546   1.820   6.478 -0.5567 -0.0563 -0.3897
12254SOL    HW237573   6.512   1.814   6.625  2.0279 -1.2976  0.2228
12255SOL     OW37574   7.872   7.512   0.718  0.0264 -0.4174 -0.0923
12255SOL    HW137575   7.812   7.570   0.765 -1.3519  0.7204 -3.0260
12255SOL    HW237576   7.939   7.570   0.683 -0.1713 -0.8891 -1.2886
12256SOL     OW37577   2.338   6.170   5.862 -0.1881 -0.2830  0.1743
12256SOL    HW137578   2.390   6.132   5.933 -0.1785  1.8438  1.3864
12256SOL    HW237579   2.324   6.261   5.888 -0.7338  0.4164 -2.2729
12257SOL     OW37580   2.101   7.124   0.131  0.7799 -0.2877 -0.4353
12257SOL    HW137581   2.034   7.134   0.199  0.6014 -1.3008 -0.4537
12257SOL    HW237582   2.163   7.194   0.150  0.8417 -0.6690  0.9132
12258SOL     OW37583   6.004   3.877   7.618 -0.6789 -0.0353  0.0614
12258SOL    HW137584   5.980   3.886   7.710 -1.1516 -0.1864 -0.0457
12258SOL    HW237585   5.958   3.798   7.589 -0.3790 -0.0934 -0.2552
12259SOL     OW37586   0.085   4.343   0.379 -0.3296 -0.0857  0.6674
12259SOL    HW137587   0.037   4.355   0.298 -2.5461 -0.3486  1.8804
12259SOL    HW237588   0.129   4.259   0.370  0.3614  0.3952 -0.6555
12260SOL     OW37589   3.427   1.173   1.086 -0.3221  0.3104  0.0190
12260SOL    HW137590   3.520   1.198   1.084 -0.1109 -0.3313  1.1281
12260SOL    HW237591   3.411   1.149   1.177 -1.0727 -1.4504 -0.5375
12261SOL     OW37592   4.198   0.237   7.604 -0.6141  0.3941 -0.3996
12261SOL    HW137593   4.291   0.221   7.622 -0.3788 -0.7032 -2.4145
12261SOL    HW237594   4.154   0.159   7.636 -0.5925 -0.0065 -1.3335
12262SOL     OW37595   3.341   2.967   6.850 -0.4122  0.6707  0.1066
12262SOL    HW137596   3.263   2.952   6.904  0.8155 -0.4738  1.6812
12262SOL    HW237597   3.329   2.911   6.773 -1.4644  1.0614 -0.0197
12263SOL     OW37598   4.329   1.305   6.802  0.0296 -0.3208  0.3736
12263SOL    HW137599   4.364   1.382   6.758 -0.1607 -0.5471 -0.1777
12263SOL    HW237600   4.406   1.255   6.828  0.1618  0.1483  0.9199
12264SOL     OW37601   7.207   7.590   1.743 -0.4100 -0.2714  0.3881
12264SOL    HW137602   7.203   7.510   1.794 -1.4493  0.1915  1.0842
12264SOL    HW237603   7.150   7.574   1.668  0.2043 -0.5461 -0.0214
12265SOL     OW37604   7.923   6.521   6.746 -0.0067 -0.0125 -0.2714
12265SOL    HW137605   7.982   6.460   6.703  0.4022  1.0003 -1.2017
12265SOL    HW237606   7.841   6.516   6.696  0.1250  0.4056 -0.5355
12266SOL     OW37607   3.147   7.189   4.307  0.1002 -0.0435  0.2364
12266SOL    HW137608   3.098   7.108   4.297  0.7528 -0.1515 -2.8935
12266SOL    HW237609   3.079   7.257   4.314 -0.4444 -0.5936  0.3790
12267SOL     OW37610   3.661   0.873   1.103 -0.3836  0.5253  0.2769
12267SOL    HW137611   3.722   0.823   1.049  1.0214  1.2473  1.1277
12267SOL    HW237612   3.579   0.824   1.099  0.6648 -1.3040  0.3062
12268SOL     OW37613   4.172   0.973   0.610  0.5565  0.1061  0.3123
12268SOL    HW137614   4.128   1.057   0.598  0.8123  0.7215  2.9217
12268SOL    HW237615   4.102   0.913   0.638  0.7606  0.1456  0.9322
12269SOL     OW37616   5.338   3.381   5.063 -0.8458  0.3556 -0.1408
12269SOL    HW137617   5.334   3.474   5.084  0.4181  0.8994 -2.0998
12269SOL    HW237618   5.277   3.370   4.990 -0.6704 -0.2786 -0.1983
12270SOL     OW37619   5.367   4.212   7.731 -0.2391 -0.4830 -0.1645
12270SOL    HW137620   5.314   4.261   7.669 -2.0250 -0.0313  1.6054
12270SOL    HW237621   5.431   4.275   7.763 -0.0803 -0.3912 -0.6490
12271SOL     OW37622   0.932   7.550   7.570  0.4413 -0.0418 -0.0216
12271SOL    HW137623   0.944   7.522   7.660  0.4871  1.4767  0.4627
12271SOL    HW237624   0.849   7.508   7.543  0.1440 -0.0537  0.8965
12272SOL     OW37625   1.341   3.643   7.676 -0.1507 -0.0567  0.5295
12272SOL    HW137626   1.417   3.692   7.707 -0.0453  1.1673 -1.4808
12272SOL    HW237627   1.379   3.566   7.633  0.0192  0.7006 -0.7308
12273SOL     OW37628   0.796   7.659   5.488 -0.2977 -0.5442  0.1953
12273SOL    HW137629   0.744   7.701   5.557 -0.0102 -0.5241  0.3999
12273SOL    HW237630   0.740   7.664   5.410 -0.4250 -0.1215  0.3080
12274SOL     OW37631   6.313   3.886   4.266 -0.3399 -0.4463  0.1566
12274SOL    HW137632   6.337   3.960   4.322  0.4229 -0.5959  0.0295
12274SOL    HW237633   6.384   3.879   4.203 -0.7311 -0.8806 -0.2448
12275SOL     OW37634   4.552   7.981   4.783  0.3188 -0.0030  0.3713
12275SOL    HW137635   4.486   8.014   4.721 -0.1034 -0.5283  0.5340
12275SOL    HW237636   4.522   7.893   4.805  1.3512 -0.4446  0.0690
12276SOL     OW37637   6.953   0.250   0.263  0.1327 -0.0458  0.0398
12276SOL    HW137638   7.043   0.222   0.278 -0.4517 -1.9164  0.3158
12276SOL    HW237639   6.933   0.221   0.174 -0.3827 -0.1807  0.1936
12277SOL     OW37640   2.908   2.826   0.412 -0.3383 -0.4474 -0.3367
12277SOL    HW137641   2.822   2.793   0.383  0.4101 -1.3341 -1.6364
12277SOL    HW237642   2.913   2.799   0.504 -1.9025  0.5874  0.0981
12278SOL     OW37643   4.239   1.045   5.763  0.0736  0.5197  0.1953
12278SOL    HW137644   4.203   0.957   5.774  0.4613  0.0679 -1.6692
12278SOL    HW237645   4.290   1.061   5.842 -0.7150 -0.5711  0.9432
12279SOL     OW37646   0.662   4.469   5.221 -0.4349  0.5356  0.3904
12279SOL    HW137647   0.589   4.518   5.257  0.0170  1.6731 -0.2002
12279SOL    HW237648   0.710   4.532   5.168  0.7605 -0.2799  0.4552
12280SOL     OW37649   6.164   7.341   1.071  0.2268 -0.1216 -0.0114
12280SOL    HW137650   6.183   7.271   1.009  2.9178  0.4518  0.0623
12280SOL    HW237651   6.136   7.414   1.016  1.3989  0.0007 -0.4707
12281SOL     OW37652   1.723   5.982   1.406  0.2101  0.0197  0.1425
12281SOL    HW137653   1.712   5.993   1.312 -0.1933 -2.6268 -0.2129
12281SOL    HW237654   1.635   5.994   1.443  0.1601 -0.0136  0.0336
12282SOL     OW37655   0.927   6.301   6.521  0.0101  0.4236  0.2762
12282SOL    HW137656   1.005   6.351   6.498 -0.3443  1.0904  0.5084
12282SOL    HW237657   0.865   6.320   6.450  1.5419 -3.7359 -2.5598
12283SOL     OW37658   6.140   7.227   4.441  0.6495  0.1670  0.3453
12283SOL    HW137659   6.169   7.137   4.428 -2.7527 -1.1156  0.6391
12283SOL    HW237660   6.117   7.259   4.354  2.4526  1.0542  0.1535
12284SOL     OW37661   0.068   2.069   6.307  0.0127  0.4322  0.1245
12284SOL    HW137662  -0.022   2.095   6.328  0.3736  1.8085  0.0797
12284SOL    HW237663   0.060   2.024   6.223 -0.7005  0.0629  0.3776
12285SOL     OW37664   5.739   0.117   1.554 -0.1679  0.3385 -0.3541
12285SOL    HW137665   5.704   0.052   1.492 -2.6433  0.6487  0.5880
12285SOL    HW237666   5.724   0.079   1.640  1.5864  0.6923  0.1397
12286SOL     OW37667   6.851   5.986   3.534 -0.0414  0.8888  0.5746
12286SOL    HW137668   6.831   5.894   3.551  2.3473  0.2147  0.0413
12286SOL    HW237669   6.849   6.027   3.620 -1.3732  0.4307  0.7924
12287SOL     OW37670   2.510   7.162   5.299 -0.0721 -0.3043  0.6514
12287SOL    HW137671   2.552   7.100   5.358  0.8375  0.7337  1.1466
12287SOL    HW237672   2.561   7.243   5.309 -0.2019  0.0529 -1.1848
12288SOL     OW37673   7.376   3.321   0.861  0.4006 -0.0895 -0.7633
12288SOL    HW137674   7.407   3.238   0.826 -0.7451 -1.1145  0.5458
12288SOL    HW237675   7.295   3.299   0.908  0.2372  1.7064 -0.1148
12289SOL     OW37676   6.201   5.811   2.953 -0.2899  0.5518 -0.7826
12289SOL    HW137677   6.254   5.778   2.880 -1.9794  0.5739 -2.1060
12289SOL    HW237678   6.204   5.906   2.943  1.2629  0.6593  0.5424
12290SOL     OW37679   1.814   6.292   2.700 -0.0918  0.3884 -0.2075
12290SOL    HW137680   1.822   6.387   2.702  1.1477  0.3103 -0.4843
12290SOL    HW237681   1.859   6.263   2.779  1.5705 -0.0616 -1.2705
12291SOL     OW37682   3.747   7.330   2.948 -0.0674  0.4990 -0.0287
12291SOL    HW137683   3.750   7.367   3.036 -0.3702  0.2152  0.1038
12291SOL    HW237684   3.829   7.281   2.940 -0.2472  0.1497  0.2629
12292SOL     OW37685   2.262   1.924   0.241  0.1255 -0.0478  0.0354
12292SOL    HW137686   2.312   1.913   0.322  2.1625  0.6677 -1.0391
12292SOL    HW237687   2.228   1.837   0.221  1.4495 -0.7143  0.5437
12293SOL     OW37688   6.106   7.844   3.531  0.3801 -0.1163 -0.0486
12293SOL    HW137689   6.071   7.905   3.596  0.5297  1.7809 -1.6379
12293SOL    HW237690   6.043   7.773   3.528 -0.8547  0.9092  0.5135
12294SOL     OW37691   7.250   2.955   7.215  0.0272 -0.3239 -0.3796
12294SOL    HW137692   7.259   2.956   7.310 -0.9174 -0.2456 -0.2829
12294SOL    HW237693   7.162   2.922   7.199 -0.5008  1.3106 -1.1589
12295SOL     OW37694   6.128   0.482   5.468 -0.1779  0.4414 -0.1066
12295SOL    HW137695   6.036   0.459   5.460 -0.0711 -0.2146  0.3926
12295SOL    HW237696   6.132   0.576   5.450 -1.0361  0.6104  0.5412
12296SOL     OW37697   2.068   7.275   6.713 -0.2674  0.2622 -0.4594
12296SOL    HW137698   2.146   7.322   6.684  0.4515 -0.8358 -0.3541
12296SOL    HW237699   2.015   7.341   6.758  0.8625  0.8887 -0.0277
12297SOL     OW37700   3.517   1.966   1.888 -0.1816  0.4067 -0.2160
12297SOL    HW137701   3.449   2.017   1.844  1.3217  1.6965 -1.1575
12297SOL    HW237702   3.520   2.001   1.977 -1.6392 -0.5976  0.2582
12298SOL     OW37703   5.214   0.480   1.202 -0.6875  0.5792 -0.0817
12298SOL    HW137704   5.162   0.560   1.198 -2.1483 -0.3037  0.4242
12298SOL    HW237705   5.211   0.454   1.294  1.1051  0.7734  0.0569
12299SOL     OW37706   1.444   4.467   0.518 -0.4811  0.2180 -0.5405
12299SOL    HW137707   1.448   4.550   0.470  1.2024  0.6436  0.2777
12299SOL    HW237708   1.446   4.492   0.610 -0.2348 -0.7284 -0.2793
12300SOL     OW37709   3.265   2.895   7.863  0.2605 -0.2780 -0.0344
12300SOL    HW137710   3.173   2.921   7.864  0.3294 -0.0574  0.7189
12300SOL    HW237711   3.311   2.973   7.835  0.0680 -0.9432 -2.4524
12301SOL     OW37712   5.790   0.434   5.768 -0.5988 -0.0634 -0.4606
12301SOL    HW137713   5.744   0.479   5.839 -2.7864 -2.2767 -0.3293
12301SOL    HW237714   5.879   0.420   5.801 -1.6174 -1.2366  2.0105
12302SOL     OW37715   6.877   1.507   6.009  0.2599  0.0167 -0.4922
12302SOL    HW137716   6.854   1.561   5.933  2.0697 -0.0219 -1.1319
12302SOL    HW237717   6.867   1.566   6.083 -1.0909  0.1943 -0.7816
12303SOL     OW37718   0.577   0.490   0.649  0.1114 -0.0054  0.4225
12303SOL    HW137719   0.550   0.542   0.724 -1.3254 -1.4285  0.9717
12303SOL    HW237720   0.495   0.465   0.606  0.8001 -0.8416 -0.4814
12304SOL     OW37721   2.959   2.134   7.140  0.6070  0.6249 -0.0438
12304SOL    HW137722   2.879   2.185   7.141  0.9596  1.3674  3.4565
12304SOL    HW237723   3.005   2.162   7.061 -1.3612  2.1374 -0.7243
12305SOL     OW37724   3.084   0.505   5.036 -0.1247 -0.3904  0.2668
12305SOL    HW137725   3.178   0.512   5.051 -0.1589 -1.1368  0.9021
12305SOL    HW237726   3.054   0.441   5.101 -0.8810 -1.0118 -0.6588
12306SOL     OW37727   0.582   3.587   0.539  0.1011 -0.5353  0.0871
12306SOL    HW137728   0.643   3.598   0.466  0.5594  2.0531  0.7719
12306SOL    HW237729   0.500   3.558   0.498  0.6404 -0.1465 -1.3245
12307SOL     OW37730   7.269   1.388   3.979  0.1932  0.0934 -0.4196
12307SOL    HW137731   7.249   1.314   3.922 -1.7859  1.0387 -1.0369
12307SOL    HW237732   7.233   1.363   4.064 -3.5626  1.5357 -1.3803
12308SOL     OW37733   5.113   3.917   0.499 -0.6723  0.0609 -0.3276
12308SOL    HW137734   5.028   3.954   0.523 -1.5835 -1.3116 -1.2759
12308SOL    HW237735   5.121   3.838   0.552  0.6430  0.8516  0.7096
12309SOL     OW37736   0.636   1.386   0.628 -0.1129 -0.5375  0.3674
12309SOL    HW137737   0.669   1.470   0.659 -0.4152  0.1109 -0.9931
12309SOL    HW237738   0.710   1.325   0.639  0.3294  0.0568  0.7220
12310SOL     OW37739   6.776   4.651   0.862 -0.1236  0.4256  0.1047
12310SOL    HW137740   6.802   4.601   0.785 -0.1638  0.9198 -0.2376
12310SOL    HW237741   6.740   4.586   0.923  0.6294 -0.0734  0.0253
12311SOL     OW37742   5.009   0.487   1.859 -0.6662  0.6711  0.0625
12311SOL    HW137743   4.944   0.535   1.808 -1.7680  1.3925  2.0206
12311SOL    HW237744   4.974   0.398   1.864  0.0329  0.2894 -1.3442
12312SOL     OW37745   5.527   3.251   5.982 -0.3658 -0.5788 -0.3304
12312SOL    HW137746   5.536   3.248   6.077  0.0776  0.0958 -0.3423
12312SOL    HW237747   5.586   3.322   5.955  1.1427 -2.1085 -1.3073
12313SOL     OW37748   7.908   4.321   1.491  0.0771  0.4068 -0.3015
12313SOL    HW137749   7.946   4.254   1.434  0.9254  2.0222 -1.7446
12313SOL    HW237750   7.900   4.279   1.576  1.5347 -1.1975 -0.9088
12314SOL     OW37751   6.616   5.286   5.430  0.0523 -0.1681  0.2633
12314SOL    HW137752   6.583   5.320   5.513  0.6343 -1.6381  1.1366
12314SOL    HW237753   6.681   5.351   5.402 -0.7172  0.7422  0.5408
12315SOL     OW37754   7.213   5.360   5.804  0.2738  0.2048  0.0620
12315SOL    HW137755   7.296   5.373   5.758  0.1667 -1.7523 -0.7583
12315SOL    HW237756   7.146   5.365   5.735 -0.2659  1.2031  0.6324
12316SOL     OW37757   0.477   3.395   7.298 -0.6072 -0.1144 -0.1753
12316SOL    HW137758   0.508   3.391   7.208 -2.8183 -2.6997 -0.9740
12316SOL    HW237759   0.430   3.312   7.311 -2.0549  1.0008  2.7282
12317SOL     OW37760   3.387   6.515   0.408  0.0569 -0.3067  0.4726
12317SOL    HW137761   3.296   6.546   0.400  0.2865  0.9106  1.9982
12317SOL    HW237762   3.438   6.594   0.424  1.3761 -1.0051 -0.1220
12318SOL     OW37763   2.901   6.820   2.281 -0.0611  0.3968 -0.3431
12318SOL    HW137764   2.949   6.826   2.363 -1.4470 -0.7620  0.5908
12318SOL    HW237765   2.959   6.771   2.223 -0.0877 -1.0210  0.7730
12319SOL     OW37766   1.116   7.090   2.244 -0.1451  0.0213 -0.0644
12319SOL    HW137767   1.147   7.168   2.197  2.1859  0.1352  1.4945
12319SOL    HW237768   1.156   7.017   2.197 -0.0651 -0.0511  0.1174
12320SOL     OW37769   2.271   5.070   1.031 -0.0055  0.2537  0.7962
12320SOL    HW137770   2.227   4.989   1.005 -0.1815  0.4763  0.3984
12320SOL    HW237771   2.247   5.134   0.964  0.4311  0.5393  0.9052
12321SOL     OW37772   3.535   4.384   0.259 -0.0157  0.1070  0.0032
12321SOL    HW137773   3.510   4.476   0.261 -1.9268 -0.3709 -0.1103
12321SOL    HW237774   3.589   4.376   0.180  0.5219  1.1905  0.2341
12322SOL     OW37775   4.056   7.411   1.097  0.3382 -0.1380 -0.5485
12322SOL    HW137776   3.993   7.375   1.035 -0.1431  0.1405 -0.2238
12322SOL    HW237777   4.134   7.430   1.044  0.5857 -1.5782 -0.7457
12323SOL     OW37778   3.341   3.763   6.370  0.4740 -0.7883  0.0640
12323SOL    HW137779   3.391   3.699   6.319  0.5361 -0.7372  0.0595
12323SOL    HW237780   3.391   3.773   6.451  2.6539  2.1097 -1.4202
12324SOL     OW37781   2.518   1.534   2.920  0.0478 -0.0661  0.7314
12324SOL    HW137782   2.452   1.597   2.889 -0.8164 -1.2704  0.0638
12324SOL    HW237783   2.553   1.574   3.000 -0.9326  0.9582  0.6765
12325SOL     OW37784   2.080   5.683   3.774 -0.3874  0.1957  0.1576
12325SOL    HW137785   2.045   5.742   3.840  0.3239 -0.8776  1.5545
12325SOL    HW237786   2.003   5.641   3.736 -0.9911  2.6880 -1.6073
12326SOL     OW37787   3.882   1.047   5.809 -0.2357 -0.1875  0.2578
12326SOL    HW137788   3.898   1.012   5.721  0.9350 -2.0042  1.1346
12326SOL    HW237789   3.922   1.135   5.807 -2.4165  0.8797 -1.7091
12327SOL     OW37790   5.222   6.775   1.675 -0.2226 -0.2785  0.3324
12327SOL    HW137791   5.219   6.713   1.603 -2.3816 -0.5239  0.5667
12327SOL    HW237792   5.290   6.838   1.651 -0.3497 -0.8126 -1.5146
12328SOL     OW37793   7.132   4.062   6.667 -0.1564  0.1084 -0.9096
12328SOL    HW137794   7.203   4.054   6.604  0.8036  1.7505 -0.1059
12328SOL    HW237795   7.075   4.129   6.632 -0.3655  0.0442 -0.6985
12329SOL     OW37796   6.885   4.473   5.460  0.5163  0.2561 -0.8817
12329SOL    HW137797   6.859   4.439   5.374  1.5590  0.2932 -1.2279
12329SOL    HW237798   6.972   4.511   5.446  1.2837 -0.9007  0.4671
12330SOL     OW37799   2.867   0.502   5.283 -0.4021 -0.0077 -0.2810
12330SOL    HW137800   2.940   0.509   5.344 -0.0433 -1.2002 -0.5445
12330SOL    HW237801   2.800   0.454   5.331 -0.3559 -0.4019 -0.6050
12331SOL     OW37802   1.309   1.209   2.321 -0.5717  0.7195 -0.5945
12331SOL    HW137803   1.267   1.131   2.357 -0.3207  1.2737  0.9828
12331SOL    HW237804   1.393   1.214   2.366 -0.6249  1.9521 -0.5857
12332SOL     OW37805   7.695   4.586   6.832  0.4118  0.2876  0.0227
12332SOL    HW137806   7.620   4.534   6.805  0.0775  0.5991  0.3355
12332SOL    HW237807   7.742   4.530   6.894 -0.3223  0.5962  0.8930
12333SOL     OW37808   5.020   6.784   7.926  0.7100 -0.1679  0.2448
12333SOL    HW137809   4.991   6.841   7.997  1.2458 -0.2807  0.5586
12333SOL    HW237810   4.970   6.813   7.849 -0.6946 -0.7587  0.8925
12334SOL     OW37811   6.576   6.737   0.313  0.1655  0.2213  0.3381
12334SOL    HW137812   6.495   6.767   0.354  1.4548  1.4637  2.1131
12334SOL    HW237813   6.632   6.815   0.311  0.9588 -0.3226 -1.8961
12335SOL     OW37814   3.776   1.756   2.152  0.3900  0.4009  0.6467
12335SOL    HW137815   3.797   1.846   2.127  2.1053 -0.3280 -0.7582
12335SOL    HW237816   3.692   1.739   2.110  0.3431  1.1530  0.4161
12336SOL     OW37817   2.869   0.166   5.597  0.1904 -0.2288 -0.5252
12336SOL    HW137818   2.837   0.105   5.664 -0.2859  0.6151  0.0482
12336SOL    HW237819   2.795   0.226   5.584  0.5917  0.1206 -1.1891
12337SOL     OW37820   4.160   7.832   4.398 -0.1469  0.1864 -0.1182
12337SOL    HW137821   4.125   7.747   4.369 -0.7018  0.5893 -0.6536
12337SOL    HW237822   4.234   7.849   4.340  1.1678 -0.7968  1.1916
12338SOL     OW37823   5.284   5.419   1.658  0.4045 -0.3368  0.0424
12338SOL    HW137824   5.333   5.374   1.590 -1.2073  1.5672 -2.5896
12338SOL    HW237825   5.220   5.354   1.689  1.8182 -1.5424  0.5225
12339SOL     OW37826   5.027   0.666   7.912 -0.0304 -0.4406  0.6672
12339SOL    HW137827   5.069   0.752   7.918 -0.8077  0.0411 -0.3983
12339SOL    HW237828   4.933   0.686   7.905 -0.2107 -1.3721  0.2707
12340SOL     OW37829   5.536   4.906   5.738  0.0740  0.0213  0.1560
12340SOL    HW137830   5.514   4.866   5.655 -1.2562 -0.6066  0.7854
12340SOL    HW237831   5.492   4.852   5.804  0.0736  1.2133  1.1766
12341SOL     OW37832   6.320   7.105   7.092 -0.2247 -0.0790  0.1679
12341SOL    HW137833   6.311   7.074   7.002 -0.0995 -0.6591  0.3511
12341SOL    HW237834   6.355   7.030   7.139 -1.9987 -0.3785  1.0863
12342SOL     OW37835   4.197   6.471   5.548  0.4679 -0.4061  0.0802
12342SOL    HW137836   4.158   6.485   5.461  1.5520 -1.2209 -0.5682
12342SOL    HW237837   4.186   6.554   5.593 -1.8677 -0.5616 -0.1116
12343SOL     OW37838   1.511   3.747   5.997 -0.5215 -0.4363 -0.3062
12343SOL    HW137839   1.558   3.726   6.078  0.7794 -2.9142 -1.5931
12343SOL    HW237840   1.572   3.801   5.947 -1.1391  0.6842  0.0970
12344SOL     OW37841   7.039   3.641   6.136  0.0057 -0.1350  0.6117
12344SOL    HW137842   7.016   3.734   6.142  0.3463  0.0604 -0.7531
12344SOL    HW237843   6.986   3.599   6.205 -0.7328  0.9539  0.7446
12345SOL     OW37844   1.117   5.833   4.140  0.3816  0.4489  0.2305
12345SOL    HW137845   1.053   5.889   4.184 -0.7380 -0.2727 -0.4356
12345SOL    HW237846   1.200   5.852   4.184 -0.2369  1.5796  0.9542
12346SOL     OW37847   5.825   5.707   7.956  0.4102 -0.5650 -0.0400
12346SOL    HW137848   5.888   5.636   7.949  0.5452 -0.4348 -0.1554
12346SOL    HW237849   5.740   5.665   7.944  0.4959 -0.6932 -0.1987
12347SOL     OW37850   5.913   4.429   5.391 -0.4308 -0.2220 -0.3726
12347SOL    HW137851   5.844   4.490   5.416  0.0313  1.0197 -1.9480
12347SOL    HW237852   5.942   4.460   5.305  0.1756 -2.3806 -1.0093
12348SOL     OW37853   1.901   6.553   2.692  0.0262  0.0902  0.5149
12348SOL    HW137854   1.957   6.582   2.763 -0.6183 -0.8455  1.4398
12348SOL    HW237855   1.945   6.583   2.612  1.0441  0.6722  1.2774
12349SOL     OW37856   5.768   7.356   0.118 -0.3654  0.0330 -0.1146
12349SOL    HW137857   5.732   7.439   0.085  2.4705  1.5818  0.3855
12349SOL    HW237858   5.759   7.295   0.045  1.0366  1.9139 -1.9496
12350SOL     OW37859   0.589   5.758   6.090 -0.1211 -0.0077  0.8199
12350SOL    HW137860   0.538   5.809   6.026 -0.0257  0.3331  1.0152
12350SOL    HW237861   0.527   5.737   6.159  0.3023  1.5581  1.7237
12351SOL     OW37862   7.632   7.599   5.881  0.5044 -0.0218  0.2260
12351SOL    HW137863   7.539   7.622   5.872  0.4327 -0.8141 -1.4897
12351SOL    HW237864   7.661   7.647   5.958 -1.6065 -0.6372  1.4871
12352SOL     OW37865   1.899   4.948   0.860 -0.9602 -0.1653  0.3662
12352SOL    HW137866   1.871   4.903   0.940 -0.8683  0.1860  0.6030
12352SOL    HW237867   1.947   5.025   0.892  0.2004 -0.6999 -0.0218
12353SOL     OW37868   1.039   1.357   3.360  0.0761  0.2526 -0.0185
12353SOL    HW137869   1.055   1.438   3.312  0.1225  2.1179  2.8598
12353SOL    HW237870   1.124   1.334   3.397 -0.4109  0.3364  1.2006
12354SOL     OW37871   2.502   0.797   7.656  0.0128  0.2896  0.7097
12354SOL    HW137872   2.588   0.774   7.619  0.9320  2.0586  1.6118
12354SOL    HW237873   2.523   0.838   7.740 -1.5909  2.2116  0.2491
12355SOL     OW37874   7.429   5.473   2.904  0.2396 -0.2287  0.1395
12355SOL    HW137875   7.428   5.449   2.811  0.4629  2.8308 -0.7551
12355SOL    HW237876   7.474   5.400   2.947  3.1462 -0.3386 -2.6703
12356SOL     OW37877   3.000   6.082   2.256  0.2198  0.8487  0.4635
12356SOL    HW137878   2.954   6.149   2.307 -1.2294 -0.9337  1.6120
12356SOL    HW237879   3.043   6.028   2.322 -2.0047 -1.7340 -0.0296
12357SOL     OW37880   0.218   0.307   5.703 -0.3610 -0.4015  0.1246
12357SOL    HW137881   0.181   0.219   5.706  0.2781 -0.6576  1.1082
12357SOL    HW237882   0.163   0.359   5.762 -0.8391 -0.0851 -0.5812
12358SOL     OW37883   3.709   7.600   6.792 -0.3849  0.8008 -0.4089
12358SOL    HW137884   3.707   7.696   6.787 -1.4550  0.7352 -2.3284
12358SOL    HW237885   3.794   7.576   6.756 -0.5624  1.0204 -0.9968
12359SOL     OW37886   3.435   0.723   1.063  0.0069  0.1183 -0.4549
12359SOL    HW137887   3.362   0.778   1.090 -0.3591 -0.2359 -0.7152
12359SOL    HW237888   3.413   0.636   1.095 -0.9143 -0.5344 -2.6912
12360SOL     OW37889   5.014   1.136   3.760 -0.0691 -0.6690  0.1728
12360SOL    HW137890   4.928   1.120   3.797 -0.2656 -1.1466 -0.4779
12360SOL    HW237891   5.050   1.049   3.742  0.5743 -0.4781  0.4879
12361SOL     OW37892   4.571   2.548   7.248  0.6829 -0.5405 -0.3802
12361SOL    HW137893   4.500   2.601   7.213 -0.1310 -1.2844  0.1082
12361SOL    HW237894   4.650   2.601   7.233 -0.0073  0.4645 -0.5754
12362SOL     OW37895   4.579   3.460   3.403 -0.0197 -0.6628 -0.2138
12362SOL    HW137896   4.523   3.455   3.481 -0.0897  0.6121 -0.1572
12362SOL    HW237897   4.524   3.425   3.332 -0.8884  0.4647 -0.1370
12363SOL     OW37898   5.917   1.740   6.019  0.3247  0.0775 -0.0637
12363SOL    HW137899   5.870   1.762   5.939 -0.2365  0.8935  0.4641
12363SOL    HW237900   5.959   1.656   6.001 -2.2346 -1.2575 -0.1905
12364SOL     OW37901   7.627   4.401   1.521 -0.0291  0.1412 -0.0281
12364SOL    HW137902   7.580   4.325   1.488 -1.1957 -1.0259  3.7792
12364SOL    HW237903   7.720   4.379   1.508 -0.1821 -3.2108  3.0188
12365SOL     OW37904   1.955   4.369   7.848  0.3162  0.0605  0.4941
12365SOL    HW137905   2.022   4.301   7.843  1.8794  1.5507  0.2678
12365SOL    HW237906   1.967   4.408   7.934 -0.6549 -0.0114  0.6737
12366SOL     OW37907   3.208   6.171   3.700  0.0909  0.2797 -0.1846
12366SOL    HW137908   3.289   6.204   3.660  1.0593 -1.7924 -0.0536
12366SOL    HW237909   3.172   6.247   3.745  0.4792  1.9777 -2.5201
12367SOL     OW37910   6.614   6.179   1.368  0.2946  0.1606 -0.0044
12367SOL    HW137911   6.528   6.219   1.381  0.6338  0.7074  0.6268
12367SOL    HW237912   6.609   6.095   1.413  0.7777  1.1295  1.9315
12368SOL     OW37913   7.968   0.927   2.272 -0.1771  0.4335 -0.4028
12368SOL    HW137914   7.898   0.900   2.332  0.6567 -0.1792  0.3346
12368SOL    HW237915   8.047   0.925   2.326  0.5917 -0.0411 -1.5048
12369SOL     OW37916   1.412   7.891   6.716  0.4728  0.3573  0.0927
12369SOL    HW137917   1.415   7.795   6.720  0.1596  0.3595  0.5302
12369SOL    HW237918   1.329   7.914   6.758  1.0252  0.8634  0.9550
12370SOL     OW37919   4.749   4.560   5.693  0.4104 -0.2048 -0.0901
12370SOL    HW137920   4.797   4.479   5.676 -0.6492 -0.8583 -0.0747
12370SOL    HW237921   4.798   4.627   5.645  0.7350 -1.0259 -0.9532
12371SOL     OW37922   0.034   2.603   2.098 -0.5610  0.1818 -0.2769
12371SOL    HW137923  -0.022   2.676   2.072 -1.4151 -0.2902  0.1912
12371SOL    HW237924  -0.020   2.525   2.087  0.0958 -0.3183 -0.0795
12372SOL     OW37925   4.870   6.903   5.860  0.2352 -0.0525 -0.2279
12372SOL    HW137926   4.860   6.948   5.944 -0.4929  0.4853 -0.5976
12372SOL    HW237927   4.965   6.904   5.845  0.3454  0.1646  0.4134
12373SOL     OW37928   4.191   4.149   0.406 -0.2571 -0.3146 -0.2126
12373SOL    HW137929   4.126   4.151   0.336 -0.8708 -0.2935  0.3465
12373SOL    HW237930   4.197   4.240   0.436  0.7456 -0.1467 -0.9029
12374SOL     OW37931   1.425   6.197   7.592  0.9303  0.0393  0.0339
12374SOL    HW137932   1.393   6.276   7.636 -0.2721 -0.4348  0.0543
12374SOL    HW237933   1.520   6.201   7.603  0.9732  1.8701 -0.6423
12375SOL     OW37934   5.287   5.436   1.064 -0.0486 -0.5417 -0.2164
12375SOL    HW137935   5.380   5.426   1.042  0.3541 -0.3052  1.2213
12375SOL    HW237936   5.284   5.515   1.119 -1.2472 -0.0272 -0.9954
12376SOL     OW37937   5.047   2.411   3.072  0.4232  0.4726 -0.5245
12376SOL    HW137938   5.025   2.320   3.053  0.9727  0.2940 -0.3260
12376SOL    HW237939   5.127   2.406   3.124  0.5185  1.0733 -0.6055
12377SOL     OW37940   2.306   4.355   0.038 -0.7676 -0.3901  0.1268
12377SOL    HW137941   2.335   4.397  -0.043 -0.0552  1.1341  1.1203
12377SOL    HW237942   2.248   4.284   0.009 -1.3099  0.7170 -1.6774
12378SOL     OW37943   2.131   6.647   6.979 -0.5419 -0.0893 -0.1094
12378SOL    HW137944   2.187   6.577   6.944 -0.9280 -0.5557  0.2023
12378SOL    HW237945   2.125   6.711   6.907  0.8497  0.2421  0.0478
12379SOL     OW37946   0.630   3.925   2.358  0.1962  0.2116  0.3620
12379SOL    HW137947   0.538   3.939   2.380  0.3475  2.3549 -0.1308
12379SOL    HW237948   0.676   3.994   2.405  1.3540  0.1757 -0.6653
12380SOL     OW37949   4.107   3.409   2.838  0.4460 -0.2513  0.1692
12380SOL    HW137950   4.149   3.345   2.782  0.5112 -0.4340  0.4227
12380SOL    HW237951   4.019   3.420   2.801  1.1833  1.2543 -1.2628
12381SOL     OW37952   2.455   6.184   1.253 -0.0537  0.0588  0.3591
12381SOL    HW137953   2.451   6.228   1.338 -0.5381  1.3257 -0.2878
12381SOL    HW237954   2.381   6.124   1.253  0.2870 -0.3743  1.0414
12382SOL     OW37955   5.294   7.755   5.930  0.1265  0.2310  0.3174
12382SOL    HW137956   5.206   7.790   5.935 -0.1287 -0.4602  0.8143
12382SOL    HW237957   5.285   7.662   5.951  1.3479  0.7012  3.4902
12383SOL     OW37958   0.324   5.961   1.504  0.0775 -0.3135 -0.8052
12383SOL    HW137959   0.336   6.017   1.580 -1.0061 -0.2949 -0.6349
12383SOL    HW237960   0.340   5.872   1.537  0.4687 -0.2325 -0.7677
12384SOL     OW37961   4.954   7.058   4.921 -0.4586  0.1695 -0.2389
12384SOL    HW137962   5.001   7.017   4.993  1.2515  3.5159  0.7337
12384SOL    HW237963   4.970   7.001   4.846  0.4389 -1.7001  1.2992
12385SOL     OW37964   1.740   3.188   7.276 -0.2861 -0.6926 -0.3914
12385SOL    HW137965   1.729   3.099   7.310  0.6499 -0.9169 -0.6714
12385SOL    HW237966   1.834   3.202   7.272 -0.4152  0.1742 -0.7244
12386SOL     OW37967   0.669   5.548   6.955 -0.6023  0.0642 -0.4880
12386SOL    HW137968   0.732   5.620   6.947  0.3576 -0.7384 -0.4244
12386SOL    HW237969   0.687   5.491   6.880  0.7332 -1.6383  1.0047
12387SOL     OW37970   3.679   4.291   4.625 -0.5334  0.1590 -0.7173
12387SOL    HW137971   3.736   4.348   4.573 -0.6725 -0.0880 -1.1385
12387SOL    HW237972   3.707   4.202   4.604  0.8056  0.0716  1.1861
12388SOL     OW37973   6.366   6.973   0.119 -0.3164  0.1890  0.0544
12388SOL    HW137974   6.413   6.918   0.056 -0.2077 -1.7393  1.7272
12388SOL    HW237975   6.290   7.005   0.071  0.1510 -0.6041 -1.2721
12389SOL     OW37976   3.699   6.940   7.833  0.3465  0.4558  0.2418
12389SOL    HW137977   3.697   6.905   7.922 -3.6858 -0.7857 -0.1270
12389SOL    HW237978   3.752   6.879   7.783 -0.2566 -0.8669  1.1670
12390SOL     OW37979   4.882   4.316   5.679 -0.4611  0.1078  0.1541
12390SOL    HW137980   4.887   4.318   5.774  0.2023 -2.7131  0.2909
12390SOL    HW237981   4.973   4.303   5.651 -0.9576 -2.4962 -0.5639
12391SOL     OW37982   0.624   3.266   6.575  0.4275  0.4342  0.0344
12391SOL    HW137983   0.622   3.353   6.615  2.0941  0.0934  0.9408
12391SOL    HW237984   0.537   3.255   6.537 -0.4641  1.7169  1.5803
12392SOL     OW37985   5.660   3.522   3.614  0.0260 -0.5708  0.0842
12392SOL    HW137986   5.581   3.546   3.566  0.0224 -1.4905 -0.3971
12392SOL    HW237987   5.644   3.552   3.704 -1.2810 -1.5980  0.2227
12393SOL     OW37988   2.147   4.242   1.173 -0.2707  0.0596 -0.2409
12393SOL    HW137989   2.205   4.305   1.129 -0.3315  0.4221  0.1875
12393SOL    HW237990   2.157   4.161   1.123 -1.4179  0.8320 -1.7927
12394SOL     OW37991   2.767   7.009   5.734  0.1023  0.3759  0.4866
12394SOL    HW137992   2.796   6.919   5.746 -0.2169  0.4157  1.7167
12394SOL    HW237993   2.691   7.002   5.676  0.6045 -0.0455 -0.1323
12395SOL     OW37994   5.083   0.826   7.044  0.2843 -0.3290 -0.1417
12395SOL    HW137995   5.084   0.919   7.065  0.0945 -0.4231  0.3006
12395SOL    HW237996   5.030   0.820   6.964 -0.6644 -0.1819  0.4620
12396SOL     OW37997   2.327   5.574   0.689 -0.4256  0.2595  0.3534
12396SOL    HW137998   2.280   5.556   0.608  0.0669 -0.2416  0.1748
12396SOL    HW237999   2.272   5.539   0.758 -0.4445 -0.0765  0.1676
12397SOL     OW38000   5.349   5.263   3.663 -0.2907 -0.1963 -0.1175
12397SOL    HW138001   5.262   5.302   3.665 -1.1490 -2.0188 -0.4398
12397SOL    HW238002   5.336   5.175   3.629  1.4749 -1.0499  1.2344
12398SOL     OW38003   2.145   0.530   4.912  0.0238 -0.1098 -0.4095
12398SOL    HW138004   2.095   0.475   4.852 -2.4608 -0.2401  1.6318
12398SOL    HW238005   2.235   0.497   4.905 -0.4605 -1.1465 -2.7872
12399SOL     OW38006   7.467   0.779   0.995  0.1721 -0.0171 -0.0105
12399SOL    HW138007   7.513   0.697   0.976  0.1190  0.2000 -1.1964
12399SOL    HW238008   7.512   0.844   0.940 -1.0738  0.3407 -0.6325
12400SOL     OW38009   5.546   3.457   0.869  0.7133  0.3984  0.1105
12400SOL    HW138010   5.522   3.370   0.902  0.4750  0.6598  0.6192
12400SOL    HW238011   5.530   3.451   0.774 -1.8453  0.7074  0.4604
12401SOL     OW38012   0.044   0.052   7.231  0.7539  0.4378  0.0632
12401SOL    HW138013   0.046   0.086   7.141 -0.4072 -2.9021 -1.3881
12401SOL    HW238014  -0.041   0.078   7.264  1.4902  2.3703  0.5972
12402SOL     OW38015   6.959   4.098   2.074  0.0972  0.2542  0.3470
12402SOL    HW138016   6.946   4.115   2.167  1.5920 -0.4305  0.7076
12402SOL    HW238017   6.876   4.059   2.045 -0.0983 -0.2757  1.5727
12403SOL     OW38018   6.759   6.017   7.443  0.0474  0.1902 -0.4564
12403SOL    HW138019   6.758   6.107   7.474  0.8071 -0.5079  1.7661
12403SOL    HW238020   6.690   6.014   7.376 -0.9706  2.0759  0.4334
12404SOL     OW38021   4.336   4.347   5.548  0.3674 -0.3490  0.2674
12404SOL    HW138022   4.284   4.422   5.521 -1.7753 -1.1609  1.8643
12404SOL    HW238023   4.331   4.287   5.473 -0.4916 -0.1516  0.1551
12405SOL     OW38024   6.658   2.264   4.028 -0.2105 -0.2730 -0.6067
12405SOL    HW138025   6.586   2.287   4.087  2.4236 -0.1402  2.9112
12405SOL    HW238026   6.674   2.343   3.977  0.3433  1.4143  1.9676
12406SOL     OW38027   4.258   1.551   6.651 -0.1551 -0.5166  0.1824
12406SOL    HW138028   4.255   1.646   6.659  0.5294 -0.4871  0.1574
12406SOL    HW238029   4.288   1.534   6.562 -0.7164 -0.7602  0.0401
12407SOL     OW38030   0.459   3.902   7.663 -0.0847 -0.4416 -0.0595
12407SOL    HW138031   0.537   3.908   7.608 -0.0923 -1.1707 -0.1547
12407SOL    HW238032   0.445   3.808   7.675  0.0826 -0.3002  1.4201
12408SOL     OW38033   0.317   3.826   0.456  0.1050  0.0814 -0.0199
12408SOL    HW138034   0.280   3.849   0.541 -0.1878 -0.5320  0.0267
12408SOL    HW238035   0.412   3.837   0.468  0.0129  0.7718  0.1358
12409SOL     OW38036   5.350   0.280   2.543  0.4918 -0.2568 -0.8522
12409SOL    HW138037   5.269   0.317   2.579  0.5358 -1.6502  0.8682
12409SOL    HW238038   5.359   0.195   2.588  3.0448 -0.0298 -0.7720
12410SOL     OW38039   0.273   0.950   4.691 -0.0041  0.7508  0.0736
12410SOL    HW138040   0.245   0.925   4.603 -0.0258  1.4647 -0.1216
12410SOL    HW238041   0.306   0.868   4.729 -0.0921  0.4158 -0.5556
12411SOL     OW38042   2.871   0.298   6.058 -0.1303  0.3080 -0.0276
12411SOL    HW138043   2.822   0.250   5.992  1.6034  0.9196 -1.8515
12411SOL    HW238044   2.874   0.388   6.026  1.4001  0.4658  0.4593
12412SOL     OW38045   4.736   5.963   0.700 -0.5406 -0.2139 -0.0190
12412SOL    HW138046   4.792   5.982   0.625  0.7512 -0.9644  0.7064
12412SOL    HW238047   4.700   5.876   0.683  1.0723 -1.1250  0.9231
12413SOL     OW38048   5.682   2.066   0.474  0.0561  0.1844 -0.5464
12413SOL    HW138049   5.752   2.053   0.411 -0.4864 -1.5311 -0.8694
12413SOL    HW238050   5.726   2.071   0.559  0.5652 -1.2534 -0.7033
12414SOL     OW38051   5.678   7.092   6.953  0.0423 -0.4087  0.2109
12414SOL    HW138052   5.687   7.130   7.041 -2.4569  1.1118 -0.0687
12414SOL    HW238053   5.693   7.165   6.894  0.0342 -1.0230 -0.5674
12415SOL     OW38054   7.486   6.136   0.543  1.0535 -0.4429  0.0562
12415SOL    HW138055   7.395   6.118   0.567  1.5603 -1.1695  1.5661
12415SOL    HW238056   7.516   6.056   0.499  0.8433 -0.0362 -0.8410
12416SOL     OW38057   0.904   1.183   2.347 -0.0524 -0.1609 -0.4472
12416SOL    HW138058   0.911   1.209   2.439  0.4939 -2.9094  0.3895
12416SOL    HW238059   0.973   1.232   2.303 -0.6945  1.6528  0.4461
12417SOL     OW38060   7.315   4.398   2.856  0.1859  0.1944  0.1655
12417SOL    HW138061   7.317   4.328   2.921 -1.0775  0.0680  0.0965
12417SOL    HW238062   7.348   4.358   2.776  0.6816  0.0407  0.4397
12418SOL     OW38063   6.977   6.806   3.146  0.2503  0.1929 -0.3484
12418SOL    HW138064   7.044   6.825   3.081 -0.6537  0.6069 -1.1705
12418SOL    HW238065   6.895   6.806   3.098 -0.3125 -0.7560  0.5639
12419SOL     OW38066   6.075   4.084   2.492  0.2795  0.5461 -0.0544
12419SOL    HW138067   6.093   4.095   2.585 -1.6731 -0.5332  0.5071
12419SOL    HW238068   6.088   4.171   2.455  3.4023  0.5454  0.7184
12420SOL     OW38069   6.590   2.506   4.328 -0.1906 -0.4683 -0.0027
12420SOL    HW138070   6.641   2.449   4.387 -0.8677 -2.4310 -1.2312
12420SOL    HW238071   6.532   2.447   4.281 -1.3296  1.3364 -0.9862
12421SOL     OW38072   3.658   2.573   6.897 -0.1974 -0.5834  0.0512
12421SOL    HW138073   3.750   2.592   6.876 -0.2482 -0.0416  0.3225
12421SOL    HW238074   3.608   2.640   6.852 -0.3613  0.0651  1.1629
12422SOL     OW38075   4.195   0.927   4.716 -0.4507 -0.3094 -0.2397
12422SOL    HW138076   4.193   0.926   4.812  0.1056 -0.0218 -0.2206
12422SOL    HW238077   4.176   0.837   4.690 -0.5806 -0.3918  0.1410
12423SOL     OW38078   4.451   5.657   6.753 -0.0646  0.2681  0.4707
12423SOL    HW138079   4.538   5.620   6.736  0.1812  0.6882  0.8078
12423SOL    HW238080   4.434   5.714   6.677 -1.6892 -2.6696 -1.5926
12424SOL     OW38081   6.734   7.543   7.082  0.3667 -0.2142 -0.1420
12424SOL    HW138082   6.773   7.535   7.169 -0.9941  2.1506  0.7798
12424SOL    HW238083   6.793   7.600   7.034  0.4069 -0.3845 -0.2936
12425SOL     OW38084   7.370   2.228   7.417 -0.1244  0.2153 -0.3631
12425SOL    HW138085   7.358   2.202   7.509 -0.7128 -0.6638 -0.6791
12425SOL    HW238086   7.459   2.264   7.414 -0.2530  0.6468  0.6359
12426SOL     OW38087   4.519   3.599   1.333 -0.4961  0.0902  0.0055
12426SOL    HW138088   4.530   3.682   1.287  1.0121  0.4300  0.9144
12426SOL    HW238089   4.466   3.621   1.410 -1.5280 -0.1376 -0.6243
12427SOL     OW38090   1.943   1.777   2.697 -0.0427 -0.1363 -0.3994
12427SOL    HW138091   1.977   1.696   2.735 -1.4078 -0.9573 -0.8300
12427SOL    HW238092   1.959   1.767   2.603  1.6062  1.0313 -0.2827
12428SOL     OW38093   7.212   6.586   2.518 -0.1410 -0.2225  0.3111
12428SOL    HW138094   7.273   6.638   2.571 -1.4007  0.8785  0.7456
12428SOL    HW238095   7.234   6.496   2.539  0.8004  0.1581  1.0802
12429SOL     OW38096   0.920   5.193   3.188  0.0151 -0.6540  0.2000
12429SOL    HW138097   0.928   5.264   3.124 -0.3334 -1.1433 -0.3930
12429SOL    HW238098   0.971   5.121   3.151 -1.9478 -1.6978 -0.6311
12430SOL     OW38099   0.362   5.750   4.110 -0.1244  0.0585 -0.0194
12430SOL    HW138100   0.274   5.778   4.134  0.0086  0.1745  0.3538
12430SOL    HW238101   0.400   5.824   4.063 -0.1197  0.1292  0.0949
12431SOL     OW38102   4.101   7.037   2.094 -0.0701 -0.1605  0.2684
12431SOL    HW138103   4.080   7.121   2.135  1.8006  0.3763  0.2404
12431SOL    HW238104   4.194   7.024   2.115 -0.0093 -1.6114 -0.8009
12432SOL     OW38105   0.189   5.492   7.087  0.3218 -0.1782 -0.0638
12432SOL    HW138106   0.114   5.474   7.144  0.6217  0.9785  0.7465
12432SOL    HW238107   0.173   5.440   7.008 -2.0271  1.0720 -0.4978
12433SOL     OW38108   5.278   7.298   0.899 -0.2650  0.0014  0.2314
12433SOL    HW138109   5.301   7.391   0.910  0.6231 -0.1601 -0.2128
12433SOL    HW238110   5.332   7.268   0.826 -0.9690 -0.7267 -0.0063
12434SOL     OW38111   7.362   6.959   6.974  0.1685 -0.0932  0.0468
12434SOL    HW138112   7.327   6.874   7.001 -0.4375  0.1868  0.1686
12434SOL    HW238113   7.340   6.966   6.881  0.4846 -0.1978 -0.0367
12435SOL     OW38114   4.999   5.462   4.863 -0.1450  0.0183 -0.5143
12435SOL    HW138115   5.066   5.393   4.866  0.0428  0.2148 -0.1558
12435SOL    HW238116   4.941   5.442   4.936 -0.4976 -0.1668 -0.8409
12436SOL     OW38117   1.864   4.851   7.644 -0.5013 -0.1283 -0.9281
12436SOL    HW138118   1.869   4.940   7.678  2.0257 -0.2540 -0.7942
12436SOL    HW238119   1.847   4.797   7.721 -0.7010  0.1189 -0.7971
12437SOL     OW38120   8.003   1.438   5.255 -0.0701  0.0072  0.5727
12437SOL    HW138121   7.992   1.343   5.258 -2.0958  0.2049  1.1852
12437SOL    HW238122   8.067   1.453   5.186 -0.5356 -1.7450 -0.2937
12438SOL     OW38123   7.552   4.493   7.166 -0.4791 -0.0414 -0.5209
12438SOL    HW138124   7.520   4.413   7.123 -0.1555  0.7417 -2.3069
12438SOL    HW238125   7.500   4.563   7.127 -0.0573  0.7289  0.2789
12439SOL     OW38126   2.151   7.083   1.683 -0.0381 -0.1551 -0.5544
12439SOL    HW138127   2.202   7.154   1.720  0.2750  0.0716 -1.3897
12439SOL    HW238128   2.159   7.011   1.746  2.1011 -0.4495 -1.1018
12440SOL     OW38129   3.487   3.224   5.980  0.3030  0.2600  0.2420
12440SOL    HW138130   3.462   3.133   5.962  2.2432 -0.5677  1.4924
12440SOL    HW238131   3.569   3.237   5.931 -0.1017  1.4600 -0.1663
12441SOL     OW38132   7.462   2.924   4.808 -1.0112  0.6663 -0.2667
12441SOL    HW138133   7.537   2.983   4.803 -0.9451  0.5584 -0.5769
12441SOL    HW238134   7.496   2.844   4.849 -0.0654 -0.7227 -3.4280
12442SOL     OW38135   2.661   5.477   7.269 -0.4460 -0.2257  0.3791
12442SOL    HW138136   2.724   5.419   7.226  0.4850  0.5900  0.5947
12442SOL    HW238137   2.588   5.483   7.207  0.4987  0.2498 -0.7457
12443SOL     OW38138   7.728   4.250   3.564 -0.1301  0.4126 -0.1670
12443SOL    HW138139   7.768   4.330   3.598  0.0991  0.7910 -1.2851
12443SOL    HW238140   7.664   4.225   3.631 -0.6152  1.8453 -0.0625
12444SOL     OW38141   6.961   7.836   4.038  0.5321  0.1016 -0.1442
12444SOL    HW138142   6.985   7.745   4.024 -1.2821 -0.3603 -0.5560
12444SOL    HW238143   6.890   7.852   3.975  0.9832  1.8824 -0.2608
12445SOL     OW38144   5.669   7.577   7.654 -0.4128 -0.3079  0.0362
12445SOL    HW138145   5.613   7.500   7.655  0.9364 -1.3316  0.7395
12445SOL    HW238146   5.650   7.620   7.571 -0.2815 -2.1100 -0.9799
12446SOL     OW38147   7.098   2.236   7.634  0.2314 -0.3518 -0.2226
12446SOL    HW138148   7.062   2.247   7.722 -0.2489  1.1251 -0.5837
12446SOL    HW238149   7.172   2.297   7.631 -0.0486 -0.0496 -1.0106
12447SOL     OW38150   4.595   3.282   4.686  0.2682 -0.0556 -0.6284
12447SOL    HW138151   4.527   3.216   4.700  0.8854 -0.6746 -0.4902
12447SOL    HW238152   4.653   3.273   4.762  0.6110  0.3339 -0.8393
12448SOL     OW38153   7.784   3.013   7.687  0.5490  0.3522  0.3526
12448SOL    HW138154   7.836   3.031   7.608  0.8603  0.9110  0.6808
12448SOL    HW238155   7.792   2.919   7.700  0.0587  0.1668 -0.5903
12449SOL     OW38156   3.150   4.122   1.974 -0.3472 -0.1957  0.5779
12449SOL    HW138157   3.201   4.200   1.995 -0.0434  0.1817 -1.3286
12449SOL    HW238158   3.059   4.152   1.971 -0.0270  0.8322 -2.7941
12450SOL     OW38159   5.793   4.194   3.069  0.1455  0.1465 -0.1141
12450SOL    HW138160   5.780   4.100   3.063 -1.5935  0.3737 -0.2818
12450SOL    HW238161   5.888   4.205   3.079  0.6277 -1.4984 -2.3369
12451SOL     OW38162   7.382   2.241   4.260  0.3674 -0.1120 -0.6762
12451SOL    HW138163   7.473   2.211   4.268 -0.3642 -2.8498 -1.3668
12451SOL    HW238164   7.330   2.169   4.297 -1.5325  1.1747 -0.7216
12452SOL     OW38165   4.667   3.704   6.227 -0.1181 -0.3204  0.0966
12452SOL    HW138166   4.644   3.619   6.264  0.0507  0.2863  1.6861
12452SOL    HW238167   4.595   3.762   6.254 -1.0246 -0.2275 -2.2541
12453SOL     OW38168   5.507   2.406   6.571  0.1984  0.5918  0.1770
12453SOL    HW138169   5.528   2.315   6.552 -0.3105  0.3148  0.9042
12453SOL    HW238170   5.584   2.455   6.540  1.5844 -0.3036  2.0099
12454SOL     OW38171   0.020   2.583   7.164 -0.3196  0.2090 -0.2103
12454SOL    HW138172   0.077   2.555   7.093 -0.3511  0.5425 -0.3712
12454SOL    HW238173  -0.068   2.583   7.126 -0.4081 -0.1169 -0.0183
12455SOL     OW38174   0.340   6.703   3.111  0.4562 -0.3542  0.4606
12455SOL    HW138175   0.416   6.690   3.054  0.1369  1.6735 -0.5233
12455SOL    HW238176   0.265   6.688   3.054  0.1105 -0.4973  0.9490
12456SOL     OW38177   1.468   5.382   0.607  0.1229 -0.2897  0.0258
12456SOL    HW138178   1.405   5.432   0.555  0.3701 -0.6343 -0.6232
12456SOL    HW238179   1.414   5.337   0.673 -0.2941 -0.4215 -0.3930
12457SOL     OW38180   3.525   6.623   1.195 -0.0171 -0.1170  0.3410
12457SOL    HW138181   3.580   6.660   1.127  0.4759 -0.4785  0.5386
12457SOL    HW238182   3.481   6.548   1.153 -0.8436  0.5375  0.0061
12458SOL     OW38183   5.223   2.754   4.992 -0.4159 -0.2274 -0.5746
12458SOL    HW138184   5.161   2.685   4.968  1.3108 -1.1022 -3.0020
12458SOL    HW238185   5.240   2.800   4.910  1.4954  0.4910  0.1657
12459SOL     OW38186   1.353   3.045   0.779 -0.3700  0.1325  0.3065
12459SOL    HW138187   1.285   2.981   0.800  0.1447 -0.6688 -0.4153
12459SOL    HW238188   1.411   3.000   0.718  0.2872  1.1239  0.1696
12460SOL     OW38189   3.081   3.236   6.326 -0.4471  0.2617  0.1472
12460SOL    HW138190   3.140   3.241   6.251 -0.9744  0.1629 -0.2796
12460SOL    HW238191   3.013   3.300   6.307 -0.4665  0.3931  0.6486
12461SOL     OW38192   4.287   6.710   6.319 -0.4452 -0.0747 -0.4482
12461SOL    HW138193   4.239   6.665   6.388  1.2067 -1.1124  0.0917
12461SOL    HW238194   4.356   6.648   6.293 -1.0958  0.1899 -3.1729
12462SOL     OW38195   0.445   1.715   6.844  0.0838  0.1594 -0.4283
12462SOL    HW138196   0.450   1.620   6.839 -0.1794 -0.0259  1.6324
12462SOL    HW238197   0.522   1.740   6.896 -0.2406  0.9887 -0.3274
12463SOL     OW38198   6.211   4.651   1.152  0.0346 -0.5812 -0.2608
12463SOL    HW138199   6.189   4.739   1.182 -0.9284 -1.1343  0.6964
12463SOL    HW238200   6.307   4.648   1.156  0.0233  0.0647  0.7310
12464SOL     OW38201   0.853   2.963   0.174  0.2143  1.0308  0.2652
12464SOL    HW138202   0.937   2.919   0.185  0.8262  1.9550 -0.5614
12464SOL    HW238203   0.834   3.000   0.261 -0.4278 -1.0133  1.0343
12465SOL     OW38204   1.638   2.580   0.524 -0.0204  0.4311  0.2961
12465SOL    HW138205   1.670   2.600   0.612 -2.7944 -0.8926  1.7376
12465SOL    HW238206   1.667   2.490   0.507  2.6994  1.4979 -1.3476
12466SOL     OW38207   2.515   6.856   4.437  0.8227 -0.1178  0.0611
12466SOL    HW138208   2.507   6.816   4.350  0.6938  3.1297 -1.5814
12466SOL    HW238209   2.606   6.884   4.442  0.5224  0.8205  0.4480
12467SOL     OW38210   1.737   7.833   4.724  0.1184 -0.4603  0.4536
12467SOL    HW138211   1.647   7.857   4.703 -0.5284  0.7757  3.9886
12467SOL    HW238212   1.783   7.916   4.737  1.4945 -1.0788 -0.2106
12468SOL     OW38213   2.616   6.226   4.495  0.4190  0.0043 -0.3255
12468SOL    HW138214   2.647   6.304   4.540 -0.8585 -0.1986  0.9791
12468SOL    HW238215   2.541   6.256   4.443 -0.4538 -0.4297  0.6474
12469SOL     OW38216   7.312   7.963   6.972  0.2657  0.1817  0.2987
12469SOL    HW138217   7.340   8.032   6.912  0.4131  0.3642  0.5785
12469SOL    HW238218   7.368   7.888   6.949  1.4347  0.7272  1.2587
12470SOL     OW38219   4.013   1.515   5.619 -0.4926  0.5761 -0.6734
12470SOL    HW138220   4.029   1.423   5.637 -0.7362  0.5663 -0.4978
12470SOL    HW238221   4.033   1.559   5.702 -0.5292  0.6621 -0.7104
12471SOL     OW38222   7.657   0.822   7.311 -0.3501  0.1812 -0.3196
12471SOL    HW138223   7.581   0.853   7.360 -0.1006 -4.1973  3.5814
12471SOL    HW238224   7.621   0.771   7.240 -1.1050 -0.7631  0.7125
12472SOL     OW38225   6.331   4.510   1.782  0.1068  0.4915 -0.1336
12472SOL    HW138226   6.298   4.592   1.746 -2.3708  0.4189  1.6685
12472SOL    HW238227   6.405   4.536   1.837 -0.1388  1.4150 -0.2267
12473SOL     OW38228   6.768   6.667   1.395  0.6805 -0.0516  0.1134
12473SOL    HW138229   6.727   6.716   1.466  1.3117  0.2324  0.2887
12473SOL    HW238230   6.765   6.726   1.320  0.9233  0.0337  0.1716
12474SOL     OW38231   4.979   4.065   1.448  0.2465  0.1596  0.0996
12474SOL    HW138232   5.036   4.137   1.471 -1.7582  2.0341 -0.4959
12474SOL    HW238233   4.989   4.055   1.353 -0.2358  0.3434  0.0265
12475SOL     OW38234   1.013   7.578   3.197 -0.3171 -0.0861  0.6451
12475SOL    HW138235   0.991   7.517   3.126  0.6568  0.2055  0.0800
12475SOL    HW238236   0.929   7.597   3.239 -0.5985 -2.2327  1.1888
12476SOL     OW38237   1.356   2.151   3.732  0.2474  0.2329 -0.3265
12476SOL    HW138238   1.315   2.185   3.812 -1.0147 -2.2148  0.1696
12476SOL    HW238239   1.449   2.146   3.753  0.0203  0.2808  0.7521
12477SOL     OW38240   3.915   2.970   6.634  0.3005 -0.3362  0.1877
12477SOL    HW138241   3.822   2.962   6.615  0.4632 -0.3647 -0.6651
12477SOL    HW238242   3.958   2.945   6.552  1.0095  2.5080 -0.4286
12478SOL     OW38243   2.389   1.032   5.373 -0.3333 -0.6418  0.2234
12478SOL    HW138244   2.317   1.069   5.322  0.7602  0.0011 -0.9035
12478SOL    HW238245   2.456   1.011   5.309  0.9946 -0.0310  1.3524
12479SOL     OW38246   0.998   4.922   3.308  0.1591  0.1774 -0.5069
12479SOL    HW138247   1.045   4.853   3.356  0.7508  1.3286  0.6234
12479SOL    HW238248   0.906   4.899   3.316  0.2843  0.0744  0.7688
12480SOL     OW38249   1.134   7.597   5.417 -0.1107  0.0850  0.0031
12480SOL    HW138250   1.067   7.545   5.461  0.3547 -0.9479 -0.4713
12480SOL    HW238251   1.137   7.679   5.466 -1.6991  0.1488  0.0505
12481SOL     OW38252   7.106   6.575   3.341 -0.8248  0.2870 -0.5022
12481SOL    HW138253   7.134   6.664   3.320 -0.1968  0.3156  0.3556
12481SOL    HW238254   7.019   6.567   3.304 -0.6712  1.0779 -1.0554
12482SOL     OW38255   7.909   3.137   1.260  0.5511 -0.1392  0.3681
12482SOL    HW138256   7.877   3.227   1.267  0.4315 -0.1562  0.0507
12482SOL    HW238257   7.888   3.111   1.170 -0.3691 -0.8461  0.7736
12483SOL     OW38258   4.396   6.019   4.984  0.2903  0.0599 -0.4927
12483SOL    HW138259   4.398   5.924   4.996 -2.4410 -0.1424 -0.8814
12483SOL    HW238260   4.402   6.055   5.072 -0.0536 -0.5514 -0.2138
12484SOL     OW38261   7.417   7.672   0.462 -0.2621 -0.3561  0.3040
12484SOL    HW138262   7.373   7.729   0.525 -0.2594 -1.0895  0.9862
12484SOL    HW238263   7.369   7.684   0.380 -0.4764  0.3527  0.5332
12485SOL     OW38264   3.665   3.632   7.888 -0.5327  0.3235 -0.2799
12485SOL    HW138265   3.614   3.555   7.863 -0.3960  0.4714 -1.0325
12485SOL    HW238266   3.735   3.637   7.822  1.2942 -0.6477  1.4862
12486SOL     OW38267   4.752   6.326   2.914 -0.3483  0.0797  0.7130
12486SOL    HW138268   4.738   6.297   3.004  1.3770  0.2105  1.0516
12486SOL    HW238269   4.665   6.351   2.883 -1.1417 -0.9777  1.9773
12487SOL     OW38270   3.291   7.388   6.798 -0.2441 -0.0797  0.3655
12487SOL    HW138271   3.322   7.297   6.802 -1.5618 -0.6212 -0.8030
12487SOL    HW238272   3.360   7.435   6.752  0.0593 -0.6733  0.1931
12488SOL     OW38273   1.676   5.398   0.866  0.2980  0.6513  0.2252
12488SOL    HW138274   1.639   5.375   0.952  0.9565  1.8567  0.8625
12488SOL    HW238275   1.646   5.488   0.851  0.7247  0.6739 -0.5158
12489SOL     OW38276   6.616   0.290   3.634 -0.5468  0.5999  0.5539
12489SOL    HW138277   6.620   0.220   3.699 -0.3762 -0.6743 -0.7884
12489SOL    HW238278   6.692   0.345   3.653 -1.1355  0.9185  2.1266
12490SOL     OW38279   0.218   3.115   3.635 -0.5771  0.1155  0.4477
12490SOL    HW138280   0.151   3.157   3.690 -2.1552 -1.5400 -0.1007
12490SOL    HW238281   0.170   3.088   3.557  1.1321  0.3405 -0.7110
12491SOL     OW38282   7.329   0.291   5.448 -0.9393  0.3373  0.4058
12491SOL    HW138283   7.403   0.318   5.393 -0.9866 -2.2820 -1.0593
12491SOL    HW238284   7.282   0.227   5.396 -1.4031 -1.7609  3.1937
12492SOL     OW38285   4.078   4.183   3.090 -0.4331 -0.4182 -0.5890
12492SOL    HW138286   4.086   4.227   3.006  0.0977  0.1746 -0.2359
12492SOL    HW238287   4.157   4.129   3.096  0.0267  0.2915 -0.0524
12493SOL     OW38288   0.205   6.539   1.237 -0.1558 -0.3338  0.5124
12493SOL    HW138289   0.111   6.538   1.224 -0.2788 -2.3260  1.1202
12493SOL    HW238290   0.217   6.575   1.325 -0.4640 -1.0309  0.8558
12494SOL     OW38291   1.653   4.712   2.633  0.6532 -0.7314  0.3191
12494SOL    HW138292   1.679   4.736   2.722 -0.0865  0.4217  0.2379
12494SOL    HW238293   1.666   4.791   2.582  0.4303 -1.1923 -0.4582
12495SOL     OW38294   2.659   3.323   4.160  0.0925  0.1809  0.3340
12495SOL    HW138295   2.659   3.244   4.216  0.2762 -0.0995 -0.0606
12495SOL    HW238296   2.712   3.386   4.209  0.2126 -0.0466  0.5035
12496SOL     OW38297   1.117   1.828   1.570  0.3572 -0.2013  0.8560
12496SOL    HW138298   1.108   1.755   1.632  1.6401 -0.0458  1.2464
12496SOL    HW238299   1.131   1.905   1.626 -0.7175  0.3309  0.4384
12497SOL     OW38300   5.691   1.348   7.369  0.0717 -0.3366 -0.2264
12497SOL    HW138301   5.708   1.282   7.436  1.4092 -0.6821 -0.8679
12497SOL    HW238302   5.679   1.298   7.289  2.3188  0.1697 -0.9633
12498SOL     OW38303   2.147   7.452   7.908 -0.7412 -0.0853 -0.2417
12498SOL    HW138304   2.119   7.368   7.873  0.4494 -0.0706 -1.2841
12498SOL    HW238305   2.167   7.505   7.831  1.3469  0.1501  0.4094
12499SOL     OW38306   2.221   1.909   0.946  0.6309  0.1415 -0.1447
12499SOL    HW138307   2.188   1.953   1.024 -0.9630 -1.7122  0.2921
12499SOL    HW238308   2.228   1.979   0.880  0.3115  1.4072  1.1231
12500SOL     OW38309   3.247   7.463   1.601  0.5639 -0.4495 -0.5738
12500SOL    HW138310   3.183   7.420   1.544 -0.2248  0.3032 -0.2791
12500SOL    HW238311   3.205   7.464   1.687  1.0091 -0.0096 -0.3624
12501SOL     OW38312   2.204   3.957   1.595  0.2843 -0.1845  0.2340
12501SOL    HW138313   2.242   3.870   1.586  0.5380 -0.0941  0.4077
12501SOL    HW238314   2.122   3.953   1.546  1.2232  0.0665 -1.4506
12502SOL     OW38315   6.978   6.504   1.703  0.2647 -0.2733 -0.3732
12502SOL    HW138316   7.047   6.546   1.755  1.0088 -1.6620 -0.1986
12502SOL    HW238317   6.982   6.412   1.727  0.0677 -0.8190 -2.2760
12503SOL     OW38318   1.675   3.828   5.804 -0.5216 -0.0134  0.0310
12503SOL    HW138319   1.759   3.869   5.822 -1.1140  1.7246 -0.9245
12503SOL    HW238320   1.640   3.875   5.729 -1.2760 -2.3360 -1.1784
12504SOL     OW38321   6.601   4.992   6.117  0.1212  0.0660  0.0491
12504SOL    HW138322   6.555   5.036   6.189  0.2544 -0.7615  0.6542
12504SOL    HW238323   6.596   4.899   6.139  1.7660 -0.0674 -0.0583
12505SOL     OW38324   1.439   3.906   6.747 -0.9361  0.0920  0.3935
12505SOL    HW138325   1.433   3.999   6.769 -0.5421 -0.0425  1.1282
12505SOL    HW238326   1.445   3.903   6.652  0.4893  0.9136  0.4313
12506SOL     OW38327   2.533   5.693   3.864  0.6837  0.2382  0.8509
12506SOL    HW138328   2.481   5.733   3.795  0.1820 -2.7416 -0.6701
12506SOL    HW238329   2.622   5.724   3.848  0.5333 -0.1882 -1.0542
12507SOL     OW38330   3.135   2.312   1.056 -0.3445  0.1914  0.2768
12507SOL    HW138331   3.065   2.323   0.991 -0.0736 -0.1442 -0.0806
12507SOL    HW238332   3.113   2.374   1.126 -1.1158 -0.0556  0.2687
12508SOL     OW38333   4.343   0.203   5.599 -0.4721  0.3774  0.6134
12508SOL    HW138334   4.272   0.265   5.582  0.6311  1.5423  0.0823
12508SOL    HW238335   4.395   0.202   5.519  0.5522  0.1627  1.2550
12509SOL     OW38336   2.231   7.570   4.569 -0.3819  0.0435  0.3441
12509SOL    HW138337   2.149   7.519   4.564  0.3824 -1.3719  1.5005
12509SOL    HW238338   2.281   7.527   4.639  0.7803  1.7382  0.5938
12510SOL     OW38339   4.762   1.931   3.318 -0.2762  0.7469 -1.0520
12510SOL    HW138340   4.776   1.971   3.233  0.4804  1.3597 -0.6443
12510SOL    HW238341   4.796   1.994   3.381  0.5132 -0.3265 -0.3712
12511SOL     OW38342   7.245   2.830   3.962 -0.0128  0.1257  0.0570
12511SOL    HW138343   7.238   2.916   3.921  1.8002 -0.7280 -2.3282
12511SOL    HW238344   7.317   2.839   4.024  0.2135  0.3266 -0.2322
12512SOL     OW38345   5.496   6.845   4.914 -0.2386 -0.2870  0.2093
12512SOL    HW138346   5.572   6.862   4.858  1.1579 -1.1204  1.7519
12512SOL    HW238347   5.507   6.904   4.988  0.0768 -1.8720  1.4655
12513SOL     OW38348   0.406   7.210   3.302 -0.2439 -0.5866 -0.5482
12513SOL    HW138349   0.461   7.252   3.235 -0.1215 -1.5504 -1.0624
12513SOL    HW238350   0.463   7.146   3.344 -0.5777 -0.6132 -0.1286
12514SOL     OW38351   0.121   2.221   2.237 -0.0475  0.7394  0.5406
12514SOL    HW138352   0.102   2.128   2.243  0.5845  0.6398  1.1014
12514SOL    HW238353   0.039   2.261   2.207 -0.5042  0.0818  0.9081
12515SOL     OW38354   0.928   2.108   2.918  0.7859 -0.0238  0.2507
12515SOL    HW138355   0.871   2.085   2.844  1.3073  0.1740 -0.2173
12515SOL    HW238356   0.917   2.035   2.979 -2.2336  1.3483  1.5446
12516SOL     OW38357   1.212   1.002   6.010  0.5417 -0.3983 -0.2065
12516SOL    HW138358   1.307   0.991   6.021  0.3158 -0.5907  2.0585
12516SOL    HW238359   1.182   1.034   6.095 -1.1020  2.2234 -1.6480
12517SOL     OW38360   2.552   7.652   4.294 -0.1269 -0.2092  0.1761
12517SOL    HW138361   2.507   7.668   4.211  0.4420 -0.2922 -0.1565
12517SOL    HW238362   2.483   7.654   4.360 -0.7810 -1.3264 -0.4301
12518SOL     OW38363   7.864   7.747   5.235 -0.2810 -0.3755  0.0071
12518SOL    HW138364   7.914   7.668   5.256 -1.1423 -1.0306 -0.3516
12518SOL    HW238365   7.912   7.787   5.162 -0.1688 -0.8815 -0.1977
12519SOL     OW38366   7.671   2.523   7.873 -0.3557 -0.4068 -0.0742
12519SOL    HW138367   7.639   2.499   7.786 -0.1041 -0.9940 -0.0116
12519SOL    HW238368   7.661   2.443   7.925 -0.5038 -0.0607  0.4359
12520SOL     OW38369   6.135   3.803   6.400  0.1698 -0.6327  0.0627
12520SOL    HW138370   6.068   3.764   6.455 -1.0454 -2.0801 -2.2835
12520SOL    HW238371   6.197   3.732   6.383 -0.4888 -0.7871 -1.8954
12521SOL     OW38372   7.219   2.978   4.697  0.3050  0.1439 -0.4850
12521SOL    HW138373   7.297   2.940   4.736  0.4394  0.5172 -0.3886
12521SOL    HW238374   7.188   2.911   4.635  0.7173  0.0083 -0.5465
12522SOL     OW38375   4.810   5.176   5.039 -0.3852  0.4236 -0.0632
12522SOL    HW138376   4.879   5.191   5.104 -0.8717  1.0877  0.3144
12522SOL    HW238377   4.797   5.262   4.998  1.3088 -0.3535 -2.4954
12523SOL     OW38378   7.860   2.718   7.455 -0.3737  0.3476 -0.3161
12523SOL    HW138379   7.833   2.805   7.426 -1.3221 -0.3469 -1.5847
12523SOL    HW238380   7.904   2.680   7.380 -0.6390 -0.5472 -0.0294
12524SOL     OW38381   7.231   2.953   0.833 -0.0617 -0.3298  0.0785
12524SOL    HW138382   7.293   2.933   0.763 -0.3763  0.7057 -0.5218
12524SOL    HW238383   7.152   2.983   0.787 -0.6304 -0.6006  0.8538
12525SOL     OW38384   2.591   7.259   6.093  0.0680  0.2070  0.4860
12525SOL    HW138385   2.654   7.323   6.128  1.2210 -0.5029 -0.2306
12525SOL    HW238386   2.539   7.233   6.169  1.3372  0.0377  1.3299
12526SOL     OW38387   0.524   7.193   4.466  0.2653 -0.1108 -0.0835
12526SOL    HW138388   0.460   7.197   4.537 -0.3125  1.1194 -0.6460
12526SOL    HW238389   0.588   7.261   4.487 -1.3137  2.1459 -1.9909
12527SOL     OW38390   6.035   2.852   3.535 -0.4292 -0.1988  0.5362
12527SOL    HW138391   6.124   2.821   3.551 -1.4264 -2.8586  1.3958
12527SOL    HW238392   5.987   2.775   3.504 -2.0519  1.5590 -1.7079
12528SOL     OW38393   2.586   6.469   1.893 -0.2589  0.2705  0.1098
12528SOL    HW138394   2.520   6.528   1.929 -2.6258 -1.0637 -1.7764
12528SOL    HW238395   2.582   6.391   1.949  0.7931  0.7023  0.8335
12529SOL     OW38396   3.573   3.650   0.152 -0.5639  0.4320 -0.2393
12529SOL    HW138397   3.605   3.658   0.062 -1.0009 -2.0216 -0.6886
12529SOL    HW238398   3.599   3.731   0.194  0.5604  1.2150 -2.3046
12530SOL     OW38399   3.390   7.068   1.075 -0.4752 -0.7457  0.0983
12530SOL    HW138400   3.448   7.027   1.011  1.2270 -0.3745  1.3524
12530SOL    HW238401   3.390   7.008   1.150  1.5182  1.0781  1.6972
12531SOL     OW38402   5.608   2.626   0.836 -0.4920 -0.0386 -0.0398
12531SOL    HW138403   5.690   2.657   0.797 -1.3686  0.0590 -1.9430
12531SOL    HW238404   5.632   2.543   0.879  0.5467 -0.1799 -0.8436
12532SOL     OW38405   6.912   1.199   4.499 -0.3609  0.0746 -0.0145
12532SOL    HW138406   6.974   1.203   4.427 -0.7399  1.3353 -0.3062
12532SOL    HW238407   6.931   1.117   4.543  1.8231  0.6413  0.1943
12533SOL     OW38408   3.439   0.932   4.106 -0.2530  0.0521 -0.2976
12533SOL    HW138409   3.415   0.916   4.198 -0.7097 -1.4193 -0.6408
12533SOL    HW238410   3.473   0.848   4.076  3.8047  1.4985 -0.3827
12534SOL     OW38411   3.275   3.919   4.091  0.1253 -0.4073  0.0279
12534SOL    HW138412   3.370   3.926   4.102 -0.0417 -0.1957  1.5707
12534SOL    HW238413   3.263   3.843   4.035  1.1827 -1.1135  0.7126
12535SOL     OW38414   3.338   4.044   4.568 -0.6215  0.0732  0.1656
12535SOL    HW138415   3.279   3.993   4.513 -0.9129  0.0190  0.5231
12535SOL    HW238416   3.420   3.995   4.567 -1.2890 -1.1566  1.6018
12536SOL     OW38417   1.821   1.990   0.250  0.6485  0.1565  0.1217
12536SOL    HW138418   1.826   1.988   0.346  1.0484 -2.0246  0.0988
12536SOL    HW238419   1.727   1.999   0.231  0.4942 -0.1784  0.7085
12537SOL     OW38420   6.183   2.326   4.602 -0.3656 -0.2904 -0.3446
12537SOL    HW138421   6.117   2.391   4.580  0.4389  0.5762 -0.2698
12537SOL    HW238422   6.200   2.339   4.696  1.8437  1.3911 -0.8878
12538SOL     OW38423   5.856   7.195   4.872 -0.0039 -0.2297 -0.1692
12538SOL    HW138424   5.837   7.170   4.963 -2.1625 -0.7405 -0.7001
12538SOL    HW238425   5.793   7.264   4.853 -0.4658 -1.0270 -1.6636
12539SOL     OW38426   2.159   1.171   1.349 -0.0238  0.1527 -0.4651
12539SOL    HW138427   2.163   1.220   1.431 -2.4736 -0.1770 -0.0817
12539SOL    HW238428   2.135   1.237   1.283 -1.4473 -0.1550 -0.2804
12540SOL     OW38429   1.903   5.883   0.384 -0.3074  0.6633 -0.1744
12540SOL    HW138430   1.935   5.924   0.304 -0.2608  0.2448 -0.3732
12540SOL    HW238431   1.922   5.790   0.372 -0.2285  0.6084  0.3559
12541SOL     OW38432   0.977   1.373   5.958 -0.2022  0.4395  0.3688
12541SOL    HW138433   0.942   1.368   6.047 -0.0564  0.8129  0.4490
12541SOL    HW238434   0.904   1.406   5.906 -0.5304 -0.5195  0.2062
12542SOL     OW38435   6.869   1.552   2.701  0.1321  0.0764 -0.2411
12542SOL    HW138436   6.935   1.483   2.698  0.7544  0.6826 -0.6713
12542SOL    HW238437   6.919   1.633   2.705 -0.5528  0.4762  2.8432
12543SOL     OW38438   3.895   3.659   6.788  1.0771 -0.6466  0.6033
12543SOL    HW138439   3.946   3.613   6.854  1.9952  0.0818  0.4211
12543SOL    HW238440   3.818   3.603   6.773  0.7036 -0.7003  2.4686
12544SOL     OW38441   7.927   6.335   0.739  0.5214 -0.1874  0.4973
12544SOL    HW138442   7.838   6.318   0.770  0.1153  2.9651  1.4130
12544SOL    HW238443   7.953   6.417   0.782  2.9341  0.3092 -1.6073
12545SOL     OW38444   6.554   3.620   2.434 -0.1754  0.5996 -0.9248
12545SOL    HW138445   6.460   3.600   2.425 -0.5605 -0.4946  3.1998
12545SOL    HW238446   6.598   3.549   2.388 -1.5444 -1.8087  1.1944
12546SOL     OW38447   1.397   0.797   6.566 -0.1209 -0.2246  0.1965
12546SOL    HW138448   1.393   0.723   6.506  1.8851 -1.2410  1.2333
12546SOL    HW238449   1.437   0.867   6.514  1.3969 -1.0251  0.2438
12547SOL     OW38450   5.828   4.507   1.847  0.5330  0.3561  0.3342
12547SOL    HW138451   5.906   4.487   1.794  1.2852  0.6225  1.3176
12547SOL    HW238452   5.814   4.601   1.834  1.4903  0.7014  1.5717
12548SOL     OW38453   2.312   0.872   7.392  0.3704  0.1371  0.6403
12548SOL    HW138454   2.257   0.924   7.450  0.7103 -0.1905  1.2616
12548SOL    HW238455   2.293   0.781   7.415 -0.1074 -0.0207 -0.3342
12549SOL     OW38456   4.679   6.625   0.064 -0.5641  0.0478 -0.2223
12549SOL    HW138457   4.651   6.555   0.123 -1.0778 -1.5515 -2.2304
12549SOL    HW238458   4.772   6.637   0.084 -1.3087  1.5885  2.7892
12550SOL     OW38459   6.139   2.149   6.170 -0.2812  0.5645  0.3579
12550SOL    HW138460   6.104   2.222   6.119 -0.4985  1.0334  1.1607
12550SOL    HW238461   6.100   2.160   6.257 -0.3291 -0.5192  0.4858
12551SOL     OW38462   0.080   1.990   7.010 -0.4579  0.3296  0.1743
12551SOL    HW138463   0.042   2.058   7.065 -1.4777 -0.7111  0.7984
12551SOL    HW238464   0.082   1.912   7.067 -1.8371 -0.8621 -1.3131
12552SOL     OW38465   3.408   5.923   5.188 -0.2968 -0.8980 -0.3757
12552SOL    HW138466   3.335   5.978   5.160  0.8970  0.8039 -0.3473
12552SOL    HW238467   3.478   5.986   5.210  0.2823 -2.3008  2.2295
12553SOL     OW38468   1.631   1.879   7.594  0.3957 -0.0804  0.8048
12553SOL    HW138469   1.688   1.819   7.545 -0.9536 -0.4271 -0.4014
12553SOL    HW238470   1.657   1.867   7.686  1.4993 -1.0320  0.3920
12554SOL     OW38471   7.732   0.127   3.344 -0.0015 -0.7007  0.0329
12554SOL    HW138472   7.815   0.080   3.335  0.7646  0.6971 -0.4382
12554SOL    HW238473   7.673   0.063   3.382  1.1350 -1.9055 -0.1535
12555SOL     OW38474   5.374   5.648   0.796  0.6802  0.2368  0.1129
12555SOL    HW138475   5.396   5.556   0.812  1.7827  0.6621  1.2230
12555SOL    HW238476   5.280   5.648   0.779  0.0960 -0.8086  2.8289
12556SOL     OW38477   4.540   4.431   1.496 -0.1243  0.3559  0.1833
12556SOL    HW138478   4.576   4.489   1.562 -0.2297  0.2477  0.3364
12556SOL    HW238479   4.548   4.343   1.534 -1.2161  0.3889  0.5401
12557SOL     OW38480   5.839   1.264   2.765 -0.5292  0.1415  0.4594
12557SOL    HW138481   5.820   1.336   2.825  0.0083 -0.0749  0.9023
12557SOL    HW238482   5.757   1.215   2.760 -1.7455  2.1917 -1.8790
12558SOL     OW38483   7.682   0.757   5.909 -0.6480  0.5802 -0.2871
12558SOL    HW138484   7.762   0.753   5.857 -0.6443  0.0674 -0.2429
12558SOL    HW238485   7.613   0.774   5.844 -0.8048 -1.2212 -0.6379
12559SOL     OW38486   0.995   2.985   3.525  0.0899 -0.3073  0.1504
12559SOL    HW138487   1.056   3.042   3.570  0.5139  2.5381 -3.5636
12559SOL    HW238488   0.918   2.982   3.582  0.3945  3.3719  0.9770
12560SOL     OW38489   0.296   7.218   1.530  0.0498 -0.0274 -0.6552
12560SOL    HW138490   0.216   7.210   1.583 -0.3743 -1.4130 -1.4616
12560SOL    HW238491   0.306   7.312   1.517  0.4845  0.4268  2.3211
12561SOL     OW38492   1.552   3.628   4.255  0.2383 -0.4218  0.7562
12561SOL    HW138493   1.564   3.564   4.185  0.3802  0.8831 -0.4537
12561SOL    HW238494   1.614   3.602   4.323  3.8491  1.0988 -1.6971
12562SOL     OW38495   2.647   7.517   7.557  0.1279 -0.3417 -0.7839
12562SOL    HW138496   2.636   7.610   7.577  2.4695  0.0935 -1.1687
12562SOL    HW238497   2.596   7.503   7.478  0.1829  0.7649 -1.0338
12563SOL     OW38498   2.393   6.572   2.436 -0.3139 -0.0790  0.6418
12563SOL    HW138499   2.371   6.665   2.448  0.6173  0.2104  0.1737
12563SOL    HW238500   2.471   6.559   2.490  0.0710 -0.3634  0.0245
12564SOL     OW38501   5.445   5.786   0.544  0.0733 -0.1979 -0.0340
12564SOL    HW138502   5.418   5.747   0.461  2.0892  0.7359 -1.2027
12564SOL    HW238503   5.439   5.715   0.608 -0.2382 -1.2866 -1.2520
12565SOL     OW38504   6.286   0.488   3.318  0.6966 -0.0143  0.5918
12565SOL    HW138505   6.360   0.494   3.259  0.7186 -0.0642  0.6143
12565SOL    HW238506   6.223   0.432   3.273 -0.8835  2.8821 -1.0708
12566SOL     OW38507   5.908   3.696   5.622 -0.0245 -0.1075  0.1085
12566SOL    HW138508   5.893   3.781   5.581 -2.0941 -0.7560 -0.6371
12566SOL    HW238509   5.833   3.685   5.681  0.5888 -1.1203  0.7324
12567SOL     OW38510   7.009   2.063   0.763 -0.1369 -0.1034  0.3536
12567SOL    HW138511   6.988   2.070   0.856  0.7262 -1.5939  0.7017
12567SOL    HW238512   6.957   2.131   0.721  1.2885  2.2713  2.1775
12568SOL     OW38513   7.681   2.407   1.781 -0.3257 -0.5207 -0.3042
12568SOL    HW138514   7.770   2.440   1.768 -0.6678  1.1139  1.0162
12568SOL    HW238515   7.693   2.322   1.822  0.6470 -0.1804  0.1706
12569SOL     OW38516   5.943   4.476   3.153 -0.3970  0.0544 -0.3023
12569SOL    HW138517   5.949   4.568   3.182 -2.1220  0.1080 -0.0090
12569SOL    HW238518   5.862   4.444   3.193 -0.5882 -1.1629 -1.6043
12570SOL     OW38519   2.434   0.520   5.753 -0.4405 -0.0186 -0.9247
12570SOL    HW138520   2.343   0.545   5.770 -0.1379  0.2562  0.3798
12570SOL    HW238521   2.468   0.589   5.697 -0.9858 -0.0528 -1.3084
12571SOL     OW38522   4.395   3.456   7.368 -0.3641 -0.2631 -0.2447
12571SOL    HW138523   4.384   3.389   7.435 -0.6141  0.4106  0.4122
12571SOL    HW238524   4.337   3.527   7.396  1.1695  0.9348  0.0214
12572SOL     OW38525   4.696   3.618   4.369 -0.2760  0.1463 -0.2183
12572SOL    HW138526   4.688   3.537   4.419 -0.6630  0.9445  1.0688
12572SOL    HW238527   4.618   3.669   4.392 -0.8012  0.3073 -2.1508
12573SOL     OW38528   6.752   2.171   6.381  0.2579 -0.7081 -0.1209
12573SOL    HW138529   6.714   2.094   6.339 -2.7444  0.4208  0.2250
12573SOL    HW238530   6.708   2.175   6.466  0.7379  1.0703  0.0836
12574SOL     OW38531   1.739   0.203   4.173 -0.1049 -0.3619 -0.2685
12574SOL    HW138532   1.793   0.169   4.102  0.0123  1.0909 -0.9163
12574SOL    HW238533   1.786   0.179   4.253  0.9679 -0.0460 -0.7878
12575SOL     OW38534   2.904   6.772   5.715 -0.3099 -0.0680 -0.2566
12575SOL    HW138535   2.947   6.762   5.630  0.3791 -0.1867  0.0908
12575SOL    HW238536   2.976   6.767   5.778 -0.7184  0.7339  0.2928
12576SOL     OW38537   5.958   4.845   4.734 -0.2013 -0.4075  0.0038
12576SOL    HW138538   5.902   4.880   4.664 -1.4847  0.1717  1.2783
12576SOL    HW238539   6.016   4.783   4.689 -1.0486 -0.1210 -1.5608
12577SOL     OW38540   2.536   1.614   0.522  0.0843 -0.3270 -0.7456
12577SOL    HW138541   2.624   1.601   0.559 -0.5046  0.4689  0.9936
12577SOL    HW238542   2.552   1.643   0.432  1.5985 -0.1341 -0.4353
12578SOL     OW38543   7.173   5.405   1.080  0.6591 -0.1411 -0.2142
12578SOL    HW138544   7.132   5.393   0.994 -1.1195  0.4247  0.5000
12578SOL    HW238545   7.141   5.490   1.110  1.5178 -0.1826  0.8809
12579SOL     OW38546   0.192   0.313   3.496 -0.3417  0.1072  0.0171
12579SOL    HW138547   0.201   0.276   3.584  0.2366 -0.3909 -0.2395
12579SOL    HW238548   0.214   0.240   3.437 -1.3813  0.2355 -0.5621
12580SOL     OW38549   6.852   3.444   1.211 -0.0542  0.3161 -0.2086
12580SOL    HW138550   6.844   3.484   1.125  0.0481 -1.1227 -0.9172
12580SOL    HW238551   6.799   3.364   1.206 -1.0168  0.7754  1.4499
12581SOL     OW38552   6.563   4.054   3.615 -0.0355  0.4142 -0.2942
12581SOL    HW138553   6.503   4.047   3.540  0.3181 -0.9589 -0.4732
12581SOL    HW238554   6.545   3.975   3.667  1.1551  0.3162 -0.0109
12582SOL     OW38555   1.950   6.485   1.869  0.1072  0.3921 -0.2341
12582SOL    HW138556   1.894   6.496   1.946  1.4914  1.7835  0.6283
12582SOL    HW238557   1.890   6.456   1.800 -1.3528  0.1500  1.0893
12583SOL     OW38558   6.626   5.609   5.331  0.3621  0.4758  0.5646
12583SOL    HW138559   6.718   5.637   5.329  0.0709  1.4645  0.3048
12583SOL    HW238560   6.611   5.571   5.244 -0.4433  3.7068 -0.8501
12584SOL     OW38561   5.697   2.719   6.081  0.3136 -0.6347  0.4879
12584SOL    HW138562   5.756   2.673   6.022 -0.0426  0.8843 -1.1290
12584SOL    HW238563   5.641   2.771   6.023 -0.6746  0.1934  2.1237
12585SOL     OW38564   7.654   1.894   5.341 -0.3844  0.3818 -0.2862
12585SOL    HW138565   7.653   1.973   5.287  0.6871  0.4504 -0.2336
12585SOL    HW238566   7.739   1.897   5.385  0.1741 -1.4304 -1.1929
12586SOL     OW38567   2.755   7.141   1.822 -0.1163 -0.3237  0.0891
12586SOL    HW138568   2.832   7.154   1.768 -0.2161 -1.8662 -0.4792
12586SOL    HW238569   2.743   7.046   1.824 -1.0061 -0.2052  1.5703
12587SOL     OW38570   7.632   0.712   6.483  0.0789 -0.1986 -0.2750
12587SOL    HW138571   7.670   0.783   6.534 -0.1890 -1.0807  1.2155
12587SOL    HW238572   7.539   0.735   6.475 -0.1134 -0.6037  0.6477
12588SOL     OW38573   6.977   2.388   2.932  0.6196 -0.1672 -0.0217
12588SOL    HW138574   6.887   2.413   2.909  0.5348  0.7251  1.1879
12588SOL    HW238575   7.032   2.449   2.883  0.5461 -0.1248 -0.0516
12589SOL     OW38576   0.739   5.502   1.108 -0.6013 -0.1900 -0.0392
12589SOL    HW138577   0.814   5.531   1.057 -1.2691 -0.5050 -1.2297
12589SOL    HW238578   0.738   5.560   1.184  0.0978  0.6539 -0.6602
12590SOL     OW38579   0.392   0.898   3.929  0.1667  0.0497 -0.1163
12590SOL    HW138580   0.332   0.832   3.964  0.8515 -0.8790 -0.6400
12590SOL    HW238581   0.347   0.981   3.943 -0.6275 -0.5017  0.7608
12591SOL     OW38582   1.292   3.996   5.865 -0.1793  0.1280  0.9719
12591SOL    HW138583   1.252   4.065   5.812 -0.6367 -0.7882  0.0847
12591SOL    HW238584   1.361   3.960   5.809 -0.0638 -0.2511  1.3525
12592SOL     OW38585   7.830   4.349   4.211  0.1549 -0.2391 -0.0409
12592SOL    HW138586   7.849   4.255   4.203  0.4888 -0.1014 -0.8589
12592SOL    HW238587   7.846   4.385   4.124  0.3544  0.6447  0.3527
12593SOL     OW38588   6.768   6.772   3.014  0.2943  0.6558 -0.0894
12593SOL    HW138589   6.674   6.759   3.029  0.5566  0.0927  1.2373
12593SOL    HW238590   6.776   6.779   2.919 -1.1450  1.2211 -0.2038
12594SOL     OW38591   3.118   3.831   7.363 -0.0428 -0.8787 -0.4782
12594SOL    HW138592   3.149   3.755   7.413 -0.6210 -0.2381  0.9065
12594SOL    HW238593   3.110   3.901   7.428  1.6772  0.7672 -1.9056
12595SOL     OW38594   1.864   6.361   0.069  0.1500 -0.0378  0.4024
12595SOL    HW138595   1.902   6.350  -0.018  0.3048 -0.3679  0.5072
12595SOL    HW238596   1.784   6.308   0.067 -0.6349  1.1116 -0.0054
12596SOL     OW38597   6.681   3.435   2.283 -0.2002  0.3751 -0.0465
12596SOL    HW138598   6.741   3.395   2.219 -0.2197  1.2955 -0.6673
12596SOL    HW238599   6.669   3.368   2.350  1.4250  0.1162  0.0282
12597SOL     OW38600   7.776   7.758   0.848  0.0504 -0.4644 -0.2407
12597SOL    HW138601   7.812   7.819   0.912 -0.2803 -1.0301  0.5057
12597SOL    HW238602   7.681   7.769   0.854 -0.2198 -2.8974  1.8937
12598SOL     OW38603   0.045   3.535   0.797  0.3590 -0.5371 -0.3048
12598SOL    HW138604   0.114   3.587   0.838  0.3360  0.4015 -1.3992
12598SOL    HW238605   0.045   3.563   0.705 -2.1291  0.2346 -0.1465
12599SOL     OW38606   0.016   4.297   0.830  0.0405  0.0547  0.0800
12599SOL    HW138607   0.039   4.212   0.866  2.0965  0.3465 -0.4289
12599SOL    HW238608   0.006   4.354   0.906 -0.7812 -0.4776  0.3896
12600SOL     OW38609   0.867   1.091   3.995 -0.1800  0.1662  0.0064
12600SOL    HW138610   0.865   1.034   3.918 -0.7046  0.8174 -0.4751
12600SOL    HW238611   0.858   1.031   4.069 -2.0776 -0.3106 -0.5374
12601SOL     OW38612   5.876   6.917   4.522 -0.6073  0.1274 -0.3165
12601SOL    HW138613   5.965   6.881   4.529 -0.8883 -0.6814 -0.8406
12601SOL    HW238614   5.883   7.004   4.562 -0.0626 -0.7363  1.5815
12602SOL     OW38615   7.070   2.468   2.307  0.1571 -0.2341 -0.1254
12602SOL    HW138616   7.150   2.417   2.318  0.9690  1.2498  1.2484
12602SOL    HW238617   7.011   2.410   2.259  3.0669 -0.3083 -4.1279
12603SOL     OW38618   1.358   0.090   0.358 -0.4384  0.0401  0.2665
12603SOL    HW138619   1.279   0.097   0.305  0.9038  1.3173 -1.6849
12603SOL    HW238620   1.336   0.025   0.425 -2.8203 -0.2891 -0.7251
12604SOL     OW38621   5.395   0.109   6.029 -0.1725  0.1222  0.2655
12604SOL    HW138622   5.303   0.084   6.028  0.1532 -1.2910  1.4964
12604SOL    HW238623   5.437   0.044   6.085  1.1729  2.1507  1.7568
12605SOL     OW38624   7.009   5.939   3.175 -0.5441 -0.4405 -0.5550
12605SOL    HW138625   7.021   6.034   3.180 -0.2372 -0.5406  0.7513
12605SOL    HW238626   6.930   5.928   3.121 -0.6447  0.5551 -0.6302
12606SOL     OW38627   7.740   1.589   0.171  0.0050 -0.0573  0.1649
12606SOL    HW138628   7.662   1.643   0.178 -0.0707 -0.2707  1.0567
12606SOL    HW238629   7.722   1.531   0.097 -0.0664  0.8687 -0.5528
12607SOL     OW38630   3.421   7.816   2.872  0.3902 -0.0225 -0.1792
12607SOL    HW138631   3.479   7.799   2.945 -1.4385  0.9158  1.5955
12607SOL    HW238632   3.394   7.729   2.842  1.9425 -0.4377 -0.4584
12608SOL     OW38633   7.653   3.673   2.193  0.1443  0.0416 -0.2833
12608SOL    HW138634   7.567   3.711   2.213  0.7798  0.1462  2.7830
12608SOL    HW238635   7.655   3.591   2.244  1.2122 -0.8807 -1.7268
12609SOL     OW38636   6.676   2.496   1.581  0.0400  0.1823 -0.5823
12609SOL    HW138637   6.645   2.522   1.494  1.0645 -0.8549 -1.2806
12609SOL    HW238638   6.647   2.406   1.592 -1.8673  0.9103  1.0486
12610SOL     OW38639   5.522   0.976   3.547 -0.1472  0.0759  0.2054
12610SOL    HW138640   5.548   1.065   3.575  1.0775 -0.7750  2.0216
12610SOL    HW238641   5.583   0.955   3.477 -0.8555  0.8742 -0.6836
12611SOL     OW38642   5.117   2.207   0.273 -0.2260  0.5644 -0.4240
12611SOL    HW138643   5.186   2.254   0.319 -0.3412 -1.0730  1.5331
12611SOL    HW238644   5.042   2.210   0.332 -1.2874  0.7826 -1.7419
12612SOL     OW38645   6.460   2.864   7.681 -0.8788  0.2703 -0.5934
12612SOL    HW138646   6.424   2.912   7.607 -0.3102 -0.2689 -1.2313
12612SOL    HW238647   6.541   2.911   7.702 -0.0807 -0.6500 -1.5150
12613SOL     OW38648   7.593   7.643   2.750 -0.8691 -0.4392  0.0355
12613SOL    HW138649   7.563   7.637   2.660 -1.0548  3.5448 -0.3477
12613SOL    HW238650   7.689   7.640   2.743 -0.8794 -0.0797 -0.3498
12614SOL     OW38651   4.958   2.619   2.471  0.5191 -0.3934 -0.3813
12614SOL    HW138652   4.937   2.601   2.563 -1.5705 -2.4820 -1.1516
12614SOL    HW238653   4.896   2.687   2.445  0.5671 -0.3746 -0.4454
12615SOL     OW38654   3.036   5.057   2.127  0.0657 -0.3564  0.1835
12615SOL    HW138655   2.976   5.123   2.092 -0.4632 -0.4393  0.9202
12615SOL    HW238656   3.058   5.088   2.215  0.2024 -0.9153  0.3517
12616SOL     OW38657   5.184   5.540   0.487  0.4009  0.1375  0.6662
12616SOL    HW138658   5.244   5.467   0.503  0.4786  0.1889  0.6135
12616SOL    HW238659   5.214   5.577   0.404 -0.2236 -0.3543  0.2146
12617SOL     OW38660   4.860   1.107   3.078  0.0852  0.0910 -0.3638
12617SOL    HW138661   4.785   1.148   3.120  1.0950  1.0270  0.5626
12617SOL    HW238662   4.936   1.156   3.109  1.0001 -0.0172 -2.2475
12618SOL     OW38663   5.779   2.579   7.859 -0.1378 -0.2693  0.5619
12618SOL    HW138664   5.792   2.658   7.808  0.7723  1.2796  2.9971
12618SOL    HW238665   5.688   2.554   7.841 -0.9033  2.1358  0.7263
12619SOL     OW38666   0.508   1.530   1.262  0.4458 -0.1407 -0.4456
12619SOL    HW138667   0.478   1.516   1.352 -0.8034 -0.8183 -0.9426
12619SOL    HW238668   0.603   1.543   1.271  0.3922 -0.4610  0.9411
12620SOL     OW38669   6.054   3.064   3.376  0.3324  0.1133 -0.0315
12620SOL    HW138670   6.067   3.014   3.295 -3.5147 -2.3480  0.6542
12620SOL    HW238671   6.056   2.999   3.446 -0.8985  1.4861  1.3559
12621SOL     OW38672   0.521   6.281   0.329  0.3876 -0.2419 -0.4947
12621SOL    HW138673   0.536   6.188   0.345  1.1834 -0.3001 -1.4808
12621SOL    HW238674   0.604   6.323   0.352 -0.2973  0.3791  0.9655
12622SOL     OW38675   7.031   0.393   6.522 -0.2816 -0.6899 -0.4337
12622SOL    HW138676   7.075   0.311   6.543  0.5000 -0.6528 -1.8160
12622SOL    HW238677   6.982   0.374   6.441  1.5165  0.7095 -1.9219
12623SOL     OW38678   1.496   2.453   7.395  0.0003  0.5717  0.1368
12623SOL    HW138679   1.584   2.429   7.364  0.1748  0.4386  0.7150
12623SOL    HW238680   1.509   2.539   7.436 -0.0839  0.4359  0.4513
12624SOL     OW38681   1.594   7.223   4.274 -0.4386 -0.3506 -0.1355
12624SOL    HW138682   1.542   7.269   4.208 -0.7476 -1.4472 -0.6683
12624SOL    HW238683   1.662   7.178   4.225  0.4891  0.3405  0.4842
12625SOL     OW38684   5.075   7.132   2.242  0.5350 -0.5718 -0.1980
12625SOL    HW138685   5.089   7.115   2.149  0.8574 -2.4390  0.1631
12625SOL    HW238686   5.002   7.194   2.244  1.7765  1.0631 -1.7393
12626SOL     OW38687   4.116   4.739   4.701 -0.0732  0.1467 -0.8304
12626SOL    HW138688   4.199   4.694   4.719  0.1564  1.1944  0.9451
12626SOL    HW238689   4.106   4.733   4.606  1.1385 -1.5322 -0.9006
12627SOL     OW38690   0.755   2.604   3.171 -0.6510 -0.1324  0.0219
12627SOL    HW138691   0.774   2.510   3.169  1.3293  0.2249  0.3233
12627SOL    HW238692   0.800   2.639   3.093  0.9655  0.9286  1.3725
12628SOL     OW38693   0.243   1.833   1.225  0.0738 -0.1154 -0.7161
12628SOL    HW138694   0.295   1.861   1.150  0.0209 -0.2721 -0.8121
12628SOL    HW238695   0.184   1.766   1.190  0.0399 -0.1799 -0.5389
12629SOL     OW38696   4.816   3.252   0.209 -0.5401 -0.0700  0.4736
12629SOL    HW138697   4.909   3.275   0.198 -0.9675  1.2837 -0.7246
12629SOL    HW238698   4.803   3.248   0.303  0.6007  0.3698  0.6648
12630SOL     OW38699   1.395   1.598   0.049  0.2369  0.0388  0.3671
12630SOL    HW138700   1.375   1.654   0.124 -0.8161 -0.9654  0.8705
12630SOL    HW238701   1.452   1.652  -0.007 -1.3536  1.9156  0.4370
12631SOL     OW38702   1.170   0.931   5.432 -0.0850 -0.6584 -0.0869
12631SOL    HW138703   1.257   0.938   5.393  0.4587 -0.8198  1.0563
12631SOL    HW238704   1.158   1.012   5.481 -1.5545  0.4071 -2.0508
12632SOL     OW38705   6.187   1.172   1.410  0.3482  0.0998 -0.1753
12632SOL    HW138706   6.279   1.161   1.384 -0.2301 -1.4130 -1.8061
12632SOL    HW238707   6.161   1.086   1.441 -1.0233 -0.0434 -1.5968
12633SOL     OW38708   1.040   6.876   0.773  0.0487  0.1122  0.0974
12633SOL    HW138709   1.015   6.957   0.728  2.2094  1.1073  0.5610
12633SOL    HW238710   1.111   6.840   0.720  0.8844 -0.0762  1.3149
12634SOL     OW38711   2.767   1.893   2.781 -0.0370 -0.2376  0.0470
12634SOL    HW138712   2.790   1.833   2.710  0.3634 -0.7723  0.6173
12634SOL    HW238713   2.776   1.980   2.743 -1.0866 -0.5333 -0.9342
12635SOL     OW38714   6.933   2.992   7.074 -0.5619  0.0720  0.1898
12635SOL    HW138715   6.982   2.943   7.008  0.2894 -0.2138  1.0167
12635SOL    HW238716   6.968   3.081   7.068 -1.6275  0.4589 -0.8364
12636SOL     OW38717   4.699   7.289   4.605  0.3006  0.7439  0.2507
12636SOL    HW138718   4.669   7.201   4.582  1.2736  0.3626  0.4215
12636SOL    HW238719   4.618   7.337   4.625 -0.6518  0.9897 -3.4126
12637SOL     OW38720   4.678   1.069   7.784 -0.6446  0.1047 -0.0548
12637SOL    HW138721   4.647   1.107   7.866  1.1504  0.3016  0.5717
12637SOL    HW238722   4.666   1.139   7.719 -0.0014  0.7669  0.5173
12638SOL     OW38723   1.750   2.936   1.444 -0.3574  0.3778 -0.4163
12638SOL    HW138724   1.703   2.954   1.363  2.7717  0.0251 -2.5091
12638SOL    HW238725   1.736   3.014   1.498 -2.8985  0.4276 -1.0182
12639SOL     OW38726   6.053   3.204   6.463  0.1869 -1.2444 -0.0293
12639SOL    HW138727   6.001   3.269   6.510  1.6840 -0.1876  0.2644
12639SOL    HW238728   5.999   3.125   6.462 -1.6341 -0.0413 -0.2898
12640SOL     OW38729   0.729   1.867   7.183  0.2393  0.4685  0.4539
12640SOL    HW138730   0.823   1.855   7.201  0.6674  0.7152 -1.3893
12640SOL    HW238731   0.717   1.832   7.094 -1.3496  0.7518  0.5288
12641SOL     OW38732   5.165   3.534   6.339  0.3167  0.3697 -0.0582
12641SOL    HW138733   5.126   3.496   6.418 -1.4821  1.2826 -0.4639
12641SOL    HW238734   5.190   3.623   6.364  0.0594  0.5475 -0.4323
12642SOL     OW38735   5.499   3.658   7.661 -0.3601  0.0919 -0.2506
12642SOL    HW138736   5.441   3.590   7.626 -1.3325  0.3899  0.7113
12642SOL    HW238737   5.578   3.612   7.687 -0.7718 -0.5804 -0.1660
12643SOL     OW38738   1.599   7.213   6.594 -0.3591 -0.2601 -0.1017
12643SOL    HW138739   1.671   7.163   6.555 -1.0487 -2.2639  1.0607
12643SOL    HW238740   1.637   7.255   6.671 -0.5753 -2.1349  1.0996
12644SOL     OW38741   0.841   0.721   3.555  0.5013  0.0985 -0.3483
12644SOL    HW138742   0.765   0.666   3.537 -1.2405  2.7043 -1.5566
12644SOL    HW238743   0.908   0.660   3.586 -2.1357 -2.2959  1.1049
12645SOL     OW38744   5.512   3.135   4.660  0.3015  0.3328  0.5811
12645SOL    HW138745   5.537   3.208   4.716 -1.1236  2.3407 -1.2253
12645SOL    HW238746   5.567   3.144   4.583  0.4970 -0.8681  0.5634
12646SOL     OW38747   3.027   4.687   1.117  0.0554 -0.0781 -0.1723
12646SOL    HW138748   2.993   4.776   1.117 -0.1208 -0.1444  0.0513
12646SOL    HW238749   3.007   4.654   1.204  1.8599  0.3332  0.4452
12647SOL     OW38750   4.171   1.605   2.252 -0.2317 -0.4885  0.1482
12647SOL    HW138751   4.265   1.592   2.235  0.2662  1.4202  1.2056
12647SOL    HW238752   4.141   1.658   2.179 -0.9072 -2.3625 -1.0169
12648SOL     OW38753   4.309   3.811   7.139 -0.1386 -0.3178 -0.3639
12648SOL    HW138754   4.347   3.825   7.226  1.7712  0.5695 -1.2528
12648SOL    HW238755   4.270   3.724   7.143  1.2999 -0.9628  0.9287
12649SOL     OW38756   5.627   0.763   0.780 -0.2285 -0.3261 -0.5744
12649SOL    HW138757   5.667   0.847   0.755 -0.5001 -0.3400 -1.0672
12649SOL    HW238758   5.603   0.774   0.872  0.7571 -0.2558 -0.3157
12650SOL     OW38759   7.632   5.941   7.149  0.1774  0.5839 -0.0863
12650SOL    HW138760   7.670   5.992   7.221  0.9322 -0.1273  0.0291
12650SOL    HW238761   7.699   5.875   7.128 -1.8669 -2.3040  1.7336
12651SOL     OW38762   5.393   7.783   6.924 -0.2368  0.4154  0.7571
12651SOL    HW138763   5.310   7.801   6.969  0.9853  1.9824  2.5289
12651SOL    HW238764   5.447   7.860   6.941  2.0313 -1.0715  0.6790
12652SOL     OW38765   3.719   6.775   3.668 -0.5012 -0.2328  0.2509
12652SOL    HW138766   3.630   6.775   3.703 -0.7536  2.0493 -0.1997
12652SOL    HW238767   3.733   6.865   3.638  0.9751 -1.1649 -2.2150
12653SOL     OW38768   4.741   0.407   6.337  1.0537  0.1408 -0.5928
12653SOL    HW138769   4.759   0.437   6.426  4.6207  2.1176 -1.7866
12653SOL    HW238770   4.738   0.488   6.285  0.0854 -1.0125 -2.4481
12654SOL     OW38771   6.043   5.402   6.877  0.0098 -0.6632  0.4698
12654SOL    HW138772   6.016   5.311   6.892 -0.8701 -0.3517  0.8350
12654SOL    HW238773   6.040   5.443   6.963  1.9036 -0.6539  0.5746
12655SOL     OW38774   5.746   7.522   3.352  0.3339  0.0236  0.1329
12655SOL    HW138775   5.706   7.450   3.401  0.1760  0.2576  0.3453
12655SOL    HW238776   5.672   7.576   3.323  0.4907  0.4411  0.5025
12656SOL     OW38777   7.149   1.668   1.666 -0.2859 -0.1916 -0.0166
12656SOL    HW138778   7.208   1.685   1.739  0.8419 -0.8531 -0.7446
12656SOL    HW238779   7.139   1.573   1.664 -0.4816 -0.1658 -0.5868
12657SOL     OW38780   2.254   3.751   4.008  0.3467  0.0512 -0.5718
12657SOL    HW138781   2.159   3.749   4.021  0.6583 -0.6658  2.3113
12657SOL    HW238782   2.274   3.843   3.992 -0.5396  0.8294  2.2670
12658SOL     OW38783   0.280   3.429   0.003  0.5554 -0.2576  0.0638
12658SOL    HW138784   0.283   3.375  -0.076  2.3636  2.3010 -1.7729
12658SOL    HW238785   0.368   3.464   0.012 -0.6560  3.0798  0.5292
12659SOL     OW38786   0.427   3.177   3.293 -0.0996  0.0141 -0.5251
12659SOL    HW138787   0.486   3.102   3.291 -0.9167 -0.6316 -1.0745
12659SOL    HW238788   0.424   3.202   3.385 -1.6215 -2.1038  0.0789
12660SOL     OW38789   4.437   2.666   6.512  0.3633 -0.1295 -0.1337
12660SOL    HW138790   4.530   2.643   6.510  0.6806  1.0900 -0.8825
12660SOL    HW238791   4.434   2.752   6.555 -0.5689 -0.7109  1.0189
12661SOL     OW38792   3.453   5.331   2.015  0.3242  0.0289 -0.2292
12661SOL    HW138793   3.504   5.253   2.039  1.6214  1.0444  0.4481
12661SOL    HW238794   3.366   5.313   2.049  0.9010 -0.6499  0.9885
12662SOL     OW38795   3.594   2.848   7.894  0.4130  0.3078  0.1080
12662SOL    HW138796   3.574   2.890   7.977 -0.5108  0.3575 -0.1277
12662SOL    HW238797   3.566   2.910   7.828  2.0709  0.7041 -0.2746
12663SOL     OW38798   0.481   5.338   1.964 -0.1594  0.0426 -0.2548
12663SOL    HW138799   0.517   5.255   1.996 -3.0152 -0.9718  0.6259
12663SOL    HW238800   0.429   5.314   1.887  1.0030  1.4595 -1.5522
12664SOL     OW38801   0.505   4.040   0.123 -0.4754 -0.1356  0.8425
12664SOL    HW138802   0.444   4.028   0.051 -0.1819  0.7683  0.4271
12664SOL    HW238803   0.495   4.131   0.148  0.2736 -0.1335  1.1618
12665SOL     OW38804   4.170   3.146   2.219  0.5173 -0.2702  0.5779
12665SOL    HW138805   4.154   3.125   2.127  1.7420 -1.2024  0.5519
12665SOL    HW238806   4.153   3.240   2.225 -0.4819 -0.3670 -0.3857
12666SOL     OW38807   5.093   5.392   3.689  0.6024 -0.6404 -0.0508
12666SOL    HW138808   5.132   5.480   3.690  0.2437 -0.4735  1.1165
12666SOL    HW238809   5.025   5.396   3.757 -0.7293 -1.2503 -1.3078
12667SOL     OW38810   4.892   6.465   6.807 -0.1683  0.4624  0.5868
12667SOL    HW138811   4.859   6.420   6.730  0.1573  0.6668  0.3263
12667SOL    HW238812   4.979   6.495   6.782 -0.1455  0.7169  0.9613
12668SOL     OW38813   3.221   5.398   0.789 -0.2496 -0.4321 -0.0459
12668SOL    HW138814   3.282   5.348   0.735  2.4122  1.2826  1.1597
12668SOL    HW238815   3.257   5.392   0.878 -1.2706  1.4834  0.5556
12669SOL     OW38816   4.208   4.930   0.467 -0.0177 -0.6162 -0.2217
12669SOL    HW138817   4.287   4.912   0.417  1.1657  3.2502 -0.1216
12669SOL    HW238818   4.236   4.929   0.558 -0.4823 -0.9149 -0.0812
12670SOL     OW38819   0.044   7.325   6.577 -0.2897  0.2929  0.0029
12670SOL    HW138820   0.095   7.246   6.563 -1.1695 -0.5429  1.3074
12670SOL    HW238821   0.107   7.396   6.569  0.7037 -0.5980 -0.2336
12671SOL     OW38822   3.222   6.051   6.724  0.1322 -0.2943 -0.1784
12671SOL    HW138823   3.293   6.096   6.680  0.6501 -0.5652  0.3723
12671SOL    HW238824   3.242   5.958   6.714  0.1863 -0.3628  0.5069
12672SOL     OW38825   7.526   4.101   7.727 -0.4730  0.0924 -0.5622
12672SOL    HW138826   7.486   4.175   7.772 -3.1626 -1.4293 -0.2608
12672SOL    HW238827   7.530   4.128   7.635  2.5340  2.1582  0.0497
12673SOL     OW38828   6.117   5.866   1.021  0.0400 -0.3563  0.0383
12673SOL    HW138829   6.099   5.784   1.067  0.6873 -1.0049 -0.8284
12673SOL    HW238830   6.195   5.847   0.968  1.1799  1.3085  1.0299
12674SOL     OW38831   6.407   7.849   5.292 -0.1238  0.3840 -0.0232
12674SOL    HW138832   6.391   7.757   5.312 -0.8916  0.9426  2.3939
12674SOL    HW238833   6.361   7.865   5.210 -0.1144 -1.3425 -0.3851
12675SOL     OW38834   3.638   7.252   0.973  0.5561 -0.0879  0.6511
12675SOL    HW138835   3.600   7.210   0.895  1.4893  0.9483 -0.4027
12675SOL    HW238836   3.562   7.286   1.020  0.0254  0.7325 -0.7082
12676SOL     OW38837   3.065   4.384   2.956 -0.1141 -0.1172  0.1965
12676SOL    HW138838   2.975   4.377   2.924 -0.2211 -0.1213  0.4892
12676SOL    HW238839   3.119   4.379   2.878 -0.4452  2.5773 -0.2913
12677SOL     OW38840   0.164   0.482   7.045 -0.2258 -0.0082  0.5691
12677SOL    HW138841   0.070   0.472   7.062  0.1261 -0.1142  2.8316
12677SOL    HW238842   0.193   0.395   7.017 -0.7741 -0.0120 -0.0011
12678SOL     OW38843   4.800   3.588   2.821  0.3129 -0.2112 -0.3643
12678SOL    HW138844   4.826   3.664   2.770 -0.0164 -0.3049 -0.6758
12678SOL    HW238845   4.851   3.516   2.784 -0.2214 -0.3561 -0.8396
12679SOL     OW38846   3.034   3.191   1.560  0.2759 -0.0478 -0.1061
12679SOL    HW138847   3.011   3.143   1.640  1.0475 -0.3761 -0.0729
12679SOL    HW238848   3.004   3.135   1.489  0.1580 -0.0530 -0.0521
12680SOL     OW38849   3.144   7.450   0.262  0.0701 -0.0424  0.1104
12680SOL    HW138850   3.230   7.467   0.222  1.0826  0.6051  2.3919
12680SOL    HW238851   3.112   7.536   0.289 -1.3992 -0.2615 -0.8407
12681SOL     OW38852   4.151   3.648   2.523 -0.0167 -0.2377 -0.6820
12681SOL    HW138853   4.115   3.716   2.580  1.8621 -0.6992  1.1775
12681SOL    HW238854   4.242   3.639   2.550  0.0863 -2.7611 -1.5915
12682SOL     OW38855   3.929   6.913   5.056 -0.3450 -0.2333 -0.2968
12682SOL    HW138856   3.987   6.976   5.013  1.9125 -1.9881 -0.0394
12682SOL    HW238857   3.927   6.941   5.147  0.1403 -0.1803 -0.2997
12683SOL     OW38858   7.173   5.472   4.264 -0.0269  0.1612 -0.0689
12683SOL    HW138859   7.189   5.556   4.306 -0.5741  1.3425 -2.0925
12683SOL    HW238860   7.107   5.429   4.320  0.1849  1.0946  0.9267
12684SOL     OW38861   8.003   5.382   3.583  0.5052  0.7952 -0.0200
12684SOL    HW138862   7.915   5.420   3.588  0.1747  0.3979 -2.0337
12684SOL    HW238863   8.024   5.360   3.674 -1.8038  0.1595  0.4315
12685SOL     OW38864   4.698   2.647   6.488 -0.1269  0.4766 -0.7206
12685SOL    HW138865   4.759   2.616   6.555  0.3263 -0.8411 -1.7208
12685SOL    HW238866   4.723   2.739   6.473  0.2657  0.5593  0.3337
12686SOL     OW38867   5.997   1.867   4.252 -0.3086  0.1360 -0.5123
12686SOL    HW138868   5.947   1.786   4.239 -1.3566  0.8321 -0.9718
12686SOL    HW238869   6.067   1.843   4.313 -1.1333 -0.9145  0.0509
12687SOL     OW38870   2.866   2.203   0.726  0.6926 -0.0628 -0.3942
12687SOL    HW138871   2.924   2.132   0.755  1.5995  0.2219 -1.4606
12687SOL    HW238872   2.811   2.162   0.658  1.8315  0.4458 -1.6645
12688SOL     OW38873   7.070   2.522   4.254  0.0016  0.5064 -0.0554
12688SOL    HW138874   6.996   2.579   4.273 -0.4805 -0.4185  0.9427
12688SOL    HW238875   7.077   2.465   4.331  2.3343  1.1724  0.2874
12689SOL     OW38876   7.529   6.116   6.979 -0.5460 -0.4914  0.2769
12689SOL    HW138877   7.434   6.107   6.965 -0.5557  0.8222 -0.6693
12689SOL    HW238878   7.547   6.060   7.055 -1.7844 -2.0647 -0.5191
12690SOL     OW38879   3.256   0.803   3.679 -0.7386 -0.6503  0.0349
12690SOL    HW138880   3.349   0.797   3.705 -0.3396  1.2251 -0.8014
12690SOL    HW238881   3.213   0.733   3.729  1.0470 -1.2907  0.7723
12691SOL     OW38882   2.306   6.737   5.380  0.3442 -0.0366  0.3372
12691SOL    HW138883   2.353   6.760   5.461  0.3019  0.2878  0.2713
12691SOL    HW238884   2.259   6.817   5.357 -0.4833 -0.4447  0.5656
12692SOL     OW38885   2.764   0.057   1.940 -0.0520  0.1195 -0.3405
12692SOL    HW138886   2.751   0.050   1.846 -0.7284  1.8010 -0.4172
12692SOL    HW238887   2.822   0.133   1.951 -1.9994  1.5666  0.6559
12693SOL     OW38888   2.406   5.475   5.029  0.3587  0.0771 -0.3045
12693SOL    HW138889   2.387   5.559   4.988 -0.5306  0.9724  1.8087
12693SOL    HW238890   2.345   5.414   4.988  0.9898  0.4193 -1.8295
12694SOL     OW38891   2.030   1.584   6.172 -0.1627  0.5127  0.0882
12694SOL    HW138892   1.966   1.589   6.101 -0.0381  2.3470  0.0632
12694SOL    HW238893   2.096   1.650   6.149  0.6314  0.1211  1.1818
12695SOL     OW38894   3.434   4.490   3.693 -0.6371  0.0081 -0.1240
12695SOL    HW138895   3.479   4.457   3.616 -3.8343 -1.2389 -1.6493
12695SOL    HW238896   3.467   4.437   3.765 -0.3551 -1.4895 -1.3143
12696SOL     OW38897   0.405   7.576   6.035  0.5455  0.5837  0.4734
12696SOL    HW138898   0.354   7.520   5.976 -0.5605  1.8150  0.2150
12696SOL    HW238899   0.431   7.518   6.106  0.0525 -0.4213 -0.1436
12697SOL     OW38900   6.463   0.019   4.855 -0.0512  0.2711  0.3292
12697SOL    HW138901   6.446  -0.068   4.819  0.3177 -0.1599  1.1687
12697SOL    HW238902   6.379   0.065   4.848 -0.1244  0.0289 -0.5680
12698SOL     OW38903   4.478   0.274   6.351 -0.3239  0.0635 -0.0000
12698SOL    HW138904   4.391   0.305   6.327 -0.0090 -0.7681 -2.5940
12698SOL    HW238905   4.536   0.349   6.333 -0.4919  0.7329  2.0569
12699SOL     OW38906   2.953   3.891   3.521  0.0270  0.4103 -0.1567
12699SOL    HW138907   3.011   3.890   3.597 -0.0179  1.8218 -0.0793
12699SOL    HW238908   2.872   3.931   3.553 -0.1022  0.7268 -0.8626
12700SOL     OW38909   5.238   6.011   6.793 -0.2761 -0.2209  0.2764
12700SOL    HW138910   5.270   5.930   6.832  0.0604  0.3599  1.2428
12700SOL    HW238911   5.173   5.982   6.729 -0.1465 -1.2499  0.5843
12701SOL     OW38912   6.115   3.135   1.376 -0.3853  0.0491 -0.7817
12701SOL    HW138913   6.154   3.179   1.452 -1.8895  1.2831 -0.6649
12701SOL    HW238914   6.108   3.044   1.403 -0.2016  0.3278  0.2776
12702SOL     OW38915   0.198   0.172   1.282  0.0341 -0.2286  0.3450
12702SOL    HW138916   0.183   0.212   1.196  0.2724  1.7681  1.1902
12702SOL    HW238917   0.129   0.106   1.289 -0.7520  0.4118 -0.8793
12703SOL     OW38918   2.937   6.155   7.981  0.2221  0.2550  0.4521
12703SOL    HW138919   2.970   6.118   7.899 -2.2537  0.2772 -0.6285
12703SOL    HW238920   3.014   6.196   8.021  1.8216 -1.0885 -1.0777
12704SOL     OW38921   2.821   2.590   2.708  0.5789  0.3051  0.1790
12704SOL    HW138922   2.830   2.508   2.660 -0.7454 -0.2226  0.7834
12704SOL    HW238923   2.730   2.615   2.696 -0.5598 -1.0886  4.2025
12705SOL     OW38924   0.237   4.893   6.233  0.4256 -0.2284  0.3337
12705SOL    HW138925   0.195   4.909   6.318 -1.8450 -2.8530 -0.1553
12705SOL    HW238926   0.215   4.970   6.181 -3.5417 -1.1236  0.3245
12706SOL     OW38927   2.550   0.771   3.461  0.2019  0.0258  0.3443
12706SOL    HW138928   2.463   0.797   3.430  0.7650  1.5333 -0.0968
12706SOL    HW238929   2.594   0.854   3.478  1.1856 -0.7267  1.6569
12707SOL     OW38930   5.317   1.302   5.800  0.0678 -0.2558  0.4307
12707SOL    HW138931   5.340   1.284   5.891 -0.1871  0.4108  0.6321
12707SOL    HW238932   5.398   1.287   5.752  0.3149 -0.1911  0.8228
12708SOL     OW38933   0.146   5.337   0.008 -0.6319  0.4511 -0.4601
12708SOL    HW138934   0.108   5.255   0.039 -0.5714 -0.0476 -1.6626
12708SOL    HW238935   0.158   5.389   0.088  2.2677 -1.8612  0.8184
12709SOL     OW38936   3.645   0.540   2.607 -0.0478  0.6590 -0.5212
12709SOL    HW138937   3.613   0.569   2.692 -0.9614  0.2509 -0.7063
12709SOL    HW238938   3.682   0.618   2.566  0.3260  0.8720  0.2115
12710SOL     OW38939   5.492   7.284   5.035  0.2231 -0.3318 -0.0593
12710SOL    HW138940   5.456   7.341   5.103  1.7897 -0.6170  1.0556
12710SOL    HW238941   5.486   7.196   5.072  0.7379 -0.5351 -0.4462
12711SOL     OW38942   7.507   2.680   1.035  1.0469  0.1228  0.4878
12711SOL    HW138943   7.560   2.760   1.040  0.5372  0.4170  1.5680
12711SOL    HW238944   7.531   2.630   1.113 -0.3514  0.3442  1.0897
12712SOL     OW38945   2.282   2.042   3.831 -0.3527 -0.2148  0.0857
12712SOL    HW138946   2.308   2.045   3.739 -0.0112 -0.6053  0.1658
12712SOL    HW238947   2.263   2.133   3.853 -3.1377 -0.4047 -1.1246
12713SOL     OW38948   2.762   0.645   1.900  0.0577  0.1827  0.4268
12713SOL    HW138949   2.847   0.603   1.900 -0.0825 -0.2057 -1.4364
12713SOL    HW238950   2.741   0.656   1.807 -0.7573  2.6526  0.8110
12714SOL     OW38951   6.876   6.172   3.739  0.0358 -0.0513  0.3590
12714SOL    HW138952   6.965   6.184   3.772 -0.6322  0.1888  2.2083
12714SOL    HW238953   6.836   6.258   3.747 -0.2155 -0.0288 -0.9959
12715SOL     OW38954   4.345   6.916   4.718 -0.3529 -0.3568  0.2730
12715SOL    HW138955   4.335   6.927   4.812  3.1750 -0.0717  0.7749
12715SOL    HW238956   4.338   7.004   4.682  0.5662 -0.1147  0.6384
12716SOL     OW38957   0.625   7.383   5.439  0.3494 -0.0584  0.4317
12716SOL    HW138958   0.607   7.298   5.478  0.6731  0.1568  1.0767
12716SOL    HW238959   0.641   7.440   5.515  1.0891  0.3520 -0.0248
12717SOL     OW38960   7.960   0.309   6.675  0.2702  0.6286 -0.1458
12717SOL    HW138961   8.015   0.230   6.674  0.6134  0.8646 -0.3492
12717SOL    HW238962   7.964   0.341   6.584 -1.4220 -0.1792 -0.5358
12718SOL     OW38963   4.030   4.085   2.593 -0.5637 -0.0319 -0.2088
12718SOL    HW138964   3.964   4.113   2.657 -0.6023 -1.1407  0.2442
12718SOL    HW238965   4.106   4.061   2.645 -0.7279 -1.3166 -0.5390
12719SOL     OW38966   1.040   6.021   1.477  0.0806 -0.0453 -0.0351
12719SOL    HW138967   1.068   5.980   1.559 -2.7715 -3.2233 -0.4044
12719SOL    HW238968   0.969   6.080   1.503 -0.6316 -0.8375 -0.1396
12720SOL     OW38969   4.995   4.114   6.273  0.1015 -0.3913  0.0908
12720SOL    HW138970   4.935   4.053   6.230 -0.1544  0.3274 -0.5960
12720SOL    HW238971   4.938   4.179   6.314  0.3979  0.7001 -1.1732
12721SOL     OW38972   5.289   4.549   7.850  0.6550  0.1701 -1.0203
12721SOL    HW138973   5.316   4.632   7.889 -2.0150  0.2394  0.9414
12721SOL    HW238974   5.262   4.572   7.761 -0.6928  1.6149 -0.2930
12722SOL     OW38975   4.615   2.462   5.001 -0.1997  0.0840 -0.5216
12722SOL    HW138976   4.633   2.483   4.909  0.2795 -1.4056 -0.7982
12722SOL    HW238977   4.608   2.366   5.003  0.7580  0.0084  1.1561
12723SOL     OW38978   6.007   3.110   3.905  0.3719 -0.5154  0.6808
12723SOL    HW138979   5.967   3.124   3.991 -1.2645 -0.4451 -0.0624
12723SOL    HW238980   6.029   3.197   3.874 -1.0400 -0.3208  0.1364
12724SOL     OW38981   1.153   5.954   3.717  0.3282  0.1398 -0.0914
12724SOL    HW138982   1.244   5.924   3.714  0.4643  0.5589 -0.2425
12724SOL    HW238983   1.133   5.980   3.626  0.3850  0.9974  0.1303
12725SOL     OW38984   5.776   0.661   1.880  0.2782 -0.0408  0.5027
12725SOL    HW138985   5.691   0.621   1.899 -0.4083  1.7553  1.4995
12725SOL    HW238986   5.760   0.755   1.890  1.9200  0.4672 -1.2577
12726SOL     OW38987   5.286   0.398   7.971 -0.9753  0.5253 -0.4386
12726SOL    HW138988   5.265   0.317   7.925 -2.5150 -0.7222  2.2519
12726SOL    HW238989   5.365   0.378   8.022 -0.8692  1.0056 -0.4022
12727SOL     OW38990   1.172   6.705   6.726 -0.0097 -0.3117 -0.0147
12727SOL    HW138991   1.188   6.799   6.727 -0.3742 -0.2486  0.8702
12727SOL    HW238992   1.101   6.694   6.663  0.0373 -0.0000 -0.1269
12728SOL     OW38993   6.813   6.594   3.711 -0.3336  0.0661  0.3066
12728SOL    HW138994   6.765   6.520   3.748 -0.3208 -0.0673  0.0512
12728SOL    HW238995   6.753   6.633   3.648 -1.9954  2.7158  3.2028
12729SOL     OW38996   6.480   3.522   7.642 -0.3213  0.4361  0.2531
12729SOL    HW138997   6.516   3.465   7.574 -2.8310 -1.7088  0.5587
12729SOL    HW238998   6.418   3.578   7.596 -0.6174  0.2977  0.4778
12730SOL     OW38999   4.649   3.089   5.125  0.8202 -0.1210  0.3622
12730SOL    HW139000   4.682   3.172   5.158 -0.5164  0.7340 -0.3494
12730SOL    HW239001   4.727   3.035   5.110  1.8388  1.5774 -0.7037
12731SOL     OW39002   6.675   6.176   5.886  0.5660 -0.1323 -0.3410
12731SOL    HW139003   6.687   6.250   5.827  0.5732  1.7029  1.8713
12731SOL    HW239004   6.746   6.116   5.863  1.2298  1.0314 -1.4348
12732SOL     OW39005   3.252   0.698   6.399 -0.3345 -0.0242  0.1099
12732SOL    HW139006   3.198   0.621   6.418  0.2202 -0.3003  0.5804
12732SOL    HW239007   3.318   0.666   6.337  0.5203 -0.1895  1.0823
12733SOL     OW39008   1.932   3.129   7.858  0.0407 -0.0595 -0.1399
12733SOL    HW139009   1.843   3.153   7.832 -0.5029 -1.7051  0.0392
12733SOL    HW239010   1.939   3.036   7.834  2.4808  0.5180 -2.1592
12734SOL     OW39011   6.483   5.191   4.504  0.2169  0.6356 -0.7737
12734SOL    HW139012   6.389   5.173   4.506  0.3386 -0.4370 -2.4664
12734SOL    HW239013   6.502   5.231   4.588 -1.5636 -0.1276  0.0375
12735SOL     OW39014   3.119   7.976   5.230  0.3184  0.0762  0.3910
12735SOL    HW139015   3.110   8.009   5.320 -0.7628  0.5753  0.1145
12735SOL    HW239016   3.212   7.955   5.222  0.3727 -0.3258  1.7465
12736SOL     OW39017   6.638   3.799   1.691 -0.7561  0.3720 -0.5591
12736SOL    HW139018   6.625   3.752   1.610 -0.0951 -1.7699  0.5008
12736SOL    HW239019   6.673   3.734   1.752 -0.4367  2.0771  1.2141
12737SOL     OW39020   2.046   1.553   1.516  0.6823 -0.4876 -0.0142
12737SOL    HW139021   2.085   1.474   1.553  0.2521  0.0230  1.5752
12737SOL    HW239022   2.104   1.575   1.443  2.4250 -0.7006  1.2398
12738SOL     OW39023   1.949   4.102   4.323  0.1326 -0.5206  0.1967
12738SOL    HW139024   2.016   4.156   4.364  0.9817 -1.4633  0.0569
12738SOL    HW239025   1.882   4.091   4.391 -1.4538  2.9383 -0.5424
12739SOL     OW39026   0.056   6.689   2.422  0.2238  0.1363 -0.2011
12739SOL    HW139027   0.115   6.721   2.490 -1.4335  2.4357  0.2455
12739SOL    HW239028   0.091   6.726   2.341  0.8015 -0.6089 -0.3089
12740SOL     OW39029   7.673   1.390   4.397 -0.4395  0.2350  0.0223
12740SOL    HW139030   7.610   1.458   4.424 -0.7295  0.2827 -0.7687
12740SOL    HW239031   7.651   1.315   4.452 -0.7858  0.4530  0.1916
12741SOL     OW39032   1.653   4.463   1.946  0.4678 -0.1087  0.6351
12741SOL    HW139033   1.578   4.407   1.930  0.8072 -0.7802  1.3213
12741SOL    HW239034   1.616   4.545   1.980  0.0106 -0.1915  0.3280
12742SOL     OW39035   7.769   3.259   6.049 -0.4790 -0.6624  0.7269
12742SOL    HW139036   7.825   3.265   5.971 -0.0518  0.8744  1.1145
12742SOL    HW239037   7.682   3.244   6.014  0.0391 -2.4552  0.0792
12743SOL     OW39038   0.515   4.580   2.629  0.1949 -0.2836 -0.1437
12743SOL    HW139039   0.493   4.525   2.553  0.4860  0.7435 -0.9975
12743SOL    HW239040   0.567   4.652   2.592  1.0686 -0.2107  1.1601
12744SOL     OW39041   7.989   2.066   5.556  0.0429  0.6510  0.0584
12744SOL    HW139042   7.990   1.970   5.558  0.6583  0.6566  0.2913
12744SOL    HW239043   7.996   2.088   5.464  1.4520  0.4640  0.0912
12745SOL     OW39044   1.202   7.519   4.639 -0.9856  0.1050 -0.3101
12745SOL    HW139045   1.166   7.438   4.675 -0.6867  0.1655  0.1378
12745SOL    HW239046   1.288   7.495   4.605 -0.3731  0.4643  0.9198
12746SOL     OW39047   7.788   0.177   7.303 -0.1924 -0.0229 -0.1274
12746SOL    HW139048   7.774   0.165   7.397 -0.0939  0.4649 -0.0481
12746SOL    HW239049   7.701   0.198   7.268  0.1539  2.3521  0.2638
12747SOL     OW39050   3.638   3.159   1.562  0.1276  0.2786  0.3672
12747SOL    HW139051   3.604   3.233   1.612  0.8946 -0.3430  1.8842
12747SOL    HW239052   3.645   3.192   1.473 -1.5440  1.3536  0.5898
12748SOL     OW39053   7.914   0.929   0.124  0.0901  0.4031  0.3303
12748SOL    HW139054   7.894   0.846   0.081  2.4695 -0.6422  1.0707
12748SOL    HW239055   7.844   0.939   0.190 -1.6462  0.3325 -1.4064
12749SOL     OW39056   6.063   0.890   1.396  0.4296 -0.1837 -0.1892
12749SOL    HW139057   6.148   0.876   1.355  0.8974  0.0390  0.6777
12749SOL    HW239058   6.047   0.809   1.446  0.2431 -0.1341 -0.1689
12750SOL     OW39059   3.182   0.436   2.895 -0.4696 -0.5118 -0.6011
12750SOL    HW139060   3.112   0.493   2.927 -0.4877 -1.0325  0.3299
12750SOL    HW239061   3.160   0.350   2.930 -0.0362 -0.9382 -1.3616
12751SOL     OW39062   1.660   1.451   1.355  0.0087  0.1586 -0.0443
12751SOL    HW139063   1.695   1.368   1.387 -0.9827 -0.4932 -0.5781
12751SOL    HW239064   1.575   1.460   1.400 -0.4119  0.3036 -0.8583
12752SOL     OW39065   4.912   3.763   6.650  0.5000  0.4273  0.2508
12752SOL    HW139066   4.926   3.768   6.555  1.7431  1.6508  0.4658
12752SOL    HW239067   4.989   3.716   6.683  0.4162  0.6128  0.7171
12753SOL     OW39068   2.609   2.842   3.499  0.0642  0.5893  0.6713
12753SOL    HW139069   2.700   2.831   3.528  0.7371  0.7750 -1.2751
12753SOL    HW239070   2.605   2.798   3.414 -1.4738  1.2500  0.3653
12754SOL     OW39071   6.151   7.328   3.497 -0.0363 -0.1069  0.0939
12754SOL    HW139072   6.138   7.239   3.530 -2.3973 -0.3119 -1.1157
12754SOL    HW239073   6.224   7.362   3.548  0.2052 -2.3342  1.3954
12755SOL     OW39074   6.053   0.435   5.088  0.1402  0.0793  0.6797
12755SOL    HW139075   6.076   0.342   5.091  0.4959  0.1322 -0.2423
12755SOL    HW239076   6.134   0.481   5.110  0.1464  0.1904  0.4252
12756SOL     OW39077   2.297   4.969   3.411  0.0477  0.1369 -0.2924
12756SOL    HW139078   2.371   5.028   3.400  1.1877 -1.3526 -1.0547
12756SOL    HW239079   2.227   5.023   3.447  1.3421  1.6996 -0.0544
12757SOL     OW39080   1.382   4.451   6.055  0.0931  0.1225  0.0488
12757SOL    HW139081   1.314   4.514   6.031 -0.1890  0.6785  2.1482
12757SOL    HW239082   1.337   4.388   6.111  0.7336 -1.0838 -0.7475
12758SOL     OW39083   2.135   1.826   3.946  0.2965 -0.2681  0.5172
12758SOL    HW139084   2.193   1.882   3.894  2.1821  0.5266  3.1921
12758SOL    HW239085   2.195   1.776   4.002 -1.5237 -1.9455  1.0514
12759SOL     OW39086   1.938   5.546   0.645  0.3779  0.5707 -0.3650
12759SOL    HW139087   1.858   5.496   0.628  1.1230 -0.4644 -0.9653
12759SOL    HW239088   1.974   5.565   0.559  1.5786 -0.3527 -0.0971
12760SOL     OW39089   6.276   6.526   6.907  0.0170 -0.1136 -0.1940
12760SOL    HW139090   6.222   6.602   6.928 -0.8785 -0.3179 -1.5969
12760SOL    HW239091   6.343   6.559   6.847  0.5770 -0.1525  0.3927
12761SOL     OW39092   1.941   7.065   5.249  0.1361  0.4215  0.1425
12761SOL    HW139093   2.016   7.009   5.228  0.2179  0.7000 -0.3409
12761SOL    HW239094   1.865   7.008   5.239  0.2136  0.4056 -0.4186
12762SOL     OW39095   7.034   5.259   2.601 -0.2522 -0.3173 -0.4115
12762SOL    HW139096   6.956   5.301   2.565 -0.3298 -1.2780 -1.3924
12762SOL    HW239097   7.105   5.319   2.579 -0.7379  0.7583  0.8312
12763SOL     OW39098   7.479   2.373   6.070 -0.1080 -0.6771 -0.2342
12763SOL    HW139099   7.444   2.409   6.151 -2.9996  1.1919 -2.1469
12763SOL    HW239100   7.561   2.421   6.056 -0.8750  0.8521  0.3063
12764SOL     OW39101   5.780   5.541   7.339  0.1980  0.1812 -0.4711
12764SOL    HW139102   5.781   5.633   7.367 -0.4480 -0.3579  1.4850
12764SOL    HW239103   5.859   5.504   7.378  0.7889  0.0101 -1.7770
12765SOL     OW39104   6.007   0.733   5.676  0.3884  0.5118  1.1727
12765SOL    HW139105   6.066   0.727   5.601  0.8301  2.4443  1.3243
12765SOL    HW239106   5.956   0.652   5.673  1.3917 -0.1002 -0.3572
12766SOL     OW39107   5.273   7.365   7.952  0.6672 -0.0140 -0.3924
12766SOL    HW139108   5.343   7.376   8.016  2.8462  0.3040 -2.6849
12766SOL    HW239109   5.204   7.426   7.981  2.1629  1.1528  0.8719
12767SOL     OW39110   2.527   1.127   7.450  0.8626 -0.0144  0.1166
12767SOL    HW139111   2.462   1.111   7.381 -0.0981 -0.1144  1.0142
12767SOL    HW239112   2.580   1.200   7.417 -1.6483  2.2270  0.5872
12768SOL     OW39113   6.532   2.356   5.736  0.2435  0.1817 -0.3253
12768SOL    HW139114   6.559   2.402   5.815 -0.6010  1.5750 -0.8115
12768SOL    HW239115   6.439   2.378   5.726 -0.1062 -1.3773 -0.7769
12769SOL     OW39116   7.625   2.896   6.031  0.4878  0.1768 -0.5750
12769SOL    HW139117   7.579   2.977   6.052 -1.3232 -1.0822  0.7162
12769SOL    HW239118   7.693   2.889   6.098 -0.3941 -0.1003  0.3302
12770SOL     OW39119   0.717   1.946   1.740 -0.1646  0.4713  0.3980
12770SOL    HW139120   0.758   1.904   1.664 -2.1406  1.3019 -1.1909
12770SOL    HW239121   0.754   2.034   1.742 -0.1680  0.4731  0.3665
12771SOL     OW39122   2.740   7.606   2.943 -0.3434  0.3106 -0.2658
12771SOL    HW139123   2.807   7.671   2.961 -0.1146  0.2311 -0.8054
12771SOL    HW239124   2.758   7.536   3.006 -0.9298  0.9959  0.6864
12772SOL     OW39125   3.642   5.123   2.098 -0.2678 -0.6219 -0.2721
12772SOL    HW139126   3.660   5.119   2.192  1.2036  0.2129 -0.4858
12772SOL    HW239127   3.724   5.154   2.059 -1.8900  2.7412 -1.4542
12773SOL     OW39128   6.561   4.540   1.971 -0.1044 -0.1057  0.0446
12773SOL    HW139129   6.636   4.593   1.997  0.9508 -1.8005  0.6342
12773SOL    HW239130   6.509   4.531   2.051 -0.5217  0.3742 -0.1638
12774SOL     OW39131   7.528   5.024   1.103 -0.4731  0.1540  0.1577
12774SOL    HW139132   7.478   4.951   1.141 -1.4879  0.9101  0.3316
12774SOL    HW239133   7.466   5.098   1.103  0.9425  1.4045  1.2752
12775SOL     OW39134   4.517   1.805   1.486 -0.0408 -0.3524  0.6007
12775SOL    HW139135   4.564   1.887   1.499  0.7903 -0.6802 -0.1836
12775SOL    HW239136   4.433   1.818   1.530  0.4674  0.5412  1.3463
12776SOL     OW39137   6.803   6.214   0.574 -0.0429 -0.3653 -0.2208
12776SOL    HW139138   6.836   6.266   0.501 -0.2600  1.7007  1.0644
12776SOL    HW239139   6.746   6.275   0.622  0.7697 -1.3743  2.1359
12777SOL     OW39140   0.745   7.388   7.195 -0.2513  0.6651  0.1631
12777SOL    HW139141   0.734   7.461   7.134 -1.2864  0.6852  0.3455
12777SOL    HW239142   0.715   7.423   7.279  0.6028  0.4578  0.5611
12778SOL     OW39143   7.342   1.067   1.695 -1.0319  0.0745  0.8302
12778SOL    HW139144   7.361   1.142   1.751 -3.2646  0.3568  1.2933
12778SOL    HW239145   7.254   1.084   1.661 -0.1671 -0.5866 -1.9834
12779SOL     OW39146   0.022   1.015   0.778 -0.5691  0.5490  0.1361
12779SOL    HW139147  -0.039   1.064   0.833 -1.3495 -0.2380 -0.0070
12779SOL    HW239148   0.097   1.074   0.766 -0.9683  1.2321  0.9427
12780SOL     OW39149   6.713   5.323   2.813  0.2302 -0.4298 -0.4815
12780SOL    HW139150   6.785   5.386   2.810  1.2206 -1.5013  0.0526
12780SOL    HW239151   6.754   5.241   2.843 -1.8000 -0.2102  3.5344
12781SOL     OW39152   2.039   6.925   6.077 -0.0859 -0.6793 -0.6513
12781SOL    HW139153   2.046   6.901   6.170  0.2278 -0.9525 -0.7425
12781SOL    HW239154   2.072   7.015   6.074 -1.8369  0.0109 -0.2125
12782SOL     OW39155   7.970   5.116   6.192  0.2050  0.3728  0.5625
12782SOL    HW139156   8.066   5.116   6.196  0.2710  1.9077 -0.0539
12782SOL    HW239157   7.945   5.199   6.234 -0.9052 -0.3436  1.3544
12783SOL     OW39158   3.811   5.807   4.185 -0.4420  0.1922 -0.2505
12783SOL    HW139159   3.803   5.719   4.147  0.0868  0.7336 -1.6936
12783SOL    HW239160   3.899   5.808   4.223 -0.1024  0.3626 -1.0133
12784SOL     OW39161   4.490   3.753   2.208  0.5565  0.5436  0.3713
12784SOL    HW139162   4.398   3.726   2.209  0.8169 -0.3530  0.6202
12784SOL    HW239163   4.506   3.779   2.117  0.3487 -0.3403  0.0749
12785SOL     OW39164   1.766   2.549   1.549 -0.5426 -0.6705  0.1141
12785SOL    HW139165   1.805   2.495   1.618 -0.3148 -0.2441  0.3184
12785SOL    HW239166   1.835   2.609   1.523 -0.5585 -0.9638 -0.6396
12786SOL     OW39167   3.782   1.496   0.538  0.0591 -0.2441  0.0970
12786SOL    HW139168   3.831   1.493   0.456 -2.0402  1.4316 -1.3186
12786SOL    HW239169   3.831   1.557   0.593 -0.2333  1.1712 -1.1657
12787SOL     OW39170   2.880   2.255   1.415  0.2868 -0.1447 -0.6131
12787SOL    HW139171   2.854   2.209   1.335 -0.9076  2.0169 -1.5464
12787SOL    HW239172   2.798   2.268   1.462  0.4796  1.5921 -0.7149
12788SOL     OW39173   6.468   1.190   0.749 -0.4661 -0.3281  0.1555
12788SOL    HW139174   6.448   1.267   0.801 -0.9527 -0.0233 -0.4647
12788SOL    HW239175   6.395   1.131   0.763  0.0006 -0.7625  0.7816
12789SOL     OW39176   3.448   0.978   6.985 -0.3682  0.1552 -0.2992
12789SOL    HW139177   3.359   0.946   7.003 -0.6051  0.2921 -1.1573
12789SOL    HW239178   3.436   1.044   6.917  0.4725 -0.3822 -0.9884
12790SOL     OW39179   3.983   6.101   1.925  0.3745  0.2758 -0.2792
12790SOL    HW139180   3.941   6.159   1.862 -0.4765 -0.7125 -0.6475
12790SOL    HW239181   4.010   6.159   1.997  0.1233  1.2047 -0.9228
12791SOL     OW39182   4.981   3.450   2.198  0.3415 -0.1895  0.5760
12791SOL    HW139183   4.952   3.541   2.202 -0.5928 -0.4131 -0.3354
12791SOL    HW239184   5.040   3.447   2.122 -0.4424 -0.5264 -0.0390
12792SOL     OW39185   0.302   5.345   0.519 -0.0641 -0.5102 -0.6581
12792SOL    HW139186   0.318   5.438   0.501 -0.2625 -0.2336  0.5267
12792SOL    HW239187   0.308   5.337   0.614 -0.2546 -1.6775 -0.7247
12793SOL     OW39188   0.264   6.936   6.870 -0.1889  0.3611  0.4401
12793SOL    HW139189   0.211   6.904   6.797  0.2938 -0.3881  0.4090
12793SOL    HW239190   0.210   7.004   6.911 -0.7626  0.2845 -0.1724
12794SOL     OW39191   2.628   6.850   2.415 -0.5207  0.3212  0.0655
12794SOL    HW139192   2.679   6.769   2.410 -0.6750  0.1501  0.9728
12794SOL    HW239193   2.639   6.891   2.330  0.6119 -0.0257  0.0271
12795SOL     OW39194   5.926   2.997   7.993  0.5787 -0.1494  0.4218
12795SOL    HW139195   5.960   2.928   7.938  0.3350  1.0583 -1.3154
12795SOL    HW239196   6.002   3.026   8.044  0.4802 -2.2755  1.9238
12796SOL     OW39197   2.853   0.162   3.735 -0.2838  0.0981  0.1913
12796SOL    HW139198   2.856   0.255   3.710 -0.3609 -0.1386 -0.7250
12796SOL    HW239199   2.759   0.142   3.740 -0.2664 -0.1231 -0.3516
12797SOL     OW39200   2.151   6.649   7.613  0.2613  0.0239  0.2690
12797SOL    HW139201   2.114   6.568   7.578  0.1572  0.3506 -0.3918
12797SOL    HW239202   2.099   6.667   7.692 -0.9961  0.4563 -0.6193
12798SOL     OW39203   5.354   6.715   4.479 -0.4074 -0.0253  0.5219
12798SOL    HW139204   5.392   6.657   4.545 -3.0013 -0.9762  1.3314
12798SOL    HW239205   5.399   6.798   4.491  0.8387 -0.8359  1.8537
12799SOL     OW39206   2.329   0.478   6.193  0.1003  0.1767  0.6398
12799SOL    HW139207   2.347   0.490   6.286 -1.1692 -0.0408  0.9353
12799SOL    HW239208   2.409   0.441   6.157  0.9618  1.2016  1.4422
12800SOL     OW39209   4.175   1.761   7.136  0.5508  0.1882 -0.3419
12800SOL    HW139210   4.235   1.686   7.128  0.6854  0.1577  0.7220
12800SOL    HW239211   4.092   1.722   7.165 -0.2911  0.1265 -2.6380
12801SOL     OW39212   5.805   1.866   4.551 -0.2585 -0.5821  0.2360
12801SOL    HW139213   5.828   1.829   4.466  0.6562 -1.0323  0.6589
12801SOL    HW239214   5.714   1.839   4.566 -0.8754  0.6306 -1.1775
12802SOL     OW39215   4.595   6.144   1.587 -0.3199  0.3167 -0.1212
12802SOL    HW139216   4.539   6.075   1.549  0.2903 -0.0426 -0.3913
12802SOL    HW239217   4.542   6.223   1.582 -0.3610  0.2286 -1.5188
12803SOL     OW39218   0.142   6.137   4.238 -0.0885  0.1898  0.6375
12803SOL    HW139219   0.092   6.065   4.275 -1.4254  0.9060  0.2948
12803SOL    HW239220   0.176   6.103   4.155 -0.8305 -0.0154  0.4093
12804SOL     OW39221   3.689   3.566   1.595 -0.0584 -0.1159 -0.3479
12804SOL    HW139222   3.636   3.498   1.636 -2.0456  1.0762 -0.8043
12804SOL    HW239223   3.706   3.629   1.665 -1.4471  0.7512 -0.7581
12805SOL     OW39224   3.951   3.361   7.965  0.4273 -0.0762 -0.3723
12805SOL    HW139225   3.982   3.425   8.029  0.1931  0.4109 -0.7310
12805SOL    HW239226   3.857   3.379   7.957  0.5305  0.1503 -1.1566
12806SOL     OW39227   0.192   2.109   1.744 -0.3198 -0.4976  0.2012
12806SOL    HW139228   0.197   2.152   1.829  1.7095  3.4180 -1.6017
12806SOL    HW239229   0.276   2.066   1.733 -0.3077 -0.4127 -0.0554
12807SOL     OW39230   1.210   7.481   5.103 -0.2604  0.1797 -0.1306
12807SOL    HW139231   1.153   7.557   5.089 -0.2370  0.3339  0.5694
12807SOL    HW239232   1.290   7.519   5.142 -0.3429 -0.2328  0.4434
12808SOL     OW39233   4.342   0.129   7.230 -0.1660  0.4083 -0.1847
12808SOL    HW139234   4.267   0.085   7.272 -0.3267 -0.9030 -1.7660
12808SOL    HW239235   4.397   0.057   7.199  1.5767  1.3630  0.5676
12809SOL     OW39236   4.141   0.672   5.493  0.3188 -0.1811  0.6392
12809SOL    HW139237   4.179   0.756   5.518 -0.6528  0.0311  1.4674
12809SOL    HW239238   4.079   0.692   5.424  0.2602 -0.2484  0.6715
12810SOL     OW39239   5.824   2.262   1.529  0.2711 -0.3713 -0.2200
12810SOL    HW139240   5.843   2.265   1.436 -0.1424 -0.7805 -0.3193
12810SOL    HW239241   5.802   2.171   1.547  0.2889 -0.2869  0.2649
12811SOL     OW39242   4.374   1.203   5.478  0.4304 -0.2348  0.9846
12811SOL    HW139243   4.408   1.234   5.395  0.4597  0.3225  1.2019
12811SOL    HW239244   4.448   1.157   5.518  0.2481 -1.0091  0.4582
12812SOL     OW39245   0.515   6.368   6.021  0.0649  0.0386 -0.1093
12812SOL    HW139246   0.472   6.419   6.089 -1.0128 -0.3452 -0.4936
12812SOL    HW239247   0.533   6.283   6.062 -0.3388 -0.1006 -0.2232
12813SOL     OW39248   0.941   2.946   2.628 -0.3953  0.4818  0.4557
12813SOL    HW139249   1.035   2.932   2.618 -0.2726  1.3072  0.4054
12813SOL    HW239250   0.902   2.891   2.560 -0.0936 -1.5995  1.8710
12814SOL     OW39251   4.707   2.671   3.367  0.3191 -0.3047 -0.1434
12814SOL    HW139252   4.742   2.727   3.298 -0.1323  0.8283  0.5316
12814SOL    HW239253   4.679   2.731   3.435 -1.8923 -1.2210 -0.1615
12815SOL     OW39254   6.552   6.858   1.974 -0.3547 -0.0564  0.1966
12815SOL    HW139255   6.542   6.767   2.003  0.7087  0.2414  1.5856
12815SOL    HW239256   6.474   6.902   2.008 -0.6674 -0.3503 -0.1253
12816SOL     OW39257   7.803   4.097   7.781  0.3120  0.0010 -0.9631
12816SOL    HW139258   7.709   4.110   7.765  0.4450  1.4398 -0.6983
12816SOL    HW239259   7.806   4.037   7.855 -0.4227  0.3924 -0.6001
12817SOL     OW39260   3.219   5.483   4.907 -0.1142 -0.1588 -0.0513
12817SOL    HW139261   3.264   5.466   4.824  1.4181  0.7853  0.5339
12817SOL    HW239262   3.260   5.563   4.940 -2.4328  0.8904  0.4529
12818SOL     OW39263   7.924   7.794   3.784  0.2459  0.3715  0.2349
12818SOL    HW139264   7.899   7.715   3.833  2.1552  0.5858  1.6598
12818SOL    HW239265   7.873   7.789   3.703  1.4605 -3.1690 -0.4876
12819SOL     OW39266   2.485   4.940   6.704 -0.3106 -0.3937 -0.2597
12819SOL    HW139267   2.505   4.866   6.646  0.8495 -0.1335 -0.2192
12819SOL    HW239268   2.509   4.909   6.791 -0.9608 -0.3797 -0.0703
12820SOL     OW39269   2.820   5.830   7.511  0.0611  0.2014  0.0755
12820SOL    HW139270   2.845   5.878   7.590  0.0959  1.8413 -0.8825
12820SOL    HW239271   2.780   5.896   7.454  0.4923 -0.8155 -1.4812
12821SOL     OW39272   1.577   7.624   3.885 -0.5577  0.1346  0.6979
12821SOL    HW139273   1.578   7.670   3.969  0.4254  0.1919  0.6732
12821SOL    HW239274   1.600   7.691   3.821  2.1879 -0.5634  0.7998
12822SOL     OW39275   4.192   1.036   1.536  0.2088  0.2398  0.3951
12822SOL    HW139276   4.107   1.072   1.561  0.6211  1.0145  0.7068
12822SOL    HW239277   4.180   1.010   1.444 -0.4454  0.0838  0.5206
12823SOL     OW39278   0.266   7.753   6.656 -0.6055  0.1143  0.5166
12823SOL    HW139279   0.305   7.836   6.629 -0.5028 -0.2637 -0.5427
12823SOL    HW239280   0.342   7.696   6.673 -0.6194 -0.7578 -1.9706
12824SOL     OW39281   1.308   0.502   1.001  0.1462  0.2170  0.7851
12824SOL    HW139282   1.319   0.436   0.933  0.3832  0.9721  0.0639
12824SOL    HW239283   1.228   0.476   1.047 -0.7848  0.4071 -0.6419
12825SOL     OW39284   4.466   3.764   0.471  0.3148  0.1603  0.1717
12825SOL    HW139285   4.488   3.674   0.493 -0.0912  0.0859  0.2843
12825SOL    HW239286   4.483   3.771   0.377 -0.1264 -0.1815  0.0588
12826SOL     OW39287   6.780   2.865   1.581  0.2272  0.0525  0.2357
12826SOL    HW139288   6.706   2.837   1.636  0.6091  1.3968  1.4884
12826SOL    HW239289   6.852   2.809   1.609  0.1396 -0.0453  0.2701
12827SOL     OW39290   6.285   3.059   4.353  0.0770 -0.4798  0.3915
12827SOL    HW139291   6.342   3.069   4.429 -0.1776  0.3678  0.4891
12827SOL    HW239292   6.337   3.091   4.280 -0.7612  1.7768  0.7094
12828SOL     OW39293   1.225   5.590   0.469  1.0052  0.0604  0.0251
12828SOL    HW139294   1.210   5.684   0.456  0.7864 -0.1040 -1.0286
12828SOL    HW239295   1.175   5.568   0.547 -0.7325  0.4098 -0.9346
12829SOL     OW39296   2.530   6.870   0.721  0.2646  0.5439  0.0966
12829SOL    HW139297   2.594   6.831   0.781  1.3872 -0.8664 -1.8904
12829SOL    HW239298   2.468   6.800   0.703 -2.4166  2.0732  2.4967
12830SOL     OW39299   6.965   4.917   2.813  0.3454  0.2373 -0.0972
12830SOL    HW139300   6.965   4.897   2.720 -0.5694  2.1489 -0.5690
12830SOL    HW239301   6.981   4.833   2.856 -2.1127 -1.2822 -1.8641
12831SOL     OW39302   7.226   3.919   1.623 -0.0214  0.2360 -0.0060
12831SOL    HW139303   7.229   3.939   1.529  0.3501 -2.7225 -0.7314
12831SOL    HW239304   7.133   3.922   1.645 -0.2014  0.0807 -0.7042
12832SOL     OW39305   4.203   0.929   6.086  0.0132 -0.0325  0.2631
12832SOL    HW139306   4.149   0.933   6.007  0.1538  1.2575  0.1987
12832SOL    HW239307   4.146   0.962   6.156  0.3291  0.1785  0.4258
12833SOL     OW39308   6.707   4.995   0.272  0.6206 -0.1172  0.2842
12833SOL    HW139309   6.788   4.947   0.256  1.0240 -0.0713  2.0230
12833SOL    HW239310   6.719   5.078   0.226  1.9920  0.2950  1.3303
12834SOL     OW39311   2.888   6.369   2.003  0.0939  0.1362  0.4321
12834SOL    HW139312   2.946   6.313   1.952 -0.7185  0.6168 -1.0909
12834SOL    HW239313   2.858   6.315   2.076  0.1344 -1.0637 -0.4300
12835SOL     OW39314   1.808   6.959   5.517 -0.4955  0.0581  0.3355
12835SOL    HW139315   1.771   7.009   5.590  1.4152  0.6266  0.9818
12835SOL    HW239316   1.902   6.957   5.535 -0.2257 -1.6708 -0.9894
12836SOL     OW39317   7.085   0.229   4.576 -1.1253 -0.1546  0.2653
12836SOL    HW139318   7.154   0.166   4.596 -1.2493 -0.1365  0.7749
12836SOL    HW239319   7.065   0.270   4.661 -0.1756  1.4676 -0.2345
12837SOL     OW39320   4.487   1.189   0.673 -0.6997 -0.2114 -0.5455
12837SOL    HW139321   4.472   1.162   0.583 -1.8351 -1.1235 -0.1173
12837SOL    HW239322   4.539   1.269   0.667 -2.0437  0.6053 -2.0665
12838SOL     OW39323   7.345   6.345   3.038 -0.1233 -0.0285  0.2962
12838SOL    HW139324   7.400   6.420   3.060  0.1194 -0.2510  0.4580
12838SOL    HW239325   7.406   6.281   3.001 -0.4674  0.2149 -0.7387
12839SOL     OW39326   1.869   5.329   2.398 -0.1022  0.2417 -0.4144
12839SOL    HW139327   1.951   5.327   2.350 -0.5405 -3.1292 -1.2938
12839SOL    HW239328   1.895   5.327   2.490  0.7682  0.3758 -0.6470
12840SOL     OW39329   7.652   4.633   2.890 -0.2120 -0.8263  0.0138
12840SOL    HW139330   7.627   4.670   2.975  1.0953  0.6841 -0.2206
12840SOL    HW239331   7.735   4.675   2.868  0.4105 -2.5479 -1.1845
12841SOL     OW39332   5.665   4.480   7.994 -0.2891 -0.6967  0.1411
12841SOL    HW139333   5.591   4.441   8.041 -0.0132 -0.1768  1.0187
12841SOL    HW239334   5.742   4.447   8.039 -0.0169 -0.2102  0.0275
12842SOL     OW39335   3.199   4.150   4.795  0.1489  0.3655  0.3965
12842SOL    HW139336   3.119   4.127   4.749 -0.7868 -0.4831  2.3326
12842SOL    HW239337   3.269   4.132   4.732 -1.0143 -1.4501 -0.4563
12843SOL     OW39338   3.529   4.890   6.361  0.7718 -0.8919 -0.4577
12843SOL    HW139339   3.449   4.923   6.401  1.4897  0.0320  0.2578
12843SOL    HW239340   3.597   4.950   6.390  2.0458 -2.6900  0.4334
12844SOL     OW39341   7.378   2.400   2.946  0.0785 -0.0049 -0.3972
12844SOL    HW139342   7.322   2.475   2.930  0.8529  0.5212 -0.7073
12844SOL    HW239343   7.327   2.344   3.005 -0.4288  0.8567  0.0066
12845SOL     OW39344   4.037   5.137   6.891  0.0189 -0.3766  0.3267
12845SOL    HW139345   4.112   5.176   6.935  0.6870  0.4640 -1.4515
12845SOL    HW239346   3.967   5.138   6.957  1.3229 -0.4439  1.7607
12846SOL     OW39347   7.139   3.782   2.178  0.4873 -0.2980  0.0512
12846SOL    HW139348   7.067   3.763   2.237  0.5665  0.6995  0.4885
12846SOL    HW239349   7.149   3.703   2.126 -2.8215  0.4884 -2.0568
12847SOL     OW39350   7.106   3.890   5.944  0.1294  0.0371  0.0140
12847SOL    HW139351   7.076   3.878   5.854 -0.7414 -2.4301  0.5425
12847SOL    HW239352   7.194   3.853   5.946  0.5081  0.9086  0.0102
12848SOL     OW39353   4.316   4.069   2.295 -0.2521  0.2880  0.0609
12848SOL    HW139354   4.394   4.033   2.337 -1.2707 -1.9588  0.1505
12848SOL    HW239355   4.333   4.163   2.290  2.1817 -0.0597  0.6200
12849SOL     OW39356   5.350   3.783   1.664 -0.1867  0.0328  0.2429
12849SOL    HW139357   5.438   3.749   1.647 -0.5173 -1.5238  1.4718
12849SOL    HW239358   5.334   3.766   1.757 -1.2333  1.6547  0.4108
12850SOL     OW39359   6.258   4.358   1.532 -0.7230 -0.2179  0.0753
12850SOL    HW139360   6.319   4.411   1.584 -0.3496 -1.5237  1.0298
12850SOL    HW239361   6.185   4.418   1.514  0.1934  0.9593  0.1084
12851SOL     OW39362   2.685   6.969   7.983  0.4802 -0.4659  0.1078
12851SOL    HW139363   2.613   6.907   7.974  0.9865 -1.2840  1.3954
12851SOL    HW239364   2.653   7.036   8.043 -0.4678  1.2181 -2.1329
12852SOL     OW39365   4.131   4.859   2.646 -0.5563 -0.4252 -0.3785
12852SOL    HW139366   4.188   4.859   2.722 -1.2410  0.6404  0.1658
12852SOL    HW239367   4.168   4.793   2.587 -0.0652 -1.3190  0.8980
12853SOL     OW39368   7.249   3.516   1.797  0.0615  0.2212  0.2259
12853SOL    HW139369   7.339   3.540   1.774  0.4780 -1.7969 -0.4400
12853SOL    HW239370   7.242   3.533   1.891  0.8125  1.3253  0.0946
12854SOL     OW39371   3.600   1.765   1.745 -0.4740  0.3798  0.8218
12854SOL    HW139372   3.580   1.836   1.805 -1.3014  0.9159 -0.0724
12854SOL    HW239373   3.604   1.806   1.659 -1.3251 -0.7023  0.2402
12855SOL     OW39374   1.683   7.217   5.046  0.0743  0.4293  0.1991
12855SOL    HW139375   1.598   7.259   5.031 -1.2680 -2.6190 -1.7415
12855SOL    HW239376   1.733   7.236   4.967  0.1985  0.0732  0.1913
12856SOL     OW39377   1.373   3.842   4.225 -0.4551 -0.4080  0.2274
12856SOL    HW139378   1.411   3.761   4.258 -0.4220 -0.7868 -0.7156
12856SOL    HW239379   1.374   3.832   4.129  0.0120  0.9117  0.0779
12857SOL     OW39380   6.534   3.684   6.146  0.0008  0.4295 -0.5794
12857SOL    HW139381   6.613   3.637   6.119 -1.4226 -1.3901 -1.7247
12857SOL    HW239382   6.502   3.726   6.066 -0.2491  1.1269 -0.1313
12858SOL     OW39383   4.721   6.157   4.112  0.2218  0.0762  0.1259
12858SOL    HW139384   4.778   6.156   4.035 -0.5610 -0.3403 -0.4552
12858SOL    HW239385   4.653   6.220   4.091  0.1304  0.1316  0.5788
12859SOL     OW39386   4.858   7.082   7.341 -0.7070  0.6447  0.1086
12859SOL    HW139387   4.895   7.034   7.267 -2.0814 -1.0513  0.4657
12859SOL    HW239388   4.935   7.110   7.391  0.2833  2.3199 -2.1658
12860SOL     OW39389   4.160   0.780   2.766  0.6354 -0.3273  0.7837
12860SOL    HW139390   4.159   0.834   2.844  1.3824 -0.9739  1.2604
12860SOL    HW239391   4.094   0.819   2.708  1.3244  1.2218  1.0057
12861SOL     OW39392   4.011   7.860   2.724 -0.3557 -0.1239  0.2046
12861SOL    HW139393   3.928   7.832   2.765 -0.4170 -0.7271 -0.3063
12861SOL    HW239394   4.033   7.942   2.767 -0.6897 -0.4806  1.0771
12862SOL     OW39395   1.823   1.599   1.169  0.4740  0.2949  0.7765
12862SOL    HW139396   1.759   1.572   1.234 -0.3578  1.8022  0.6317
12862SOL    HW239397   1.823   1.528   1.104 -0.8977  0.1564  0.8973
12863SOL     OW39398   0.328   4.250   3.146  0.4169 -0.0578 -0.1415
12863SOL    HW139399   0.323   4.257   3.051  0.5846 -0.9592 -0.2256
12863SOL    HW239400   0.408   4.200   3.162  0.5725  0.3809  0.4887
12864SOL     OW39401   1.282   0.574   5.864  0.5695 -0.2574  0.2013
12864SOL    HW139402   1.266   0.646   5.802 -0.4112 -0.5613  0.0938
12864SOL    HW239403   1.374   0.550   5.849 -0.1784 -1.7449 -2.6678
12865SOL     OW39404   6.752   1.117   1.600 -0.0601 -0.2235 -0.2592
12865SOL    HW139405   6.787   1.098   1.688 -0.8834 -0.4566  0.0292
12865SOL    HW239406   6.696   1.193   1.613  1.1473  0.8160 -0.9193
12866SOL     OW39407   5.403   6.259   0.350 -0.1430  0.4178 -0.3044
12866SOL    HW139408   5.330   6.237   0.293 -1.1419 -0.4622  1.2355
12866SOL    HW239409   5.481   6.240   0.298 -1.0094 -0.3894 -1.3499
12867SOL     OW39410   6.335   3.548   5.698 -0.2764  0.3741 -0.0488
12867SOL    HW139411   6.309   3.640   5.696 -0.4455  0.5353  3.3468
12867SOL    HW239412   6.270   3.503   5.643  0.6472  2.3227 -2.9584
12868SOL     OW39413   5.567   3.414   2.113 -0.3947 -0.2260  0.5849
12868SOL    HW139414   5.502   3.344   2.103  0.3616 -0.8509 -0.1096
12868SOL    HW239415   5.608   3.397   2.198 -1.9758  0.9158  1.6257
12869SOL     OW39416   7.171   5.913   6.778 -0.5163  0.2753  0.0367
12869SOL    HW139417   7.252   5.874   6.810 -1.1395 -0.8206  0.3344
12869SOL    HW239418   7.119   5.926   6.857 -1.6158 -1.3816 -0.3690
12870SOL     OW39419   5.663   4.890   4.626  0.1428 -0.4273 -0.0069
12870SOL    HW139420   5.606   4.965   4.608 -0.9017 -0.7580  1.6708
12870SOL    HW239421   5.645   4.868   4.717  1.0245 -2.2268 -0.2225
12871SOL     OW39422   3.156   3.330   2.543 -0.4608 -0.2376 -0.1613
12871SOL    HW139423   3.145   3.301   2.633  1.8188 -0.7058  0.0229
12871SOL    HW239424   3.117   3.260   2.490 -0.1647 -0.8458  0.4162
12872SOL     OW39425   6.904   5.868   7.831  0.4550  0.7020 -0.0647
12872SOL    HW139426   6.944   5.950   7.857  2.1275 -0.4768  1.2631
12872SOL    HW239427   6.907   5.813   7.909  0.3619 -1.0022 -1.1949
12873SOL     OW39428   5.470   7.667   2.792  0.2137 -0.4743  0.1797
12873SOL    HW139429   5.521   7.631   2.863  2.5064 -0.1952 -1.2350
12873SOL    HW239430   5.462   7.596   2.729 -0.5104 -0.2877  0.0478
12874SOL     OW39431   4.633   2.080   2.550 -0.1927 -0.1108  0.2265
12874SOL    HW139432   4.568   2.129   2.502  0.4815 -0.8292 -1.4880
12874SOL    HW239433   4.676   2.024   2.485  1.8498  0.0271  1.3429
12875SOL     OW39434   5.949   0.682   7.438 -0.0902  0.0205 -0.3361
12875SOL    HW139435   5.970   0.640   7.522  1.8869  0.2816 -0.6479
12875SOL    HW239436   6.032   0.683   7.391 -0.6916  1.8284 -1.4346
12876SOL     OW39437   3.663   5.159   4.447 -0.2612  0.4301 -0.0971
12876SOL    HW139438   3.630   5.087   4.393 -0.6636  0.6682 -0.1683
12876SOL    HW239439   3.718   5.210   4.388  0.2985 -0.0023  0.0382
12877SOL     OW39440   6.190   5.057   6.227  0.1835 -0.2490 -0.2990
12877SOL    HW139441   6.119   5.095   6.175  0.4124  0.4466 -0.1151
12877SOL    HW239442   6.208   4.973   6.185  0.4615  0.3545 -1.4278
12878SOL     OW39443   2.304   1.161   6.264  0.1516  0.1503 -0.0532
12878SOL    HW139444   2.351   1.094   6.213 -2.5306 -0.7180 -1.5779
12878SOL    HW239445   2.215   1.159   6.229 -0.3798  3.6566  0.7604
12879SOL     OW39446   1.352   6.586   3.507  0.4267  0.6904 -0.2712
12879SOL    HW139447   1.304   6.648   3.561 -0.3793  1.0944 -1.4072
12879SOL    HW239448   1.303   6.504   3.514  1.1019  0.3541  0.6817
12880SOL     OW39449   1.038   6.408   0.656 -0.0820  0.0747  0.0348
12880SOL    HW139450   1.103   6.464   0.699 -0.2051 -0.7435  1.3629
12880SOL    HW239451   0.956   6.426   0.702 -0.9460  1.4253 -1.9185
12881SOL     OW39452   1.432   3.159   6.516 -0.5006  0.1902 -0.6426
12881SOL    HW139453   1.384   3.232   6.475  0.4227  0.5140 -1.1727
12881SOL    HW239454   1.383   3.081   6.490  0.2218  0.3490 -2.6752
12882SOL     OW39455   3.636   0.966   2.110 -0.2999  0.3362 -0.7023
12882SOL    HW139456   3.570   0.915   2.156  0.7536  0.6167  1.2467
12882SOL    HW239457   3.683   0.903   2.056  0.8137 -0.7942  1.4587
12883SOL     OW39458   1.511   2.480   0.876  0.2544 -0.2314  0.6373
12883SOL    HW139459   1.455   2.518   0.808  0.7446  2.4026  1.5863
12883SOL    HW239460   1.597   2.471   0.834  0.0538 -0.6361  0.3039
12884SOL     OW39461   3.650   3.302   4.439 -0.4407  0.2046  0.8786
12884SOL    HW139462   3.706   3.370   4.401  0.4265  0.0458  1.8458
12884SOL    HW239463   3.644   3.235   4.370 -1.1179  1.1286  0.0035
12885SOL     OW39464   6.266   3.893   7.061 -0.3474  0.1840 -0.4284
12885SOL    HW139465   6.330   3.958   7.033 -1.9136  2.1249  0.2772
12885SOL    HW239466   6.215   3.873   6.982 -0.2788  0.3181 -0.5062
12886SOL     OW39467   4.538   6.891   0.520  0.5532  0.3036  0.0673
12886SOL    HW139468   4.517   6.797   0.521 -1.3084  0.6848  0.9226
12886SOL    HW239469   4.469   6.930   0.467 -0.7336  1.5628  2.4958
12887SOL     OW39470   0.179   1.711   5.214  0.0471  0.1413 -0.3275
12887SOL    HW139471   0.126   1.730   5.291  1.1108  1.0464  0.2056
12887SOL    HW239472   0.191   1.796   5.171 -0.4687 -0.3319 -1.4809
12888SOL     OW39473   0.925   4.208   5.599  0.3822 -0.3354  0.4948
12888SOL    HW139474   0.971   4.273   5.651 -1.1470 -0.0414  1.5436
12888SOL    HW239475   0.888   4.257   5.526  0.8938 -0.4072  0.1784
12889SOL     OW39476   2.454   5.380   0.966  0.7202 -0.3824 -0.4189
12889SOL    HW139477   2.505   5.325   0.907  0.5615  0.0610 -0.9754
12889SOL    HW239478   2.369   5.390   0.922 -0.4554 -2.4031  1.1883
12890SOL     OW39479   2.965   0.715   2.820 -0.8426 -0.3054  0.1750
12890SOL    HW139480   2.965   0.665   2.902  1.4077 -3.5536 -1.6100
12890SOL    HW239481   3.045   0.767   2.824 -0.8271 -0.3234  0.0845
12891SOL     OW39482   5.663   7.633   7.961 -0.4318  0.2550 -0.2958
12891SOL    HW139483   5.617   7.683   7.894 -0.2865  0.8996  0.0652
12891SOL    HW239484   5.734   7.691   7.989  0.9157 -0.9089 -1.1863
12892SOL     OW39485   3.872   6.901   2.098  0.1435 -0.2318 -0.0927
12892SOL    HW139486   3.948   6.959   2.096  0.3446 -0.5199 -1.3596
12892SOL    HW239487   3.798   6.957   2.072  0.4655 -0.6812 -2.1416
12893SOL     OW39488   0.622   4.954   5.636 -0.3340  0.7709  0.0785
12893SOL    HW139489   0.688   4.985   5.574  0.8127  1.9072  1.7785
12893SOL    HW239490   0.665   4.881   5.682 -0.2504  1.4756  1.1530
12894SOL     OW39491   7.009   7.879   5.960 -0.6323 -0.0764 -0.5290
12894SOL    HW139492   7.046   7.918   6.039 -0.0930  1.5669 -1.5518
12894SOL    HW239493   6.959   7.804   5.991  2.3936 -1.6019  1.0902
12895SOL     OW39494   1.989   6.022   3.502  0.4667  0.0245  0.0801
12895SOL    HW139495   1.940   6.005   3.422 -0.7329 -0.6325  0.9207
12895SOL    HW239496   2.079   5.996   3.482  0.4664  1.1260 -1.4506
12896SOL     OW39497   7.812   5.054   0.468 -0.2514 -0.0023 -0.0960
12896SOL    HW139498   7.879   5.107   0.425 -0.7042  0.8442  0.2073
12896SOL    HW239499   7.805   4.975   0.414 -0.9276  1.0986 -1.6928
12897SOL     OW39500   0.251   7.431   3.429 -0.3938 -0.1046 -0.2576
12897SOL    HW139501   0.301   7.351   3.411  0.9147  0.9246 -1.4451
12897SOL    HW239502   0.229   7.465   3.343  2.0155  2.5650  0.0522
12898SOL     OW39503   6.845   3.343   4.391 -0.1131 -0.3245 -0.0558
12898SOL    HW139504   6.802   3.261   4.365 -1.2262  0.0173  0.6040
12898SOL    HW239505   6.938   3.321   4.395 -0.4725 -1.8242  1.0511
12899SOL     OW39506   6.037   2.841   2.694  0.0366  0.4696  0.2841
12899SOL    HW139507   6.031   2.894   2.773  1.4641  0.1658  0.6264
12899SOL    HW239508   5.947   2.832   2.663 -0.2506  3.1518  0.1511
12900SOL     OW39509   7.365   6.483   7.587  0.1456  0.2581 -0.0515
12900SOL    HW139510   7.320   6.556   7.545  0.8571  1.1886  0.7658
12900SOL    HW239511   7.457   6.510   7.592  0.4956 -0.8619 -0.0995
12901SOL     OW39512   0.263   1.740   6.018 -0.4873  0.1397  0.0027
12901SOL    HW139513   0.172   1.715   6.007 -0.6137 -0.0963  1.3854
12901SOL    HW239514   0.270   1.764   6.111  0.3772  2.1426 -0.5343
12902SOL     OW39515   6.847   6.121   6.502 -0.5372 -0.2279 -0.3073
12902SOL    HW139516   6.836   6.110   6.407 -0.5277 -1.3940 -0.1843
12902SOL    HW239517   6.926   6.071   6.522  0.4130  1.3628  0.0792
12903SOL     OW39518   1.535   3.747   2.022  0.1149 -0.3392 -0.1509
12903SOL    HW139519   1.597   3.820   2.028 -1.1691  0.8465 -0.8392
12903SOL    HW239520   1.474   3.772   1.953 -0.8696 -1.6917  0.1766
12904SOL     OW39521   3.633   4.015   6.619 -0.4664 -0.0884  0.1986
12904SOL    HW139522   3.682   3.967   6.686  0.3563  1.1499  0.5203
12904SOL    HW239523   3.628   4.104   6.653 -0.6054  0.4075 -1.1001
12905SOL     OW39524   5.131   6.086   3.920  0.0908 -0.2390 -0.0980
12905SOL    HW139525   5.054   6.132   3.886  0.1462  1.9822  2.4479
12905SOL    HW239526   5.100   6.046   4.001  0.9638 -1.7249 -0.4720
12906SOL     OW39527   2.922   0.851   0.850 -0.0683 -0.5116 -0.4199
12906SOL    HW139528   2.907   0.938   0.814 -0.2166 -0.7676 -1.0030
12906SOL    HW239529   2.836   0.809   0.850  0.2197 -1.1662 -1.5568
12907SOL     OW39530   4.536   2.651   1.930  0.5308  0.0593  0.3714
12907SOL    HW139531   4.581   2.694   1.857  0.6310  1.0935  1.0223
12907SOL    HW239532   4.559   2.559   1.921  0.1053  0.0764 -1.2117
12908SOL     OW39533   6.807   5.130   3.264  0.1837  0.3124  0.1378
12908SOL    HW139534   6.728   5.144   3.211 -1.1332  0.2174  1.9627
12908SOL    HW239535   6.864   5.077   3.209 -1.0609  0.3175 -1.2196
12909SOL     OW39536   4.203   7.697   0.753 -0.2313  0.1123 -0.8421
12909SOL    HW139537   4.126   7.703   0.696  0.4821 -0.7833 -1.9572
12909SOL    HW239538   4.275   7.678   0.693  0.5618 -0.8341  0.3619
12910SOL     OW39539   0.172   0.995   6.427 -0.3020  0.1499  0.1692
12910SOL    HW139540   0.209   1.045   6.501  0.0437  0.4917 -0.2307
12910SOL    HW239541   0.247   0.979   6.370 -0.1192 -1.9579  0.8918
12911SOL     OW39542   2.401   4.300   5.562  0.0668  0.0938  0.6047
12911SOL    HW139543   2.368   4.383   5.598 -0.3624  0.8127 -1.3278
12911SOL    HW239544   2.473   4.276   5.621 -0.3368  1.3899  1.6920
12912SOL     OW39545   7.106   3.820   7.831  0.2141  0.0794 -0.8121
12912SOL    HW139546   7.045   3.890   7.805  0.5860  0.9277  0.5246
12912SOL    HW239547   7.187   3.842   7.786  0.7491  1.3417  0.6820
12913SOL     OW39548   4.229   3.085   5.941  0.7834  0.1417  0.1996
12913SOL    HW139549   4.320   3.058   5.952  0.8184 -0.0581 -0.5194
12913SOL    HW239550   4.227   3.127   5.855  0.3399  0.7777  0.5120
12914SOL     OW39551   0.841   3.649   4.286 -0.7650  0.2238 -0.4213
12914SOL    HW139552   0.863   3.700   4.208 -0.3693  0.0451 -0.4294
12914SOL    HW239553   0.924   3.636   4.330 -0.6021 -1.6972 -1.1868
12915SOL     OW39554   3.240   6.054   0.989  0.0941  0.0540  0.3621
12915SOL    HW139555   3.237   6.094   0.902 -4.5078 -0.2895  0.0879
12915SOL    HW239556   3.202   5.967   0.976 -1.0512  0.1240  2.7112
12916SOL     OW39557   1.387   6.364   7.144 -0.2471 -0.1711  0.2739
12916SOL    HW139558   1.369   6.458   7.141  0.6457 -0.0068 -0.2673
12916SOL    HW239559   1.305   6.323   7.117 -0.2761  0.4964 -0.6949
12917SOL     OW39560   6.690   1.821   1.301 -0.4223  0.5651 -0.0807
12917SOL    HW139561   6.753   1.886   1.332 -0.7748  0.0946  1.7625
12917SOL    HW239562   6.733   1.737   1.316 -1.1044  0.2775  0.3036
12918SOL     OW39563   4.491   0.228   2.238  0.9928  0.2893  1.0948
12918SOL    HW139564   4.412   0.268   2.275  0.5803  1.6243 -1.0169
12918SOL    HW239565   4.459   0.168   2.171  1.7199 -1.8652  2.5618
12919SOL     OW39566   4.685   0.618   2.948 -0.2470 -0.2187 -0.2940
12919SOL    HW139567   4.610   0.579   2.992  0.9131 -2.5034 -0.1829
12919SOL    HW239568   4.677   0.589   2.857  1.3727 -2.0979  0.0729
12920SOL     OW39569   2.772   5.701   5.397 -0.0012  0.1770 -0.0886
12920SOL    HW139570   2.697   5.642   5.410  1.6027 -2.5383 -2.2281
12920SOL    HW239571   2.743   5.784   5.436 -3.3101 -1.2929  0.9920
12921SOL     OW39572   6.627   5.528   5.066 -0.5775  0.4747 -0.0742
12921SOL    HW139573   6.547   5.508   5.017 -2.1768  1.1345  2.1152
12921SOL    HW239574   6.687   5.564   5.001 -1.3577 -1.7309 -2.1349
12922SOL     OW39575   7.406   1.478   3.256  0.0590 -0.1984  0.1625
12922SOL    HW139576   7.420   1.471   3.162 -0.3894  0.5301  0.0411
12922SOL    HW239577   7.482   1.526   3.289  0.6896 -1.2682  0.3155
12923SOL     OW39578   4.160   6.084   7.687 -0.2723  0.0443  0.2005
12923SOL    HW139579   4.202   6.169   7.693  0.2033 -0.2331  0.8921
12923SOL    HW239580   4.069   6.103   7.663 -0.3113  0.7635  0.9101
12924SOL     OW39581   6.655   6.409   1.582  0.0202 -0.2413  0.6760
12924SOL    HW139582   6.563   6.424   1.558 -0.1486  1.1062  1.9971
12924SOL    HW239583   6.705   6.470   1.529  0.1445 -0.7705  0.1701
12925SOL     OW39584   7.586   3.889   3.579  0.4284  0.1929 -0.0741
12925SOL    HW139585   7.615   3.817   3.522  2.2995  0.3744  0.6058
12925SOL    HW239586   7.666   3.934   3.605 -0.2218 -0.3182  3.3232
12926SOL     OW39587   2.144   4.738   7.051  0.6379 -0.4946 -0.2973
12926SOL    HW139588   2.169   4.830   7.044  0.9508 -0.3171  2.2026
12926SOL    HW239589   2.219   4.695   7.092 -0.2056 -1.4841  0.2768
12927SOL     OW39590   3.408   6.696   6.650  0.0591 -0.2908 -0.0554
12927SOL    HW139591   3.423   6.617   6.701  1.2095  0.6255  1.0890
12927SOL    HW239592   3.313   6.704   6.646 -0.1841 -2.8162 -1.9921
12928SOL     OW39593   4.153   5.256   4.396 -0.2179 -0.4579  0.3874
12928SOL    HW139594   4.097   5.208   4.457  0.0565 -1.7171 -0.3126
12928SOL    HW239595   4.169   5.340   4.439  1.0260 -1.7611  2.7125
12929SOL     OW39596   2.415   0.145   0.758 -0.0714  0.4540 -0.6583
12929SOL    HW139597   2.388   0.055   0.743 -0.9923  0.5018  0.5306
12929SOL    HW239598   2.365   0.196   0.694  1.9718 -0.0125 -2.7492
12930SOL     OW39599   0.746   0.302   2.318  0.3949  0.0264 -0.1824
12930SOL    HW139600   0.666   0.339   2.356 -0.5435 -0.3771 -1.6494
12930SOL    HW239601   0.806   0.292   2.392 -0.8775  0.4386  0.9488
12931SOL     OW39602   0.298   2.192   0.999 -0.2607 -0.0610 -0.0798
12931SOL    HW139603   0.285   2.173   0.906 -1.1087 -0.9717  0.2013
12931SOL    HW239604   0.221   2.153   1.041 -1.0512  2.2792  0.7885
12932SOL     OW39605   4.697   1.344   2.109  0.1011 -0.0187 -0.3491
12932SOL    HW139606   4.709   1.408   2.178  0.1786  0.5993 -0.9286
12932SOL    HW239607   4.655   1.392   2.038 -1.7198 -1.0673 -0.0563
12933SOL     OW39608   2.240   6.343   1.945  0.0660 -0.0986  0.1737
12933SOL    HW139609   2.231   6.283   2.019  0.5686  0.3465  0.6016
12933SOL    HW239610   2.156   6.390   1.942 -0.1430 -0.4678  0.1419
12934SOL     OW39611   2.925   4.207   3.660  0.1041 -0.6716 -0.3601
12934SOL    HW139612   2.862   4.227   3.591 -0.6007 -2.1385 -0.1771
12934SOL    HW239613   2.891   4.250   3.738  0.6400  0.5701 -0.7866
12935SOL     OW39614   2.754   4.400   6.558  0.5210 -0.5873  0.4086
12935SOL    HW139615   2.664   4.366   6.559  0.2255  0.1699  0.3501
12935SOL    HW239616   2.808   4.325   6.581 -0.0523 -1.2575 -0.4009
12936SOL     OW39617   1.612   7.741   5.297 -0.4342 -0.1198  0.0272
12936SOL    HW139618   1.660   7.795   5.234  1.5497 -1.3898  0.3630
12936SOL    HW239619   1.601   7.798   5.373 -0.7120  0.6538 -0.5766
12937SOL     OW39620   3.778   4.306   1.235  0.2860  0.0402 -0.3276
12937SOL    HW139621   3.836   4.260   1.175  0.0135 -1.0371  0.2031
12937SOL    HW239622   3.810   4.396   1.235  0.5817 -0.0509 -1.7020
12938SOL     OW39623   3.512   0.762   0.798 -0.2148  0.1599  0.8391
12938SOL    HW139624   3.473   0.741   0.883 -3.6819 -0.2005 -0.6430
12938SOL    HW239625   3.486   0.689   0.741  0.9216  0.9861 -0.8350
12939SOL     OW39626   7.343   3.287   4.067 -0.6105  0.1834 -0.4556
12939SOL    HW139627   7.383   3.334   4.140 -0.2737  0.3381 -0.7374
12939SOL    HW239628   7.396   3.311   3.991  0.2391 -1.4633 -0.4394
12940SOL     OW39629   0.610   4.282   5.582 -0.1907  0.6140 -0.4679
12940SOL    HW139630   0.653   4.308   5.501 -2.2441 -0.0320 -1.8597
12940SOL    HW239631   0.647   4.197   5.603 -1.4158 -0.4025 -2.2064
12941SOL     OW39632   3.905   7.047   6.649  0.3061 -0.3819  0.7461
12941SOL    HW139633   3.885   7.141   6.657 -0.4905 -0.5311  0.6101
12941SOL    HW239634   3.997   7.040   6.672 -0.0784  0.1927  2.6958
12942SOL     OW39635   3.253   2.855   7.183 -0.1162 -0.3041  0.1008
12942SOL    HW139636   3.246   2.950   7.183  0.9447 -0.1567  1.9322
12942SOL    HW239637   3.163   2.823   7.188 -0.4301  0.7104  1.7502
12943SOL     OW39638   5.984   0.523   6.904 -0.6653  0.5435 -0.2754
12943SOL    HW139639   5.896   0.554   6.921 -0.4275  0.8892  0.3493
12943SOL    HW239640   6.024   0.591   6.850  0.2087  1.9154  1.9782
12944SOL     OW39641   5.792   1.858   6.261  0.1068  0.5254 -0.1522
12944SOL    HW139642   5.853   1.924   6.294  0.9668 -0.1522 -0.3380
12944SOL    HW239643   5.830   1.831   6.177  0.1258 -0.6718  0.2272
12945SOL     OW39644   2.993   0.992   2.468  0.1170 -0.2463  0.0571
12945SOL    HW139645   2.980   0.923   2.402  0.5649 -1.3574  1.0897
12945SOL    HW239646   2.932   0.970   2.538  0.2343  0.4428  0.3849
12946SOL     OW39647   3.443   4.638   2.298  0.1275  0.1042 -0.5483
12946SOL    HW139648   3.364   4.647   2.351 -0.0512 -2.1275 -0.3421
12946SOL    HW239649   3.454   4.543   2.287  2.5335  0.3658 -0.9382
12947SOL     OW39650   3.422   4.992   6.611 -0.0997  0.5528 -0.1638
12947SOL    HW139651   3.376   5.061   6.659 -1.0236  1.1671 -1.8504
12947SOL    HW239652   3.357   4.923   6.599  0.2790  0.1731 -0.0871
12948SOL     OW39653   4.715   6.289   2.606 -0.1948  0.1223  0.2353
12948SOL    HW139654   4.777   6.293   2.679 -0.3767  2.0191  0.3283
12948SOL    HW239655   4.630   6.310   2.645 -0.3967  0.5434 -0.4273
12949SOL     OW39656   6.330   7.688   3.608 -0.0740  0.5434  0.0358
12949SOL    HW139657   6.294   7.649   3.688  0.4931  1.1666  0.6097
12949SOL    HW239658   6.267   7.757   3.585 -0.1110  0.5236  0.0764
12950SOL     OW39659   2.163   0.137   5.035 -0.2310  0.1949 -0.2310
12950SOL    HW139660   2.217   0.058   5.034 -1.6011 -0.8618  1.5513
12950SOL    HW239661   2.109   0.130   4.957  0.1726 -0.2463 -0.4792
12951SOL     OW39662   2.159   7.780   6.235 -0.7036 -0.2829  0.0465
12951SOL    HW139663   2.066   7.800   6.239 -0.6380  0.4145 -1.4121
12951SOL    HW239664   2.168   7.719   6.162 -0.0977 -0.9529  0.6570
12952SOL     OW39665   3.731   6.943   2.957 -0.3501  0.0969 -0.1448
12952SOL    HW139666   3.802   6.879   2.955 -0.6447 -0.2200 -0.3803
12952SOL    HW239667   3.733   6.984   2.871  0.0050  0.5892  0.0940
12953SOL     OW39668   7.425   3.130   6.542  0.1525 -0.3689  0.0182
12953SOL    HW139669   7.484   3.200   6.569 -0.1695  0.3044 -0.9776
12953SOL    HW239670   7.338   3.169   6.543  0.1217 -0.2749 -1.9597
12954SOL     OW39671   0.881   0.217   3.899 -0.2199 -0.0355  0.0065
12954SOL    HW139672   0.967   0.255   3.920  0.4320 -1.2633 -0.3682
12954SOL    HW239673   0.848   0.271   3.827 -0.8524  1.9269  1.6621
12955SOL     OW39674   4.484   2.444   0.119  0.5228 -0.6972 -0.0841
12955SOL    HW139675   4.445   2.526   0.152 -2.2402 -1.6366 -0.7445
12955SOL    HW239676   4.538   2.472   0.045 -0.7789  0.5398 -0.6218
12956SOL     OW39677   6.036   3.465   5.606  0.4940  0.0418  0.3157
12956SOL    HW139678   5.970   3.534   5.603 -0.5181 -0.9062 -0.1240
12956SOL    HW239679   6.060   3.449   5.515  1.0178  0.0932  0.4432
12957SOL     OW39680   7.940   4.029   5.086  0.0527  0.1378 -0.3889
12957SOL    HW139681   7.976   4.109   5.122 -0.4524  0.1752  0.0355
12957SOL    HW239682   7.963   4.032   4.993  0.7252  0.3851 -0.2204
12958SOL     OW39683   4.418   6.458   3.261 -0.2147 -0.1265 -0.1110
12958SOL    HW139684   4.376   6.540   3.285 -1.6821 -0.8420 -0.1138
12958SOL    HW239685   4.463   6.430   3.340 -0.1918  0.3909  0.0638
12959SOL     OW39686   0.494   2.419   2.664  0.9279  0.4384  0.5732
12959SOL    HW139687   0.492   2.507   2.702  1.0530  2.5660 -3.7712
12959SOL    HW239688   0.582   2.410   2.629  0.5763 -1.0099  0.0030
12960SOL     OW39689   6.615   0.942   6.854  0.0826 -0.2230 -0.6833
12960SOL    HW139690   6.591   0.869   6.911 -2.1854 -0.8363 -2.2796
12960SOL    HW239691   6.542   1.004   6.863  1.3096  1.2503 -0.4196
12961SOL     OW39692   3.385   4.809   5.723  0.4603  0.2901 -0.2046
12961SOL    HW139693   3.323   4.873   5.688 -1.3713 -0.8374  0.8006
12961SOL    HW239694   3.362   4.727   5.680  2.4648  0.1408 -1.1256
12962SOL     OW39695   1.015   3.655   7.947  0.3036  0.3610  0.1240
12962SOL    HW139696   0.928   3.696   7.949  1.3475  2.7461  1.3549
12962SOL    HW239697   1.058   3.694   7.871  0.3353 -0.8062 -0.4773
12963SOL     OW39698   5.067   7.959   3.289 -1.1044 -0.2481  0.4813
12963SOL    HW139699   4.992   8.018   3.282 -1.1045  0.3076  3.5592
12963SOL    HW239700   5.140   8.015   3.314 -0.0515 -1.0204 -0.7662
12964SOL     OW39701   5.752   4.697   3.452 -0.0629 -0.4025 -0.2940
12964SOL    HW139702   5.672   4.648   3.432 -0.9349  0.5237  0.7636
12964SOL    HW239703   5.791   4.715   3.367  0.4927 -3.1663 -0.7387
12965SOL     OW39704   2.341   5.923   3.966  0.2388  0.0277 -0.0067
12965SOL    HW139705   2.353   5.887   3.878  2.3972 -0.5034  0.4462
12965SOL    HW239706   2.328   6.017   3.952  1.3626  0.0750 -0.8620
12966SOL     OW39707   0.430   1.358   5.958  0.3521 -0.1629  0.4714
12966SOL    HW139708   0.499   1.301   5.923  0.5655  0.9034 -0.9066
12966SOL    HW239709   0.470   1.445   5.962 -1.6716  1.1135 -3.0905
12967SOL     OW39710   1.101   4.500   0.777  0.2912 -0.6264 -0.6205
12967SOL    HW139711   1.021   4.474   0.730  1.7102 -1.0144 -2.9848
12967SOL    HW239712   1.096   4.595   0.781 -0.4849 -0.6670 -0.3384
12968SOL     OW39713   3.508   0.190   2.306  0.1737 -0.6877  0.6697
12968SOL    HW139714   3.555   0.108   2.322 -0.3648 -0.8341  1.5862
12968SOL    HW239715   3.453   0.201   2.383 -1.2585 -0.4882 -0.3385
12969SOL     OW39716   2.076   0.817   7.047 -0.0167 -0.5681  0.5553
12969SOL    HW139717   2.067   0.840   7.139  0.8443 -0.7269  0.6833
12969SOL    HW239718   2.159   0.770   7.041 -0.4413 -1.2697 -0.1643
12970SOL     OW39719   0.932   5.077   0.107 -0.5397 -0.3716 -0.0631
12970SOL    HW139720   0.970   5.164   0.104 -1.5218  0.0625 -0.6449
12970SOL    HW239721   0.852   5.088   0.158  0.8455 -1.5913  2.5615
12971SOL     OW39722   7.745   5.100   4.218 -0.1876  0.4993  0.6678
12971SOL    HW139723   7.774   5.015   4.186  0.3184 -0.2081  2.7938
12971SOL    HW239724   7.652   5.087   4.238 -0.2645  0.6347  0.3940
12972SOL     OW39725   1.256   0.758   6.229  0.5821 -0.0144  0.0138
12972SOL    HW139726   1.255   0.848   6.264  0.5633  0.3499 -0.8899
12972SOL    HW239727   1.347   0.744   6.204  0.2567  0.4556 -1.5522
12973SOL     OW39728   5.071   1.307   4.695  0.1296  0.0728 -0.3785
12973SOL    HW139729   5.014   1.362   4.642 -0.4825 -1.0895 -0.9631
12973SOL    HW239730   5.131   1.266   4.632 -0.7591 -1.5075 -0.2586
12974SOL     OW39731   6.005   5.994   4.286  0.0259  0.4191 -0.2733
12974SOL    HW139732   5.992   6.063   4.221  3.0708  2.4028  1.0113
12974SOL    HW239733   6.080   5.944   4.253  0.4895  0.3592  0.8311
12975SOL     OW39734   5.244   1.014   7.740 -0.7440 -0.2940 -0.0606
12975SOL    HW139735   5.208   1.097   7.772 -0.8883 -0.2205 -0.4069
12975SOL    HW239736   5.251   0.959   7.818 -1.1520 -0.1393  0.0904
12976SOL     OW39737   1.191   1.607   1.710  0.5023 -0.3783 -0.8094
12976SOL    HW139738   1.142   1.638   1.787  0.6313  0.8717 -1.2121
12976SOL    HW239739   1.215   1.517   1.732 -1.5546 -0.8892 -0.3961
12977SOL     OW39740   6.450   5.224   4.824 -0.0639 -0.1228 -0.5280
12977SOL    HW139741   6.465   5.317   4.806 -0.4225  0.0495  0.0495
12977SOL    HW239742   6.355   5.214   4.827 -0.0971 -0.9182 -2.6068
12978SOL     OW39743   1.713   4.926   2.459  0.3905  0.2209 -0.2687
12978SOL    HW139744   1.662   4.896   2.383 -0.4964  0.5436  0.1814
12978SOL    HW239745   1.664   5.002   2.491  1.3358  0.7301 -0.0030
12979SOL     OW39746   1.751   7.343   5.263 -0.0189  0.0544  0.3405
12979SOL    HW139747   1.716   7.272   5.317  1.0095 -0.3299  0.5107
12979SOL    HW239748   1.731   7.318   5.173  0.5354 -0.5634  0.3854
12980SOL     OW39749   0.265   0.699   6.907  0.4290 -0.1799  0.3867
12980SOL    HW139750   0.253   0.645   6.828 -1.1619  1.0221 -0.2610
12980SOL    HW239751   0.208   0.659   6.972  0.3361 -0.1143  0.3465
12981SOL     OW39752   2.881   6.848   6.740  0.2858  0.0232 -0.1637
12981SOL    HW139753   2.795   6.808   6.754  0.0135  0.9016  0.6952
12981SOL    HW239754   2.878   6.931   6.787  1.6153  0.0620 -0.1073
12982SOL     OW39755   3.875   5.918   4.602 -0.6982 -0.5367 -0.2559
12982SOL    HW139756   3.937   5.942   4.532 -1.0476 -0.9279 -0.7034
12982SOL    HW239757   3.789   5.934   4.564 -0.8842  0.2743  0.4620
12983SOL     OW39758   6.777   0.545   1.872 -0.3935 -0.2457  1.1265
12983SOL    HW139759   6.846   0.580   1.814 -1.8170 -0.2318 -0.6583
12983SOL    HW239760   6.821   0.477   1.923  0.9521 -0.2264  0.0612
12984SOL     OW39761   0.597   3.088   0.107 -0.1237 -0.1756  0.1412
12984SOL    HW139762   0.685   3.052   0.116  0.1557  0.4801  0.0766
12984SOL    HW239763   0.591   3.155   0.175 -0.5286 -0.1243  0.0609
12985SOL     OW39764   6.340   0.232   3.957 -0.6642 -0.3220  0.3617
12985SOL    HW139765   6.384   0.276   4.030 -2.7965  0.6785  1.1292
12985SOL    HW239766   6.267   0.186   3.998 -0.2935 -2.0834 -0.8466
12986SOL     OW39767   6.945   2.713   2.889  0.3493  0.0858  0.1062
12986SOL    HW139768   6.852   2.692   2.895 -0.0275  1.3460 -0.9785
12986SOL    HW239769   6.964   2.711   2.796  1.1834  0.7543  0.2531
12987SOL     OW39770   0.322   1.145   6.932  0.2053 -0.5563  0.0466
12987SOL    HW139771   0.360   1.073   6.882 -2.1646 -1.8603 -0.0511
12987SOL    HW239772   0.359   1.136   7.019  1.9215 -0.2338 -0.6039
12988SOL     OW39773   6.826   5.678   6.460 -0.1718  0.1002 -0.0314
12988SOL    HW139774   6.770   5.614   6.415 -0.4534  0.2109  0.1564
12988SOL    HW239775   6.776   5.760   6.457 -0.2856  0.0618  0.6588
12989SOL     OW39776   4.802   1.475   4.860 -0.0944  0.4871  0.1111
12989SOL    HW139777   4.818   1.527   4.939  1.4237 -0.5360  0.5141
12989SOL    HW239778   4.875   1.497   4.802 -0.4399  0.1777 -0.4474
12990SOL     OW39779   7.323   5.984   0.730 -0.2614  0.8134 -0.1475
12990SOL    HW139780   7.263   6.017   0.797  1.1528  1.2976  0.9314
12990SOL    HW239781   7.351   5.899   0.764 -1.6710 -0.2585 -1.5249
12991SOL     OW39782   1.479   2.166   5.738  0.4416 -0.6853  0.0839
12991SOL    HW139783   1.408   2.228   5.752  0.6978 -0.0759 -1.1351
12991SOL    HW239784   1.558   2.220   5.738  0.8396 -1.2660  0.7789
12992SOL     OW39785   6.356   4.226   2.094 -0.4688 -0.5932  0.0940
12992SOL    HW139786   6.348   4.133   2.115  1.9082 -0.5599  1.4147
12992SOL    HW239787   6.342   4.230   1.999 -1.6907 -2.1150  0.1587
12993SOL     OW39788   5.997   1.079   5.414 -0.1650 -0.6860 -0.2119
12993SOL    HW139789   6.080   1.125   5.398 -0.6794  0.1418 -0.5887
12993SOL    HW239790   5.937   1.147   5.445 -0.4149 -1.4801  1.1230
12994SOL     OW39791   7.514   5.303   1.669  0.0738 -0.1652 -0.5411
12994SOL    HW139792   7.468   5.257   1.599  0.4807 -1.2336 -0.1151
12994SOL    HW239793   7.555   5.234   1.721  1.3459  0.7192 -0.3386
12995SOL     OW39794   2.417   1.251   7.144  0.1474 -0.1292 -0.1746
12995SOL    HW139795   2.440   1.292   7.060  0.5695 -0.3631 -0.1740
12995SOL    HW239796   2.407   1.325   7.204  0.1986  0.0176 -0.3450
12996SOL     OW39797   3.314   6.274   4.998  0.4705  0.2775  0.3936
12996SOL    HW139798   3.301   6.255   4.905  1.4634 -0.0493  0.3085
12996SOL    HW239799   3.260   6.210   5.043 -0.7146  1.0055  0.0448
12997SOL     OW39800   3.221   1.032   3.859  0.3722  0.2209  0.3707
12997SOL    HW139801   3.310   1.003   3.839  0.4209 -0.5697  1.6348
12997SOL    HW239802   3.170   1.007   3.782  0.8481 -1.2830  0.5215
12998SOL     OW39803   3.996   4.986   6.443  0.1756  0.2425 -0.4422
12998SOL    HW139804   4.091   4.988   6.430  0.0832 -1.6461 -1.6808
12998SOL    HW239805   3.977   5.067   6.491  2.4653  0.3996  0.3117
12999SOL     OW39806   2.238   7.148   0.990  0.0019  0.8561 -0.7696
12999SOL    HW139807   2.264   7.228   0.944 -2.1425  1.1709 -1.5487
12999SOL    HW239808   2.164   7.175   1.045  0.2276 -0.2858  0.1227
13000SOL     OW39809   2.269   4.116   0.408 -0.1919 -0.3387  0.2109
13000SOL    HW139810   2.301   4.165   0.484 -3.4350  0.9421  0.9191
13000SOL    HW239811   2.301   4.165   0.332 -0.1222  0.6518  0.8630
13001SOL     OW39812   2.397   5.796   4.363 -0.3722  0.2511 -0.3350
13001SOL    HW139813   2.463   5.843   4.311  1.0459 -1.4898 -0.2356
13001SOL    HW239814   2.351   5.742   4.299  0.3279 -0.7413 -0.0208
13002SOL     OW39815   2.883   7.869   0.546 -0.1970 -0.2211 -0.0774
13002SOL    HW139816   2.797   7.828   0.551  0.1261 -1.3077 -2.3078
13002SOL    HW239817   2.867   7.950   0.496  0.0752 -0.4882 -0.6044
13003SOL     OW39818   6.658   3.889   5.562  0.4663 -0.0006  0.6529
13003SOL    HW139819   6.683   3.839   5.639  0.9219  0.0943  0.5682
13003SOL    HW239820   6.734   3.883   5.504  0.7024  1.1546  0.8244
13004SOL     OW39821   0.860   2.481   5.684 -0.4191  0.1920 -0.4618
13004SOL    HW139822   0.819   2.412   5.631  0.3798 -0.3981 -0.3301
13004SOL    HW239823   0.880   2.438   5.767 -4.1134  1.7810  1.4708
13005SOL     OW39824   2.084   7.389   2.863  0.1698 -0.5092 -0.0174
13005SOL    HW139825   2.178   7.376   2.854  0.2174  0.5023 -1.3576
13005SOL    HW239826   2.046   7.358   2.781 -0.5915 -0.3251  0.2471
13006SOL     OW39827   4.049   4.237   3.897 -0.4649  0.0159 -0.1520
13006SOL    HW139828   3.957   4.212   3.907 -0.5651  0.0249 -1.0167
13006SOL    HW239829   4.082   4.183   3.826 -0.2929  1.2647 -1.0605
13007SOL     OW39830   7.006   1.988   0.413 -0.8449 -0.1207  0.1392
13007SOL    HW139831   7.063   2.039   0.471 -0.6485 -0.0300 -0.1283
13007SOL    HW239832   6.920   1.993   0.453 -0.5977 -0.5476  0.7350
13008SOL     OW39833   7.685   0.851   2.114  0.4184 -0.3252  0.3595
13008SOL    HW139834   7.717   0.803   2.038 -0.6539 -0.4894 -0.0006
13008SOL    HW239835   7.723   0.804   2.189  0.4486 -0.9432 -0.0316
13009SOL     OW39836   1.024   7.219   3.811  0.4175  0.7448  0.4150
13009SOL    HW139837   1.102   7.247   3.858  1.2549  1.0904 -1.1047
13009SOL    HW239838   0.979   7.300   3.787 -0.2064  0.5587  0.9132
13010SOL     OW39839   3.330   5.914   0.532 -0.0134  0.4100 -0.2566
13010SOL    HW139840   3.349   5.883   0.444  0.3856 -0.6273  0.1810
13010SOL    HW239841   3.344   5.838   0.588  0.2304  1.1834  0.7630
13011SOL     OW39842   5.619   4.022   7.410 -0.1406  0.1454  0.1611
13011SOL    HW139843   5.649   3.934   7.431  0.5388  0.3885  0.2061
13011SOL    HW239844   5.628   4.071   7.491  0.3892  0.5018 -0.1078
13012SOL     OW39845   6.532   3.069   1.517 -0.1187  0.0913 -0.4831
13012SOL    HW139846   6.489   3.066   1.431 -0.2732  3.3166 -0.6577
13012SOL    HW239847   6.622   3.043   1.500 -0.1522  0.6729 -1.6534
13013SOL     OW39848   5.412   5.357   2.436  0.2217  1.0356  0.1351
13013SOL    HW139849   5.426   5.331   2.527 -1.0534 -2.0304 -0.4474
13013SOL    HW239850   5.320   5.383   2.432 -0.3855 -1.0812 -0.6854
13014SOL     OW39851   0.356   0.383   6.602 -0.2332  0.1115 -0.3666
13014SOL    HW139852   0.316   0.449   6.657  2.2287  1.1304  0.3336
13014SOL    HW239853   0.449   0.383   6.626  0.4792 -1.2404 -2.6864
13015SOL     OW39854   1.056   3.052   1.669  0.3021 -0.5100  0.2757
13015SOL    HW139855   1.033   3.122   1.730 -1.0764 -1.1600  0.5358
13015SOL    HW239856   0.985   3.051   1.606  1.3611 -0.3196 -0.9616
13016SOL     OW39857   3.303   4.658   1.093 -0.3114 -0.4239 -0.0409
13016SOL    HW139858   3.307   4.606   1.013 -2.4584  0.1181 -0.5580
13016SOL    HW239859   3.211   4.661   1.116 -0.2624  2.6996  0.2417
13017SOL     OW39860   7.214   5.570   0.201 -0.4287 -0.5509  0.4756
13017SOL    HW139861   7.288   5.630   0.195 -1.4870  0.7059 -0.4515
13017SOL    HW239862   7.213   5.525   0.116 -2.1366  1.2163 -0.5286
13018SOL     OW39863   7.439   2.783   0.221  0.4458 -0.5263  0.1309
13018SOL    HW139864   7.400   2.868   0.241  1.3374 -0.0847  0.0195
13018SOL    HW239865   7.457   2.786   0.127  3.3360  0.3985  0.6347
13019SOL     OW39866   5.872   1.587   4.341 -0.0269 -0.4303  0.1676
13019SOL    HW139867   5.885   1.569   4.248  0.9970 -0.9764  0.4023
13019SOL    HW239868   5.783   1.557   4.358  0.7346 -3.0745 -0.0390
13020SOL     OW39869   5.176   7.167   6.098 -0.0584  0.3783 -0.2418
13020SOL    HW139870   5.247   7.123   6.051 -0.8659 -0.5725 -0.6053
13020SOL    HW239871   5.215   7.193   6.182 -0.1630 -3.2665  1.0798
13021SOL     OW39872   5.319   4.022   0.936  0.2687  0.7161 -0.1880
13021SOL    HW139873   5.243   4.073   0.907  0.1819  0.2678 -0.7857
13021SOL    HW239874   5.394   4.079   0.919 -0.0217  1.7508  1.7776
13022SOL     OW39875   3.356   0.523   1.632  0.3565  0.1881 -0.1177
13022SOL    HW139876   3.371   0.501   1.724 -1.4321  2.2469  0.7756
13022SOL    HW239877   3.438   0.503   1.588  1.3332 -0.6349  1.9814
13023SOL     OW39878   6.085   2.547   7.759  0.0162 -0.3276 -0.2643
13023SOL    HW139879   6.006   2.531   7.812 -0.8480  1.0108 -1.0904
13023SOL    HW239880   6.152   2.568   7.823 -0.6076 -0.2935  0.3999
13024SOL     OW39881   0.514   5.533   6.649  0.1143  0.0600 -0.7847
13024SOL    HW139882   0.525   5.581   6.567  1.6295  1.2685  0.0769
13024SOL    HW239883   0.558   5.450   6.634 -2.1936 -1.0081 -2.1601
13025SOL     OW39884   6.992   2.494   0.334  0.0954 -0.0922 -0.2830
13025SOL    HW139885   6.993   2.588   0.315  1.7225  0.2273  1.0762
13025SOL    HW239886   7.062   2.458   0.279 -0.7549 -0.5750 -1.0565
13026SOL     OW39887   0.824   7.068   3.296  0.4390 -0.0034 -0.3790
13026SOL    HW139888   0.879   7.116   3.234 -0.3172 -0.0624 -1.1072
13026SOL    HW239889   0.767   7.135   3.334 -0.1062 -0.1885 -0.8482
13027SOL     OW39890   1.178   6.887   5.661 -0.3839  0.2805 -0.0974
13027SOL    HW139891   1.216   6.964   5.620  2.1388 -1.4342 -1.2141
13027SOL    HW239892   1.182   6.906   5.755  0.6770  1.3227 -0.3269
13028SOL     OW39893   6.307   6.352   2.916 -0.2276  0.3344 -0.1924
13028SOL    HW139894   6.311   6.388   2.828  1.0643  0.8691  0.0696
13028SOL    HW239895   6.339   6.422   2.973  0.3175 -0.4963  0.5488
13029SOL     OW39896   5.530   2.893   0.781 -0.2201 -0.1252 -0.1711
13029SOL    HW139897   5.607   2.946   0.758 -0.1732  0.1707  0.6360
13029SOL    HW239898   5.566   2.811   0.813 -0.1618  0.5051  1.4832
13030SOL     OW39899   0.444   4.303   1.689  0.4963 -0.6624 -0.5368
13030SOL    HW139900   0.506   4.272   1.755  1.7379  0.1287 -1.2806
13030SOL    HW239901   0.376   4.348   1.740 -0.1409 -2.5349  0.3780
13031SOL     OW39902   5.186   3.446   1.968  0.0163 -0.1355 -0.3266
13031SOL    HW139903   5.216   3.538   1.968  0.1527 -0.1640 -1.3779
13031SOL    HW239904   5.264   3.397   1.941 -0.0758 -0.5596  0.1806
13032SOL     OW39905   2.473   2.388   3.080  0.4007  0.5309 -0.5171
13032SOL    HW139906   2.559   2.412   3.113 -0.7063  0.9476  2.3453
13032SOL    HW239907   2.473   2.292   3.078  0.6298  0.5095  0.3795
13033SOL     OW39908   7.254   1.925   2.472 -0.0411  0.0444 -0.2735
13033SOL    HW139909   7.218   2.000   2.519  0.7236  1.1734 -1.4326
13033SOL    HW239910   7.212   1.928   2.386  1.6395  0.4933 -1.1149
13034SOL     OW39911   7.193   1.184   3.813  0.0672 -0.2111  0.0592
13034SOL    HW139912   7.247   1.121   3.765 -0.0457  0.1049 -0.5040
13034SOL    HW239913   7.131   1.216   3.747 -0.3233 -0.0290  0.5163
13035SOL     OW39914   4.870   5.323   2.916 -0.7074 -0.4760 -0.2355
13035SOL    HW139915   4.905   5.325   2.827 -1.1890  0.6291 -0.4101
13035SOL    HW239916   4.788   5.372   2.911 -0.7009 -0.3249  0.8376
13036SOL     OW39917   5.421   4.907   3.298 -0.4849 -0.7672  0.6842
13036SOL    HW139918   5.402   4.942   3.211  2.6471 -1.9555 -0.6220
13036SOL    HW239919   5.427   4.812   3.286  0.4198 -0.9232  2.1010
13037SOL     OW39920   7.785   6.876   4.562  0.8608 -0.1869  0.0154
13037SOL    HW139921   7.743   6.962   4.557  1.6443  0.1855 -0.5546
13037SOL    HW239922   7.876   6.893   4.535  0.9408 -1.2564 -0.4184
13038SOL     OW39923   6.009   5.041   0.758  0.0800  0.5156 -0.1837
13038SOL    HW139924   6.091   5.053   0.709 -0.2256  0.6635 -0.6612
13038SOL    HW239925   5.940   5.064   0.696 -0.2860  1.4593  0.5488
13039SOL     OW39926   3.951   7.023   5.542  0.0058 -0.0460  0.1859
13039SOL    HW139927   3.917   7.096   5.594  2.2064  1.7639 -0.7388
13039SOL    HW239928   3.902   7.026   5.460 -1.5026 -1.1242  1.0025
13040SOL     OW39929   3.078   5.820   7.989  0.2297 -0.3481  0.0998
13040SOL    HW139930   2.989   5.841   8.018 -0.0838 -0.6540 -0.6341
13040SOL    HW239931   3.114   5.767   8.060 -0.1867 -0.2712  0.3746
13041SOL     OW39932   7.112   6.634   6.581  0.0820  0.0786 -0.2253
13041SOL    HW139933   7.030   6.604   6.542 -0.9556  0.7991  1.2660
13041SOL    HW239934   7.152   6.689   6.515 -1.5591  1.1865 -0.3531
13042SOL     OW39935   4.736   3.531   4.090  0.1005  0.0946 -0.2231
13042SOL    HW139936   4.781   3.449   4.109 -0.0109  0.1578  0.3462
13042SOL    HW239937   4.694   3.555   4.173  0.1249  0.7205 -0.3870
13043SOL     OW39938   5.039   0.628   5.156 -0.1264  0.2692  0.3042
13043SOL    HW139939   4.972   0.589   5.213  0.2990 -3.2344 -1.3251
13043SOL    HW239940   5.122   0.602   5.196  0.1823  0.0394 -0.4719
13044SOL     OW39941   6.454   0.040   3.166 -0.1591  0.1103  0.3710
13044SOL    HW139942   6.386  -0.016   3.204  0.4913 -1.1026 -0.2338
13044SOL    HW239943   6.416   0.072   3.084  1.0875 -3.1472 -1.6509
13045SOL     OW39944   2.554   5.871   2.012 -0.6867 -0.4137  0.0198
13045SOL    HW139945   2.614   5.814   2.060 -0.0988 -0.0480 -0.2749
13045SOL    HW239946   2.586   5.870   1.922 -1.2099 -0.3235 -0.1747
13046SOL     OW39947   5.193   1.193   7.257  0.0320  0.2313 -0.4064
13046SOL    HW139948   5.270   1.169   7.308 -0.2405 -1.2800 -0.6573
13046SOL    HW239949   5.191   1.289   7.261 -0.5594  0.2176  3.2601
13047SOL     OW39950   1.728   3.747   4.911 -0.1340  0.6262 -0.3263
13047SOL    HW139951   1.770   3.802   4.845  0.2714  0.0648 -0.5427
13047SOL    HW239952   1.636   3.746   4.886  0.0788  0.0718 -1.1495
13048SOL     OW39953   3.955   7.618   3.670  0.2101 -0.2965 -0.0479
13048SOL    HW139954   3.897   7.643   3.742  1.8113  0.6240  0.9645
13048SOL    HW239955   3.957   7.522   3.673  1.6253 -0.2559  2.3101
13049SOL     OW39956   3.483   4.839   1.522 -0.3615 -0.0058  0.7706
13049SOL    HW139957   3.548   4.808   1.584 -0.1881  0.4291  0.8111
13049SOL    HW239958   3.454   4.923   1.558 -1.2441 -0.3806  0.9739
13050SOL     OW39959   5.769   7.271   1.653 -0.0300 -0.0850 -0.5562
13050SOL    HW139960   5.687   7.314   1.628 -1.3118 -3.0400 -1.8695
13050SOL    HW239961   5.802   7.233   1.572  2.7909  1.0841 -0.0845
13051SOL     OW39962   7.895   3.495   4.016  0.1904  0.1416  0.0803
13051SOL    HW139963   7.836   3.487   3.941 -1.2885  1.7887  0.9746
13051SOL    HW239964   7.848   3.451   4.087  0.2692  0.9918  0.6718
13052SOL     OW39965   6.100   0.077   4.541  0.3168 -0.3020 -0.2208
13052SOL    HW139966   6.036   0.012   4.512  0.3107  0.1986 -1.3768
13052SOL    HW239967   6.110   0.136   4.466  2.4764 -0.6100 -0.2183
13053SOL     OW39968   1.728   2.828   7.823  0.0830 -0.3275 -0.3222
13053SOL    HW139969   1.649   2.829   7.770 -0.1471  1.4242 -0.0021
13053SOL    HW239970   1.696   2.824   7.914  0.3775 -0.2702 -0.2147
13054SOL     OW39971   4.464   0.589   6.255  0.1562  0.4076  0.3382
13054SOL    HW139972   4.556   0.611   6.245  0.3181  0.1964  1.2971
13054SOL    HW239973   4.443   0.611   6.346  0.1983 -2.8780  1.2592
13055SOL     OW39974   6.372   7.586   5.311 -0.1676 -0.4435 -0.0973
13055SOL    HW139975   6.409   7.508   5.353  0.4890 -1.1485 -1.8448
13055SOL    HW239976   6.299   7.553   5.259 -1.7906  0.5947  1.4208
13056SOL     OW39977   1.443   3.235   6.172 -0.2357  0.0735 -0.1731
13056SOL    HW139978   1.360   3.238   6.220  0.2999 -0.3944  0.8245
13056SOL    HW239979   1.443   3.152   6.126  0.0485 -0.3349  0.5468
13057SOL     OW39980   4.327   1.714   5.689  0.5341  0.2955  0.1464
13057SOL    HW139981   4.313   1.663   5.768 -1.6495 -0.3742 -0.6071
13057SOL    HW239982   4.333   1.649   5.619  0.8046  0.9415 -0.4465
13058SOL     OW39983   3.207   1.228   2.244 -0.4367  0.0989 -0.1631
13058SOL    HW139984   3.189   1.142   2.206 -0.3907 -0.0864  0.2292
13058SOL    HW239985   3.123   1.257   2.280 -0.4239  0.1648 -0.1849
13059SOL     OW39986   6.339   1.327   2.666 -0.3064 -0.5042  0.7579
13059SOL    HW139987   6.306   1.358   2.750 -1.8480 -1.4632  0.5370
13059SOL    HW239988   6.261   1.303   2.616  0.5634  0.1056 -0.9961
13060SOL     OW39989   5.479   2.028   6.754 -0.0606  0.4112  0.5228
13060SOL    HW139990   5.514   2.108   6.715  0.9486 -0.2205  0.0995
13060SOL    HW239991   5.387   2.047   6.769 -0.3326  0.9315 -1.5209
13061SOL     OW39992   6.811   0.584   0.758  0.3867 -0.5227  0.8717
13061SOL    HW139993   6.726   0.565   0.720  0.9060 -1.0720 -0.0649
13061SOL    HW239994   6.792   0.622   0.844 -0.7857 -0.6563  0.6812
13062SOL     OW39995   5.725   6.472   0.493 -0.9250  0.0469 -1.0033
13062SOL    HW139996   5.737   6.430   0.408  2.6510 -0.2735 -0.4869
13062SOL    HW239997   5.797   6.438   0.547 -0.6307  3.2833  0.8942
13063SOL     OW39998   6.488   2.441   1.970 -0.3464 -0.2816 -0.1157
13063SOL    HW139999   6.486   2.402   1.883 -1.2908 -1.8067  0.5462
13063SOL    HW240000   6.402   2.483   1.980 -1.2121 -2.1881  0.9334
13064SOL     OW40001   1.818   2.899   2.729  0.0735  0.3253 -0.2969
13064SOL    HW140002   1.904   2.857   2.722 -0.0682 -0.2778  1.3164
13064SOL    HW240003   1.838   2.993   2.727  1.0499  0.2481  2.3506
13065SOL     OW40004   6.142   3.512   1.172  0.0761 -0.2325  0.3917
13065SOL    HW140005   6.129   3.454   1.097  1.4832  1.7189 -1.4817
13065SOL    HW240006   6.071   3.576   1.166  0.3003  0.0412  0.6262
13066SOL     OW40007   7.724   1.777   1.506 -0.0759  0.4496 -0.4722
13066SOL    HW140008   7.711   1.823   1.423  0.2886  0.3466 -0.5874
13066SOL    HW240009   7.635   1.758   1.537 -0.2193  0.9220 -0.5946
13067SOL     OW40010   6.116   0.851   2.686  0.4939  0.2665  0.3266
13067SOL    HW140011   6.157   0.933   2.713  0.2101 -0.0296  1.7327
13067SOL    HW240012   6.032   0.876   2.650  1.5617  0.8217 -1.9554
13068SOL     OW40013   2.092   0.561   0.329  0.0927  0.3366  0.1545
13068SOL    HW140014   2.112   0.621   0.401  0.7114 -0.9984  1.1259
13068SOL    HW240015   2.054   0.484   0.371  2.6241 -1.4752 -0.6599
13069SOL     OW40016   1.847   5.999   4.659 -0.1636 -0.3229 -0.6370
13069SOL    HW140017   1.793   6.007   4.738 -1.1800 -0.6199 -1.2888
13069SOL    HW240018   1.786   6.013   4.587  0.5985 -0.8329 -1.3933
13070SOL     OW40019   0.676   5.500   3.753 -0.1111  0.1913 -0.0909
13070SOL    HW140020   0.616   5.476   3.682 -2.6148  2.6599  0.9895
13070SOL    HW240021   0.758   5.522   3.708 -1.0132 -0.1449 -2.0128
13071SOL     OW40022   2.862   6.017   4.352 -0.2082  0.4458  0.3353
13071SOL    HW140023   2.826   5.943   4.304  0.5346  0.8071 -0.8399
13071SOL    HW240024   2.930   6.052   4.293  0.2297  1.3527  1.3550
13072SOL     OW40025   5.426   0.005   2.191 -0.5059 -0.0827 -0.1958
13072SOL    HW140026   5.486   0.045   2.254 -1.3502 -0.4712  0.8850
13072SOL    HW240027   5.392  -0.072   2.237  0.7155 -1.8256 -2.0349
13073SOL     OW40028   0.368   5.359   0.786  0.3317  0.6006 -0.0081
13073SOL    HW140029   0.313   5.325   0.856 -0.1255  2.1590  0.4454
13073SOL    HW240030   0.421   5.426   0.829  0.3271  1.3001 -1.0638
13074SOL     OW40031   1.690   4.363   4.491 -0.3353  0.2788  0.4154
13074SOL    HW140032   1.637   4.385   4.567  1.0164  0.8536  1.2343
13074SOL    HW240033   1.697   4.445   4.442  0.0564  0.2904  0.4878
13075SOL     OW40034   5.830   5.614   6.008 -0.3998  0.8226  0.8755
13075SOL    HW140035   5.846   5.684   5.946  1.1740 -0.5030 -0.2782
13075SOL    HW240036   5.815   5.659   6.091 -2.0800  2.6055 -0.3129
13076SOL     OW40037   3.053   5.034   6.275 -1.0556 -0.2594 -0.2516
13076SOL    HW140038   2.996   5.110   6.265  0.3237  0.9624  0.7496
13076SOL    HW240039   3.007   4.963   6.230 -2.5754  1.0576 -0.8566
13077SOL     OW40040   3.700   0.298   6.270 -0.3767  0.2330  1.0689
13077SOL    HW140041   3.744   0.225   6.314 -0.9553 -0.6556  0.1947
13077SOL    HW240042   3.644   0.335   6.338 -0.4839 -0.4776  1.3829
13078SOL     OW40043   7.978   3.682   0.548 -0.0913 -0.5483  0.9492
13078SOL    HW140044   8.041   3.749   0.524  0.6437 -0.0815  3.8410
13078SOL    HW240045   7.897   3.730   0.566 -0.6468 -0.8974 -0.4506
13079SOL     OW40046   5.983   0.323   6.243  0.0376  0.7233  0.0790
13079SOL    HW140047   5.916   0.391   6.237 -0.1701  0.6803  1.6111
13079SOL    HW240048   5.944   0.248   6.199 -0.8831  0.7448  0.8148
13080SOL     OW40049   5.714   4.774   0.844  0.0834 -0.3773  0.8201
13080SOL    HW140050   5.732   4.858   0.888  2.2281 -2.2861  3.9713
13080SOL    HW240051   5.663   4.724   0.907 -1.0898 -1.5742 -0.9655
13081SOL     OW40052   3.027   1.082   2.901  0.6744 -0.2729  0.3619
13081SOL    HW140053   3.035   1.153   2.965  0.6610  1.7234 -1.7110
13081SOL    HW240054   2.949   1.034   2.928 -0.2021  1.4469  1.0286
13082SOL     OW40055   2.272   3.743   7.863 -0.6318  0.0986 -0.2991
13082SOL    HW140056   2.192   3.732   7.811  0.4467 -1.1179 -1.8337
13082SOL    HW240057   2.294   3.654   7.891  0.9951  0.1578 -1.2527
13083SOL     OW40058   3.973   5.442   5.932 -0.0366 -0.6516  0.1116
13083SOL    HW140059   4.038   5.501   5.970  0.9679 -1.7447  0.1715
13083SOL    HW240060   3.999   5.433   5.840 -0.2652 -0.8730  0.0677
13084SOL     OW40061   0.213   2.463   0.879  0.5519  0.2947 -0.5181
13084SOL    HW140062   0.143   2.457   0.943  1.6568 -0.1976  0.6986
13084SOL    HW240063   0.169   2.467   0.795 -1.0094  2.2939  0.3123
13085SOL     OW40064   7.357   4.008   4.683  0.0704 -0.2328 -0.1917
13085SOL    HW140065   7.332   4.063   4.608 -0.0860  0.1917  0.1662
13085SOL    HW240066   7.282   3.949   4.694 -1.0160  1.2887  1.1153
13086SOL     OW40067   4.510   1.505   0.738 -0.0716 -0.2516  0.0216
13086SOL    HW140068   4.451   1.465   0.802  1.1242 -2.0205  0.1004
13086SOL    HW240069   4.577   1.547   0.792 -0.4299  0.4562 -0.0757
13087SOL     OW40070   4.624   0.877   4.802 -0.4052 -0.2214 -0.2116
13087SOL    HW140071   4.704   0.929   4.804 -1.1335  0.9328 -0.0338
13087SOL    HW240072   4.561   0.928   4.853 -1.1631 -1.2699 -0.0631
13088SOL     OW40073   6.069   6.811   3.253 -0.9243 -0.8442  0.0202
13088SOL    HW140074   6.106   6.899   3.250 -0.6510 -0.9701 -0.3610
13088SOL    HW240075   6.011   6.812   3.329 -1.4245 -0.1362 -0.3589
13089SOL     OW40076   1.548   2.305   4.036 -0.1921 -0.1270  0.3472
13089SOL    HW140077   1.536   2.275   4.125 -1.6967 -0.1515  0.1542
13089SOL    HW240078   1.619   2.251   4.002 -0.8127 -1.3650  0.9608
13090SOL     OW40079   4.622   5.037   3.803 -0.3524 -0.1590 -0.0338
13090SOL    HW140080   4.553   4.994   3.854 -1.3586  0.0348 -1.1838
13090SOL    HW240081   4.585   5.122   3.780  0.8966  0.6078  0.6396
13091SOL     OW40082   2.975   5.588   1.670  0.0255 -0.0249 -0.5192
13091SOL    HW140083   2.938   5.567   1.756 -1.6639 -1.9877 -1.6379
13091SOL    HW240084   3.069   5.570   1.679 -0.3314 -1.5228  0.5744
13092SOL     OW40085   3.716   0.495   1.283  0.2827  0.3106 -0.5878
13092SOL    HW140086   3.765   0.450   1.214  1.1084  0.0665  0.1353
13092SOL    HW240087   3.626   0.498   1.251  0.3682 -1.1289 -1.0100
13093SOL     OW40088   7.128   1.343   1.803  0.1297 -0.0050 -0.2351
13093SOL    HW140089   7.223   1.344   1.818 -0.2083  0.2252  2.2019
13093SOL    HW240090   7.091   1.392   1.876 -1.8787  0.2167 -1.3309
13094SOL     OW40091   5.856   7.120   1.430  0.2497 -0.2375  0.2064
13094SOL    HW140092   5.926   7.058   1.454 -1.2138 -2.5854 -1.2304
13094SOL    HW240093   5.889   7.164   1.352  1.5820  1.4019  1.6143
13095SOL     OW40094   4.155   0.803   7.767 -0.4650  0.1014  0.1434
13095SOL    HW140095   4.188   0.715   7.753  0.0983  0.3069  0.1809
13095SOL    HW240096   4.073   0.790   7.816 -0.7708 -0.4368 -0.4916
13096SOL     OW40097   5.332   4.747   0.643  0.3812  0.2000  0.2295
13096SOL    HW140098   5.268   4.813   0.667 -0.3610 -0.2953 -0.3666
13096SOL    HW240099   5.342   4.693   0.721 -1.9689 -1.3599 -0.4638
13097SOL     OW40100   2.202   1.343   0.522 -0.0430  0.5604  0.3041
13097SOL    HW140101   2.136   1.411   0.513  1.8392  2.4212 -0.1056
13097SOL    HW240102   2.273   1.370   0.465  0.7763 -1.8137  0.0624
13098SOL     OW40103   7.924   7.373   1.680  0.2999  0.2986 -0.0523
13098SOL    HW140104   7.994   7.425   1.720 -0.6746 -0.4005  2.8161
13098SOL    HW240105   7.843   7.415   1.709 -0.4858 -0.5833 -0.8841
13099SOL     OW40106   3.459   3.065   5.712 -0.0785 -0.2736  0.1012
13099SOL    HW140107   3.442   3.159   5.715  0.8718 -0.0695 -0.5027
13099SOL    HW240108   3.534   3.056   5.654  0.2251 -1.3523  0.6314
13100SOL     OW40109   3.690   7.258   4.810 -0.3027 -0.1191 -0.3613
13100SOL    HW140110   3.784   7.271   4.818 -0.5377  1.3208  0.3554
13100SOL    HW240111   3.651   7.322   4.869 -1.7470 -0.5815 -0.7523
13101SOL     OW40112   0.214   3.033   0.891 -0.3875 -0.1471  0.2613
13101SOL    HW140113   0.216   2.945   0.855 -0.8685 -0.8732  1.9067
13101SOL    HW240114   0.277   3.032   0.963  0.2351  1.1158 -0.2400
13102SOL     OW40115   7.113   1.894   4.541  0.0132  0.4647 -1.2022
13102SOL    HW140116   7.076   1.916   4.627  2.4187  2.1289 -0.4880
13102SOL    HW240117   7.118   1.798   4.541 -2.5723  0.2345 -0.7027
13103SOL     OW40118   4.781   5.162   0.255 -0.0071  0.9551  0.2383
13103SOL    HW140119   4.741   5.245   0.228  0.5714  1.5710  1.1955
13103SOL    HW240120   4.711   5.098   0.246 -0.4857  1.5495 -0.4665
13104SOL     OW40121   7.826   1.281   0.535  0.0511 -0.4739 -0.0153
13104SOL    HW140122   7.902   1.230   0.508 -0.8253 -1.1774 -1.2476
13104SOL    HW240123   7.856   1.332   0.611  1.7682 -0.6388 -0.5581
13105SOL     OW40124   6.723   5.261   0.139 -0.1574  0.0852 -0.0601
13105SOL    HW140125   6.711   5.276   0.045 -0.8056 -0.4744 -0.0751
13105SOL    HW240126   6.818   5.269   0.152  0.2826 -2.1845 -1.2307
13106SOL     OW40127   1.809   6.996   6.558 -0.0473  0.2418 -0.2104
13106SOL    HW140128   1.884   6.989   6.617 -0.7719 -0.4737  0.6762
13106SOL    HW240129   1.796   6.907   6.526 -1.0225  0.1781  0.3209
13107SOL     OW40130   5.416   2.705   3.260 -0.0074  0.7076  0.1717
13107SOL    HW140131   5.347   2.659   3.308  0.2703  1.5192  1.4033
13107SOL    HW240132   5.405   2.678   3.169 -1.1726 -0.1208  0.5429
13108SOL     OW40133   0.563   6.676   4.326  0.0529  0.4471 -0.0143
13108SOL    HW140134   0.529   6.686   4.415 -1.3727 -0.8055 -0.3747
13108SOL    HW240135   0.569   6.765   4.293 -0.5387  0.8621  0.9375
13109SOL     OW40136   4.866   0.249   1.988 -0.2132 -0.4577 -0.4267
13109SOL    HW140137   4.935   0.257   2.054 -0.5166  1.7763 -0.3101
13109SOL    HW240138   4.835   0.158   1.996 -0.2596 -0.2736  2.5173
13110SOL     OW40139   1.932   5.602   3.532 -0.2161  0.2569 -0.2064
13110SOL    HW140140   1.961   5.655   3.457 -1.8702 -0.0061 -1.0674
13110SOL    HW240141   1.951   5.512   3.507  1.3870  0.2956  0.7143
13111SOL     OW40142   1.443   2.608   6.269  0.2391  0.4607  0.4074
13111SOL    HW140143   1.510   2.583   6.333 -0.3142 -0.5033  0.6370
13111SOL    HW240144   1.360   2.582   6.310 -0.1549  0.2039 -0.5236
13112SOL     OW40145   1.178   5.996   1.740 -0.3968  0.4079  0.1829
13112SOL    HW140146   1.272   5.985   1.759 -0.1774  0.6711 -0.7192
13112SOL    HW240147   1.139   5.913   1.767 -0.1432  0.8013  1.9391
13113SOL     OW40148   5.564   4.540   1.904  0.1681 -0.3754 -0.2449
13113SOL    HW140149   5.500   4.475   1.874  0.8040 -0.7921 -0.7091
13113SOL    HW240150   5.647   4.511   1.868  0.5390  0.4610 -0.0887
13114SOL     OW40151   7.042   4.068   4.771 -0.0188  0.5151  0.0063
13114SOL    HW140152   7.048   4.152   4.816  1.4184  0.9370 -0.9216
13114SOL    HW240153   7.022   4.091   4.680 -0.2804 -0.1820 -0.1152
13115SOL     OW40154   7.511   4.591   2.661  0.1644 -0.3687 -0.3693
13115SOL    HW140155   7.449   4.518   2.669  0.3115 -0.4485  0.0795
13115SOL    HW240156   7.556   4.593   2.745  0.0511  0.3441 -0.3260
13116SOL     OW40157   5.685   3.628   3.296 -0.0780  0.2221  0.1276
13116SOL    HW140158   5.650   3.701   3.245 -1.1210  0.8090  1.6084
13116SOL    HW240159   5.629   3.553   3.274  0.0328  0.2467 -0.2400
13117SOL     OW40160   2.823   2.483   2.011 -0.4690  0.4034 -0.5708
13117SOL    HW140161   2.868   2.398   2.011 -0.3356  0.4088  2.0515
13117SOL    HW240162   2.730   2.460   2.008 -0.4311  0.1514  0.0332
13118SOL     OW40163   5.974   5.225   7.838  0.2123 -0.3989  0.2934
13118SOL    HW140164   5.983   5.175   7.757  0.0573 -1.0128  0.6512
13118SOL    HW240165   6.048   5.197   7.892  1.2992  1.2545 -0.2716
13119SOL     OW40166   1.731   0.798   0.904 -0.0887  0.3812  0.8058
13119SOL    HW140167   1.809   0.841   0.938 -0.6020  1.3047  0.8569
13119SOL    HW240168   1.755   0.706   0.897  0.2977  0.2809  2.9208
13120SOL     OW40169   2.470   0.987   4.172  0.0197 -0.0910  0.7281
13120SOL    HW140170   2.560   0.984   4.206  0.7350 -1.5924 -1.0705
13120SOL    HW240171   2.426   0.913   4.214  0.2331 -0.5530  0.1596
13121SOL     OW40172   2.761   6.857   6.492 -0.2556  0.1527  1.1153
13121SOL    HW140173   2.675   6.841   6.531 -0.1278 -2.3464  0.5194
13121SOL    HW240174   2.821   6.854   6.567 -0.3283 -1.7545  1.1442
13122SOL     OW40175   4.352   6.245   3.834 -0.2798 -0.0001 -0.5862
13122SOL    HW140176   4.406   6.188   3.779  0.1290 -0.0739 -0.1192
13122SOL    HW240177   4.303   6.299   3.773  1.5232  1.2101 -1.0352
13123SOL     OW40178   3.503   6.359   3.791  0.0453 -0.0449 -0.1085
13123SOL    HW140179   3.580   6.315   3.754 -0.8272 -1.7766  0.0437
13123SOL    HW240180   3.449   6.382   3.715 -1.2044 -2.5762 -0.0815
13124SOL     OW40181   6.949   2.803   7.290  0.1305  0.9340 -0.0985
13124SOL    HW140182   6.925   2.843   7.206  0.5470  1.6211  0.1061
13124SOL    HW240183   6.905   2.857   7.356 -1.3328 -0.4121  0.0841
13125SOL     OW40184   5.208   4.288   0.293 -0.1644 -0.0509 -0.0068
13125SOL    HW140185   5.220   4.281   0.388  0.5361  0.7265 -0.0316
13125SOL    HW240186   5.126   4.337   0.283 -0.0111  0.2503  0.1988
13126SOL     OW40187   5.684   1.456   2.876 -0.4452 -0.1134 -0.4154
13126SOL    HW140188   5.620   1.386   2.890 -1.0554  0.4207 -0.5365
13126SOL    HW240189   5.646   1.510   2.806  0.2518  0.0655 -0.6651
13127SOL     OW40190   3.895   2.797   5.493  0.5327 -0.0257 -0.0503
13127SOL    HW140191   3.938   2.873   5.533  0.1042 -1.0709  2.5655
13127SOL    HW240192   3.957   2.766   5.428  1.0739  2.0288 -0.6075
13128SOL     OW40193   0.987   4.608   6.862  0.4487  0.2870  0.6166
13128SOL    HW140194   0.907   4.565   6.890  0.0400  0.9295  0.4548
13128SOL    HW240195   1.043   4.608   6.940  0.3090 -0.1997  0.7155
13129SOL     OW40196   4.100   5.888   1.799  0.2795 -0.2374  0.2477
13129SOL    HW140197   4.196   5.881   1.796  0.4334  1.0589  1.1109
13129SOL    HW240198   4.084   5.964   1.855 -1.2878 -1.0213  0.9015
13130SOL     OW40199   7.993   5.720   5.597 -0.3186  0.3827 -0.0072
13130SOL    HW140200   7.918   5.778   5.581  0.2232  1.3636  0.8425
13130SOL    HW240201   8.056   5.745   5.529 -0.4451  0.1363 -0.2144
13131SOL     OW40202   3.938   3.407   7.315  0.3861 -0.0341 -0.0230
13131SOL    HW140203   3.891   3.370   7.389 -1.8003 -0.2770 -1.4266
13131SOL    HW240204   3.996   3.336   7.286 -0.3021 -0.6947  0.1784
13132SOL     OW40205   3.658   2.988   3.129 -0.0713 -0.6934 -0.3563
13132SOL    HW140206   3.669   3.061   3.068 -1.8097  1.1764  1.4058
13132SOL    HW240207   3.680   2.910   3.078  3.5062  1.1014 -1.8713
13133SOL     OW40208   0.456   1.410   2.431 -0.0585 -0.1043  0.9945
13133SOL    HW140209   0.470   1.378   2.342  0.0219  0.3351  0.8445
13133SOL    HW240210   0.515   1.486   2.438 -0.9043  0.5620  1.0295
13134SOL     OW40211   5.671   7.995   6.094  0.0898 -0.1345 -0.3538
13134SOL    HW140212   5.761   8.009   6.126  0.6413 -0.7709 -1.5591
13134SOL    HW240213   5.654   8.069   6.037 -0.0336 -0.1691 -0.3618
13135SOL     OW40214   4.555   7.067   4.033  0.1013 -0.2170  0.2084
13135SOL    HW140215   4.646   7.080   4.061  0.7255  1.2233 -2.2413
13135SOL    HW240216   4.544   6.972   4.028  2.0725 -0.4088 -1.2049
13136SOL     OW40217   7.087   7.921   3.701 -0.0386  0.1762  0.2585
13136SOL    HW140218   7.045   8.007   3.710  2.2552  1.4214 -0.2844
13136SOL    HW240219   7.141   7.912   3.779 -0.1212 -0.7195  0.2258
13137SOL     OW40220   3.560   5.451   4.748  0.7726 -0.0016 -0.1887
13137SOL    HW140221   3.573   5.486   4.660 -0.9091  0.3666 -0.3290
13137SOL    HW240222   3.552   5.356   4.735 -2.5046  0.2739 -0.9173
13138SOL     OW40223   6.170   1.082   0.788 -0.5130  0.1171 -0.1033
13138SOL    HW140224   6.119   1.135   0.727 -0.4139 -1.4427 -1.6348
13138SOL    HW240225   6.112   1.009   0.811 -0.0878  0.0089  0.6547
13139SOL     OW40226   4.977   7.938   1.084  0.2259 -0.8585  0.0173
13139SOL    HW140227   4.946   7.957   0.996 -3.5845  2.7492  1.8164
13139SOL    HW240228   5.047   8.001   1.099 -0.3018 -0.2867  0.1088
13140SOL     OW40229   2.821   1.585   0.588  0.8506 -0.0859  0.5540
13140SOL    HW140230   2.822   1.496   0.552  1.1814 -0.5608  1.6963
13140SOL    HW240231   2.819   1.573   0.683  0.7302  1.1307  0.7257
13141SOL     OW40232   1.423   3.648   5.748  0.2567 -0.3722  0.4365
13141SOL    HW140233   1.482   3.715   5.781 -1.8948  0.2880  3.3637
13141SOL    HW240234   1.440   3.645   5.653  2.7177  1.9043  0.6925
13142SOL     OW40235   0.319   5.758   3.200 -0.7888 -0.2192  0.3355
13142SOL    HW140236   0.259   5.831   3.187 -0.0429  0.2478 -0.6353
13142SOL    HW240237   0.268   5.693   3.247 -2.2909 -0.1322 -1.0908
13143SOL     OW40238   2.496   5.693   3.513 -0.4781 -0.0553  0.2488
13143SOL    HW140239   2.449   5.620   3.554  0.0435 -0.7991 -0.4479
13143SOL    HW240240   2.556   5.651   3.451  0.3526  0.9295  0.3642
13144SOL     OW40241   3.300   6.406   4.497  0.3352  0.2206 -0.0827
13144SOL    HW140242   3.245   6.352   4.439  0.1774  0.7890 -0.4697
13144SOL    HW240243   3.263   6.392   4.584  0.3741 -0.3944 -0.1588
13145SOL     OW40244   2.560   4.945   3.709  0.1950  0.4845  0.1258
13145SOL    HW140245   2.555   5.032   3.669  3.2478 -0.1097 -1.8862
13145SOL    HW240246   2.619   4.896   3.651 -1.8813 -3.1621  0.8006
13146SOL     OW40247   1.450   3.026   0.258  0.0833  0.5266 -0.3509
13146SOL    HW140248   1.541   3.009   0.237 -0.4815 -0.0074 -2.5781
13146SOL    HW240249   1.401   2.997   0.181 -2.0703 -0.0946  1.1460
13147SOL     OW40250   5.719   6.972   4.748 -0.2329  0.4238  0.3422
13147SOL    HW140251   5.758   7.058   4.768 -1.4318  0.7594  1.4336
13147SOL    HW240252   5.767   6.940   4.672  0.5467  1.8627  0.1988
13148SOL     OW40253   2.638   5.239   0.779 -0.6742  0.1318  0.1124
13148SOL    HW140254   2.648   5.308   0.713 -0.4860  0.2487  0.2620
13148SOL    HW240255   2.716   5.246   0.833 -0.5864 -0.2967  0.0414
13149SOL     OW40256   0.205   2.500   6.153  0.0015 -0.2912  0.2824
13149SOL    HW140257   0.220   2.551   6.232  0.7821  0.8729 -0.5803
13149SOL    HW240258   0.270   2.429   6.157  1.0100  0.5992  0.0093
13150SOL     OW40259   1.295   0.831   1.737 -1.1562 -0.6739  0.8129
13150SOL    HW140260   1.275   0.903   1.676 -0.9832 -0.7426  0.6742
13150SOL    HW240261   1.260   0.753   1.694 -0.9311 -0.7390  0.7479
13151SOL     OW40262   6.940   2.905   1.916  0.2270  0.5674 -0.2990
13151SOL    HW140263   6.999   2.878   1.846 -2.3979  2.2909 -3.5022
13151SOL    HW240264   6.876   2.834   1.924  1.1013 -0.0949  1.2068
13152SOL     OW40265   7.171   5.881   1.964  0.2728  0.5071 -0.4541
13152SOL    HW140266   7.254   5.928   1.977  0.0926  0.5649  0.6273
13152SOL    HW240267   7.168   5.819   2.037  0.2837 -0.8797 -1.6048
13153SOL     OW40268   5.550   2.645   0.326  0.4548  0.1035 -0.0559
13153SOL    HW140269   5.509   2.729   0.303 -0.5641 -0.5120 -0.5522
13153SOL    HW240270   5.505   2.617   0.405 -0.7747 -1.0034 -1.0904
13154SOL     OW40271   6.747   6.181   4.027  0.0974 -0.1304  0.4723
13154SOL    HW140272   6.701   6.176   4.110 -2.2303 -2.7934 -0.7803
13154SOL    HW240273   6.838   6.160   4.048 -0.6574 -1.9641  2.2546
13155SOL     OW40274   1.081   4.423   2.792  1.0917  0.3713  0.6873
13155SOL    HW140275   1.161   4.376   2.766  1.0313 -0.3720  1.7648
13155SOL    HW240276   1.052   4.378   2.871 -1.0605 -0.1498 -0.3168
13156SOL     OW40277   4.292   1.972   2.805 -0.4021  0.1268 -0.8507
13156SOL    HW140278   4.231   1.972   2.878 -0.5223 -1.7688 -0.9032
13156SOL    HW240279   4.332   2.059   2.807  0.7071 -0.2997  2.4110
13157SOL     OW40280   5.056   0.320   0.355  0.3125 -0.0365 -0.8377
13157SOL    HW140281   5.053   0.376   0.278 -0.4614  0.0404 -0.7575
13157SOL    HW240282   5.124   0.255   0.336 -0.8288 -0.8860 -2.1810
13158SOL     OW40283   2.090   5.725   4.504 -0.6350  0.4545 -0.2617
13158SOL    HW140284   2.059   5.704   4.592  0.2731  1.0347  0.2050
13158SOL    HW240285   2.176   5.765   4.517  0.0025 -0.4407 -1.4785
13159SOL     OW40286   6.443   7.970   0.071  0.0210  0.8610  0.2900
13159SOL    HW140287   6.468   7.887   0.030  2.0489  0.9532  1.1986
13159SOL    HW240288   6.401   7.945   0.153 -1.2663  0.7287 -0.3879
13160SOL     OW40289   2.545   5.210   6.723  0.2306 -0.2864 -0.8273
13160SOL    HW140290   2.521   5.121   6.698  3.3697 -0.7676 -2.6391
13160SOL    HW240291   2.630   5.201   6.767  0.0050  1.7158  0.1454
13161SOL     OW40292   6.606   5.902   5.101  0.1117  0.6828 -0.0403
13161SOL    HW140293   6.520   5.859   5.093  0.2639  0.6188 -1.5040
13161SOL    HW240294   6.586   5.994   5.113 -0.1653  0.6096  0.0700
13162SOL     OW40295   0.868   5.337   4.364 -0.5135  0.3832 -0.2773
13162SOL    HW140296   0.784   5.315   4.324 -0.1884 -1.1099 -0.1980
13162SOL    HW240297   0.851   5.417   4.414 -1.5545  0.8247 -1.2970
13163SOL     OW40298   4.126   5.218   2.804 -0.0739 -0.0536 -0.4789
13163SOL    HW140299   4.039   5.258   2.806  0.3858  1.0710 -1.3094
13163SOL    HW240300   4.147   5.212   2.711 -0.0243 -2.0978 -0.3656
13164SOL     OW40301   2.369   0.104   7.908 -0.3121 -0.0400 -0.3103
13164SOL    HW140302   2.426   0.179   7.924  0.6720 -0.8382  0.0044
13164SOL    HW240303   2.426   0.028   7.913 -1.1668 -0.7829 -1.3147
13165SOL     OW40304   1.144   1.294   3.013  0.6109  0.2186  0.2633
13165SOL    HW140305   1.055   1.275   3.043 -0.4686  3.4118 -0.5635
13165SOL    HW240306   1.134   1.316   2.920  1.8771  2.6453  0.6285
13166SOL     OW40307   2.735   6.177   1.815 -0.1321  0.0841  0.7079
13166SOL    HW140308   2.713   6.270   1.804 -0.6045 -0.2025 -1.2635
13166SOL    HW240309   2.678   6.147   1.886 -1.3597  0.8910  0.1166
13167SOL     OW40310   2.611   4.023   0.515 -0.0795  0.4772 -0.0946
13167SOL    HW140311   2.582   3.987   0.599  0.1985  1.3880  0.4089
13167SOL    HW240312   2.611   3.949   0.455 -0.9112 -0.0602  0.5517
13168SOL     OW40313   5.259   4.086   6.261 -0.2456  0.3647 -0.1465
13168SOL    HW140314   5.292   4.150   6.324  0.8398  0.2165 -0.5481
13168SOL    HW240315   5.167   4.109   6.250  0.0448  1.6503 -0.0302
13169SOL     OW40316   7.427   1.205   3.291  0.6503  0.2108 -0.1268
13169SOL    HW140317   7.405   1.291   3.256  0.7980  0.4595  0.3754
13169SOL    HW240318   7.428   1.218   3.386  1.7826 -0.0621 -0.0831
13170SOL     OW40319   6.683   6.406   0.741 -0.3082  0.5089 -0.5580
13170SOL    HW140320   6.745   6.436   0.808  0.2807  0.4287 -1.0538
13170SOL    HW240321   6.661   6.485   0.692  1.7544  0.1038 -2.2838
13171SOL     OW40322   0.461   1.173   3.336 -0.4250  0.4176  0.1398
13171SOL    HW140323   0.453   1.259   3.379  0.5504  0.1107  0.9743
13171SOL    HW240324   0.419   1.185   3.251  0.9775  2.1543 -0.3674
13172SOL     OW40325   6.281   5.377   7.168 -0.1562 -0.5731  0.1735
13172SOL    HW140326   6.222   5.451   7.156  0.5719 -0.3923 -2.9396
13172SOL    HW240327   6.259   5.317   7.097  1.9016 -1.5411  0.3043
13173SOL     OW40328   6.937   6.739   5.011 -0.4550 -0.4136 -0.2443
13173SOL    HW140329   6.899   6.826   5.022  1.5047  0.3791  0.6324
13173SOL    HW240330   6.866   6.679   5.035 -1.7331  0.9243 -0.5119
13174SOL     OW40331   6.161   4.437   2.524  0.0061 -0.0106 -0.0389
13174SOL    HW140332   6.234   4.378   2.541  0.0677 -0.2574 -1.0710
13174SOL    HW240333   6.142   4.425   2.430 -1.4908 -0.1193  0.2557
13175SOL     OW40334   1.036   2.637   0.912 -0.7823  0.1984 -0.2386
13175SOL    HW140335   1.115   2.679   0.947 -0.4644  0.8386 -1.6803
13175SOL    HW240336   1.064   2.549   0.887 -0.9467 -0.1679  0.8078
13176SOL     OW40337   7.528   0.224   0.267  0.4215 -0.3425 -0.1077
13176SOL    HW140338   7.548   0.149   0.211 -0.7883  0.1738 -1.3078
13176SOL    HW240339   7.583   0.213   0.344  1.4343 -1.6045 -0.9810
13177SOL     OW40340   6.469   2.439   6.663 -0.3360  0.3024  0.0729
13177SOL    HW140341   6.403   2.476   6.721  0.8116 -1.3957  2.6521
13177SOL    HW240342   6.535   2.401   6.722  2.2451  0.6605 -2.3525
13178SOL     OW40343   4.294   7.799   2.065  0.1007 -0.2032 -0.4578
13178SOL    HW140344   4.346   7.827   2.141  1.9201  0.6826 -1.9585
13178SOL    HW240345   4.350   7.738   2.018 -0.0679  0.9444 -2.2445
13179SOL     OW40346   3.151   3.155   5.604 -0.8515 -0.1509  0.2092
13179SOL    HW140347   3.060   3.185   5.600 -0.4775  1.0481  0.4269
13179SOL    HW240348   3.155   3.084   5.540 -1.8615 -0.0145 -0.0349
13180SOL     OW40349   0.274   4.995   6.866 -0.2814  0.0939  0.1802
13180SOL    HW140350   0.224   4.922   6.830 -0.0669 -1.1172  2.2108
13180SOL    HW240351   0.352   4.955   6.903  0.2297  1.4586  0.6486
13181SOL     OW40352   0.702   2.872   4.772 -0.0739 -0.6680  0.1363
13181SOL    HW140353   0.632   2.896   4.711 -1.1637 -0.3658  1.4417
13181SOL    HW240354   0.687   2.928   4.849  2.4258  0.3691 -0.0346
13182SOL     OW40355   2.215   7.130   3.773  0.3184  0.1667  0.2427
13182SOL    HW140356   2.134   7.180   3.785 -0.5272 -1.2848  0.7589
13182SOL    HW240357   2.186   7.042   3.751  1.6031 -1.3192  3.7737
13183SOL     OW40358   1.991   7.050   4.408  0.3101  0.1324 -0.0410
13183SOL    HW140359   1.898   7.037   4.427  0.2962 -1.4730 -1.0733
13183SOL    HW240360   2.033   7.048   4.494 -0.5418  0.3312  0.3936
13184SOL     OW40361   5.784   4.410   4.427 -0.1017 -0.0409 -0.3573
13184SOL    HW140362   5.747   4.338   4.478  2.0425 -0.4430  0.7430
13184SOL    HW240363   5.709   4.451   4.385 -1.4734 -2.5027 -0.4883
13185SOL     OW40364   7.153   4.494   1.286  0.5037  0.2544 -0.5972
13185SOL    HW140365   7.104   4.542   1.219 -1.4709  1.0662  1.3114
13185SOL    HW240366   7.245   4.511   1.265 -0.0189  0.4574 -3.0526
13186SOL     OW40367   1.274   2.162   6.261  0.3709 -0.3308  0.7651
13186SOL    HW140368   1.199   2.181   6.205  2.2123  0.9728 -1.4455
13186SOL    HW240369   1.283   2.067   6.257 -1.6686 -0.6246  1.8608
13187SOL     OW40370   6.642   6.178   4.322  0.0297  0.5548  0.0835
13187SOL    HW140371   6.660   6.084   4.313 -0.4855  0.4931 -0.2822
13187SOL    HW240372   6.654   6.195   4.416 -2.7313 -0.4900  0.7084
13188SOL     OW40373   6.380   0.868   4.873 -0.3908  0.4295 -0.1012
13188SOL    HW140374   6.396   0.953   4.915  2.1008  0.3708 -0.7919
13188SOL    HW240375   6.459   0.817   4.890 -0.7582 -0.8388 -1.8654
13189SOL     OW40376   7.796   3.222   3.246  0.2246  0.6245  0.4198
13189SOL    HW140377   7.813   3.304   3.200  3.5816  0.8567  1.7759
13189SOL    HW240378   7.740   3.247   3.319 -0.5518  1.2825 -0.3808
13190SOL     OW40379   2.213   0.946   4.670 -0.1528  0.1254  0.0667
13190SOL    HW140380   2.230   0.984   4.756 -1.8058 -1.4502  1.1600
13190SOL    HW240381   2.129   0.984   4.643 -0.7216 -1.0095  0.1770
13191SOL     OW40382   3.334   3.966   4.946  0.6385 -0.1300  0.2650
13191SOL    HW140383   3.301   4.037   4.891  0.7018 -0.9602 -0.8821
13191SOL    HW240384   3.259   3.941   5.000 -0.5987 -1.6699 -1.9749
13192SOL     OW40385   2.531   6.143   0.982 -0.7540  0.6836  0.2483
13192SOL    HW140386   2.510   6.161   1.073 -2.1160 -1.4992  0.4147
13192SOL    HW240387   2.527   6.048   0.973 -0.5455  0.8163 -2.0747
13193SOL     OW40388   1.911   4.353   6.289  0.2977 -0.5276 -0.4614
13193SOL    HW140389   1.948   4.437   6.262  0.8019  0.1156  1.9929
13193SOL    HW240390   1.822   4.354   6.255  0.2664  1.0590 -0.3906
13194SOL     OW40391   0.527   7.800   2.365  0.1414  0.1465 -0.0252
13194SOL    HW140392   0.601   7.823   2.420  0.8183  0.4793 -1.0572
13194SOL    HW240393   0.559   7.727   2.311 -0.2669  0.3184 -0.5036
13195SOL     OW40394   3.874   7.390   4.485 -0.5069  0.3746 -0.8654
13195SOL    HW140395   3.807   7.346   4.432 -0.3428  0.1623 -0.8954
13195SOL    HW240396   3.835   7.475   4.505 -0.4241  0.6032 -1.6322
13196SOL     OW40397   5.714   0.719   6.899  0.4378  0.0880  0.5207
13196SOL    HW140398   5.711   0.787   6.966  2.1166  0.1302  0.6088
13196SOL    HW240399   5.677   0.760   6.821  1.6567  1.2245  0.5046
13197SOL     OW40400   0.365   5.080   7.511  0.6273  0.5459  1.0330
13197SOL    HW140401   0.336   5.007   7.456  0.9245  1.0554  0.1869
13197SOL    HW240402   0.310   5.074   7.589 -0.3163  0.2503  0.3666
13198SOL     OW40403   5.588   6.503   5.120 -0.2192 -0.4620 -0.1303
13198SOL    HW140404   5.512   6.509   5.176 -0.9263 -1.7457 -0.8995
13198SOL    HW240405   5.656   6.463   5.175  0.3262  1.7192  0.9042
13199SOL     OW40406   3.113   4.405   1.157 -0.1368 -0.3277  0.6192
13199SOL    HW140407   3.103   4.496   1.129 -0.6398 -0.3341  0.7798
13199SOL    HW240408   3.147   4.411   1.246 -2.3819 -0.2509  1.5383
13200SOL     OW40409   3.918   7.346   7.227  0.0909 -0.5312 -0.8435
13200SOL    HW140410   3.859   7.277   7.197  1.1022 -1.8475  0.0971
13200SOL    HW240411   3.860   7.416   7.256 -1.0332 -1.7966  0.0901
13201SOL     OW40412   6.961   5.025   4.234 -0.3170  0.0607  0.0514
13201SOL    HW140413   6.917   5.009   4.150  0.0295 -0.9921  0.0607
13201SOL    HW240414   6.937   5.115   4.256 -2.3697 -0.4264  0.0098
13202SOL     OW40415   4.449   6.505   1.086  0.4752 -0.0677  0.1607
13202SOL    HW140416   4.480   6.420   1.055  1.1827  0.1885  0.1302
13202SOL    HW240417   4.473   6.566   1.016 -0.6498  0.0569 -0.1267
13203SOL     OW40418   4.212   5.025   2.305  0.1386 -0.7792  0.2160
13203SOL    HW140419   4.124   5.053   2.280  0.4857  0.9280  0.7235
13203SOL    HW240420   4.224   5.059   2.393  1.1104 -1.4653  0.3612
13204SOL     OW40421   7.787   6.116   0.180 -0.4538 -0.3858 -0.1369
13204SOL    HW140422   7.742   6.194   0.214  2.5357  1.2011  0.5191
13204SOL    HW240423   7.775   6.050   0.247  0.4211  0.8620  1.3051
13205SOL     OW40424   5.019   1.324   3.985 -0.0224 -0.0555  0.1624
13205SOL    HW140425   5.058   1.400   3.942  0.7171 -0.4706  0.0939
13205SOL    HW240426   4.997   1.264   3.914 -0.6095  0.0855  0.2158
13206SOL     OW40427   5.018   0.824   1.801  0.1978 -0.4342 -0.2708
13206SOL    HW140428   5.002   0.747   1.746 -0.9947  0.6694 -1.5458
13206SOL    HW240429   4.966   0.809   1.880 -0.7534 -0.5468 -0.9034
13207SOL     OW40430   2.138   2.055   2.213 -0.2467 -0.2598 -0.3115
13207SOL    HW140431   2.208   2.019   2.268 -0.7286  0.1645  0.5921
13207SOL    HW240432   2.058   2.040   2.263 -0.6792  0.2250 -0.8505
13208SOL     OW40433   7.990   5.423   6.564 -0.2321 -0.4514 -0.2238
13208SOL    HW140434   7.980   5.331   6.538 -0.3322 -0.7052  0.6925
13208SOL    HW240435   8.084   5.434   6.577 -0.3844 -0.9374  1.4609
13209SOL     OW40436   2.892   5.600   1.927 -0.2493  0.1952 -0.5052
13209SOL    HW140437   2.928   5.564   2.008  0.5336 -2.2551 -1.8327
13209SOL    HW240438   2.800   5.573   1.927 -0.3208  0.4398 -0.3029
13210SOL     OW40439   5.962   7.269   1.251  0.0688  0.2891 -0.7008
13210SOL    HW140440   5.918   7.351   1.275  0.0733  0.0627  0.1280
13210SOL    HW240441   6.030   7.295   1.190  0.3024  0.9608 -0.1689
13211SOL     OW40442   0.672   7.478   7.477 -0.0114  0.2879  0.2681
13211SOL    HW140443   0.609   7.550   7.477  0.3424  0.7029 -2.4380
13211SOL    HW240444   0.618   7.399   7.487 -0.8876  0.6923 -1.0411
13212SOL     OW40445   2.481   1.055   6.844 -0.2956 -0.7890 -0.1193
13212SOL    HW140446   2.457   1.044   6.752 -1.2625  1.3702 -0.1778
13212SOL    HW240447   2.531   0.976   6.865  0.6954 -0.9415 -2.7204
13213SOL     OW40448   3.259   3.199   0.024 -0.4160 -0.1201  0.0765
13213SOL    HW140449   3.328   3.221  -0.038 -1.2687  0.6768 -0.6233
13213SOL    HW240450   3.304   3.157   0.096  0.7009 -0.3553 -0.7307
13214SOL     OW40451   0.160   5.771   5.409 -0.3493 -0.6958  0.3925
13214SOL    HW140452   0.117   5.804   5.330 -1.4439 -2.4269  0.1963
13214SOL    HW240453   0.253   5.774   5.388 -0.5193  0.4323 -0.3064
13215SOL     OW40454   7.117   2.060   3.409 -0.5332  0.1629 -0.1662
13215SOL    HW140455   7.166   2.138   3.380  2.0602 -1.0130  0.7573
13215SOL    HW240456   7.026   2.088   3.407  0.0613  2.3918 -2.4087
13216SOL     OW40457   4.075   1.844   0.222  0.1548 -0.1184 -0.1735
13216SOL    HW140458   4.095   1.753   0.243 -0.1979 -0.2456 -0.3778
13216SOL    HW240459   4.035   1.879   0.301  0.7428  0.0019  0.0740
13217SOL     OW40460   6.871   5.263   6.468  0.3640 -0.0131  0.0864
13217SOL    HW140461   6.835   5.318   6.399  2.7057 -0.7421 -1.8319
13217SOL    HW240462   6.849   5.174   6.441  0.1525 -0.2522  1.0123
13218SOL     OW40463   5.487   0.149   2.792  0.3622  0.2747 -0.5936
13218SOL    HW140464   5.401   0.143   2.835 -1.5603  2.4569 -3.7361
13218SOL    HW240465   5.489   0.074   2.732  0.8654  0.0439 -0.3012
13219SOL     OW40466   5.248   0.928   4.557 -0.3204  0.0715 -0.2208
13219SOL    HW140467   5.181   0.862   4.539  0.9640 -1.0945 -0.8878
13219SOL    HW240468   5.245   0.987   4.481 -1.3041  0.6706  0.2623
13220SOL     OW40469   5.653   4.032   7.860  0.2583  0.3252 -0.1446
13220SOL    HW140470   5.703   4.064   7.786 -0.9466  2.6228 -0.0331
13220SOL    HW240471   5.583   3.980   7.821  0.6213  0.0810 -0.4868
13221SOL     OW40472   0.851   7.702   3.372  0.1349  0.0496 -0.0374
13221SOL    HW140473   0.811   7.662   3.450 -0.9201 -0.3982 -0.7822
13221SOL    HW240474   0.858   7.795   3.394 -1.3547  0.1513  0.1362
13222SOL     OW40475   1.540   4.058   4.287 -0.4184 -0.2943  0.0592
13222SOL    HW140476   1.488   4.138   4.284 -0.3516 -0.2633 -0.3823
13222SOL    HW240477   1.479   3.990   4.258 -0.0111 -0.1416 -1.2225
13223SOL     OW40478   5.170   1.588   3.595 -0.5470 -0.0266  0.5374
13223SOL    HW140479   5.197   1.677   3.571 -0.9334  0.7204  2.6483
13223SOL    HW240480   5.252   1.538   3.597 -0.3256  0.2568 -0.6732
13224SOL     OW40481   2.776   5.125   7.329 -0.2937 -0.4939  1.2258
13224SOL    HW140482   2.844   5.179   7.369 -1.5434 -0.2747  3.2459
13224SOL    HW240483   2.800   5.035   7.354  0.0823 -0.5732  0.5917
13225SOL     OW40484   2.466   5.488   4.058 -0.1725 -0.1222  0.3105
13225SOL    HW140485   2.379   5.499   4.020 -0.7695 -0.7470  1.4200
13225SOL    HW240486   2.525   5.530   3.996 -1.1964 -0.2274 -0.7690
13226SOL     OW40487   5.351   1.560   1.011 -0.1287 -0.2754 -0.7234
13226SOL    HW140488   5.343   1.486   1.072 -0.4029  0.7716  0.5378
13226SOL    HW240489   5.444   1.563   0.989  0.2300  0.1838  0.7548
13227SOL     OW40490   2.938   1.560   2.445  0.5076  0.3646  0.1469
13227SOL    HW140491   2.874   1.547   2.375  0.9612 -0.5951 -0.1096
13227SOL    HW240492   2.941   1.475   2.490  0.6238  0.8054  0.9974
13228SOL     OW40493   1.142   7.197   6.188 -0.2917 -0.1842 -0.7884
13228SOL    HW140494   1.162   7.104   6.195  1.8044  0.1526 -1.5558
13228SOL    HW240495   1.189   7.238   6.261 -3.2919  0.0985  1.1853
13229SOL     OW40496   7.255   0.512   5.967  0.3894  1.0681 -0.4644
13229SOL    HW140497   7.309   0.575   6.015  1.4205  1.0743 -1.5935
13229SOL    HW240498   7.260   0.540   5.875  0.8928 -0.6633 -0.9992
13230SOL     OW40499   0.628   5.894   7.340 -0.2641 -1.2035  0.1354
13230SOL    HW140500   0.714   5.904   7.383  0.0621 -2.3753 -0.2008
13230SOL    HW240501   0.649   5.886   7.247 -0.6144 -2.6654  0.1542
13231SOL     OW40502   6.253   3.048   6.954  0.1707  0.1308  0.5575
13231SOL    HW140503   6.283   2.975   7.008  1.0127  1.0032  1.2897
13231SOL    HW240504   6.333   3.086   6.918 -0.3497 -0.2893 -1.1709
13232SOL     OW40505   2.339   7.437   2.396 -0.2766  0.6888 -0.2910
13232SOL    HW140506   2.286   7.482   2.329  1.2428  1.7038 -0.8809
13232SOL    HW240507   2.325   7.488   2.476  0.8439  1.8200 -0.7794
13233SOL     OW40508   5.942   5.523   6.274  0.1954 -0.2066  0.8843
13233SOL    HW140509   5.985   5.514   6.189  1.5592 -1.4247  1.6569
13233SOL    HW240510   5.885   5.447   6.280  0.5662 -0.4551  1.3047
13234SOL     OW40511   4.113   5.631   5.214  0.1890 -0.5477  0.0233
13234SOL    HW140512   4.146   5.692   5.280 -1.7456 -0.6427  1.1495
13234SOL    HW240513   4.126   5.676   5.130  2.1209 -0.1643  0.4961
13235SOL     OW40514   0.018   3.971   6.659  0.1134  0.3245  0.5765
13235SOL    HW140515  -0.006   3.967   6.752  0.1227 -0.3323  0.5513
13235SOL    HW240516   0.113   3.963   6.659  0.5153  3.5914  0.7268
13236SOL     OW40517   2.118   0.351   4.002 -0.6907 -0.1377 -0.0703
13236SOL    HW140518   2.181   0.330   4.071 -0.4008 -0.1288 -0.3290
13236SOL    HW240519   2.134   0.444   3.983  0.7529 -0.6656 -1.6688
13237SOL     OW40520   5.415   2.167   3.101  0.3962  0.1726  0.0237
13237SOL    HW140521   5.501   2.194   3.067 -0.3779  0.3397 -1.9163
13237SOL    HW240522   5.353   2.223   3.055 -0.9307 -1.8049 -0.7226
13238SOL     OW40523   6.461   6.639   6.726  0.3032 -0.6061  0.1041
13238SOL    HW140524   6.456   6.582   6.650 -2.1756 -0.8045  0.3496
13238SOL    HW240525   6.480   6.726   6.689 -1.9034 -0.4910 -0.9105
13239SOL     OW40526   6.059   2.098   2.168 -0.1789 -0.2500 -0.1493
13239SOL    HW140527   6.020   2.182   2.192  1.1784  0.5657 -0.7111
13239SOL    HW240528   6.016   2.035   2.225 -0.3004  1.0079  1.2156
13240SOL     OW40529   4.746   5.287   6.077  0.3093 -0.5942  0.0445
13240SOL    HW140530   4.652   5.302   6.081  0.3698  1.1881 -2.5531
13240SOL    HW240531   4.757   5.224   6.006  1.0243 -2.0402  1.3874
13241SOL     OW40532   6.260   4.917   1.513  0.0696 -0.1840 -0.1584
13241SOL    HW140533   6.292   4.934   1.425 -0.0125 -1.0221 -0.3550
13241SOL    HW240534   6.174   4.960   1.516  0.0513 -0.1968 -0.4993
13242SOL     OW40535   3.590   4.104   5.174 -0.7144 -0.6629  0.1648
13242SOL    HW140536   3.578   4.027   5.118  0.4568  0.2145 -1.3717
13242SOL    HW240537   3.514   4.159   5.156 -0.9083 -0.8873  0.2949
13243SOL     OW40538   4.424   1.749   4.611 -0.4899  0.2241 -1.0901
13243SOL    HW140539   4.465   1.665   4.589 -1.7054 -0.2511 -1.6283
13243SOL    HW240540   4.331   1.736   4.593 -1.3802  0.4004  2.6080
13244SOL     OW40541   7.898   6.668   4.296 -0.5755 -0.0092  0.2465
13244SOL    HW140542   7.845   6.612   4.353  2.6981 -0.2825  3.4549
13244SOL    HW240543   7.913   6.615   4.218 -0.7738 -2.0854  1.5129
13245SOL     OW40544   4.551   1.103   6.730  0.2802 -0.1579 -0.4943
13245SOL    HW140545   4.479   1.041   6.737  1.4305 -1.3821  0.9564
13245SOL    HW240546   4.582   1.093   6.640  0.0839 -1.2758 -0.4489
13246SOL     OW40547   6.434   4.475   0.869  0.0255 -0.2958 -0.7909
13246SOL    HW140548   6.486   4.425   0.806  0.7236 -2.2265  1.1979
13246SOL    HW240549   6.393   4.409   0.925 -0.5439  1.3206  0.7990
13247SOL     OW40550   4.411   5.480   0.735 -0.0057 -0.3801  0.4732
13247SOL    HW140551   4.433   5.388   0.725  1.6112 -0.2583  2.2783
13247SOL    HW240552   4.425   5.498   0.828  0.4127  1.8488  0.0294
13248SOL     OW40553   2.767   4.790   5.089 -0.2883 -0.0959 -0.2601
13248SOL    HW140554   2.850   4.742   5.086 -0.6059 -0.6529 -0.1763
13248SOL    HW240555   2.735   4.778   5.178  0.2569  1.3618  0.1688
13249SOL     OW40556   2.835   2.275   3.465 -0.2483 -0.1715  0.7130
13249SOL    HW140557   2.823   2.301   3.557 -1.0021  2.1360  0.0368
13249SOL    HW240558   2.750   2.237   3.440 -0.6824  0.9107  0.4882
13250SOL     OW40559   4.131   7.335   3.433 -0.6218  0.4135 -0.4027
13250SOL    HW140560   4.093   7.385   3.361 -0.3157 -0.0975 -0.9272
13250SOL    HW240561   4.065   7.338   3.502 -0.4620  1.8350 -0.2884
13251SOL     OW40562   0.173   0.270   6.213  0.1973  0.4183 -0.0194
13251SOL    HW140563   0.255   0.232   6.182  0.4186  0.6925  0.2257
13251SOL    HW240564   0.171   0.358   6.174 -1.1852 -0.4580 -2.0937
13252SOL     OW40565   3.978   0.673   3.028  0.9424 -0.4057  0.4927
13252SOL    HW140566   3.960   0.741   2.963  1.2432  0.1536  0.9907
13252SOL    HW240567   3.959   0.714   3.112 -1.4201 -1.7452  0.6996
13253SOL     OW40568   3.155   6.488   6.499  0.0231  0.4228 -0.0387
13253SOL    HW140569   3.150   6.560   6.562 -1.6898  1.1243 -0.9141
13253SOL    HW240570   3.120   6.525   6.418 -0.3244 -1.2342 -0.6767
13254SOL     OW40571   0.011   7.318   1.437  0.0094 -0.3212  0.0857
13254SOL    HW140572   0.049   7.231   1.448 -0.1699 -0.5511 -1.0472
13254SOL    HW240573  -0.044   7.330   1.515  1.4445 -0.4535  1.1658
13255SOL     OW40574   3.760   7.589   4.229  0.2722  0.6086 -0.0244
13255SOL    HW140575   3.706   7.543   4.165 -1.9336  2.7326  0.1868
13255SOL    HW240576   3.699   7.617   4.297  2.1774  0.4122  1.8885
13256SOL     OW40577   0.144   7.500   1.802 -0.0626  0.4991  0.4349
13256SOL    HW140578   0.223   7.540   1.766 -0.5186  2.9696  1.9337
13256SOL    HW240579   0.163   7.490   1.896 -0.5238 -1.5282  0.3381
13257SOL     OW40580   6.876   4.091   6.383  0.1659  0.2694  0.5022
13257SOL    HW140581   6.944   4.024   6.371  1.9149  1.8849  0.9386
13257SOL    HW240582   6.861   4.126   6.296 -0.1473 -0.1336  0.3946
13258SOL     OW40583   0.364   4.956   3.911  0.0274 -0.2505 -0.0941
13258SOL    HW140584   0.312   4.881   3.942  0.3667 -1.0420 -1.3581
13258SOL    HW240585   0.352   4.955   3.816  0.2849  1.1377 -0.1553
13259SOL     OW40586   0.806   3.129   3.909 -0.1617  0.3324  0.2627
13259SOL    HW140587   0.815   3.089   3.823 -0.4269 -0.0164  0.3958
13259SOL    HW240588   0.800   3.223   3.891  0.3225  0.3088 -0.0600
13260SOL     OW40589   0.116   6.614   0.870  0.0418  0.0074  0.0438
13260SOL    HW140590   0.120   6.683   0.803  0.6141  1.3516  1.3901
13260SOL    HW240591   0.171   6.543   0.835  0.0598  0.5319 -1.0485
13261SOL     OW40592   6.236   7.108   0.803  0.4093 -0.7187 -0.5078
13261SOL    HW140593   6.179   7.069   0.738  0.4704 -0.9142 -0.4444
13261SOL    HW240594   6.325   7.086   0.775  0.3857 -2.7964  0.8685
13262SOL     OW40595   7.678   3.797   6.793 -0.5066  0.5701  0.4414
13262SOL    HW140596   7.625   3.784   6.715 -1.1472  0.3139  0.9148
13262SOL    HW240597   7.738   3.723   6.793 -1.1708  0.0256  0.7245
13263SOL     OW40598   0.340   7.746   3.650 -0.0549 -0.7354  0.2729
13263SOL    HW140599   0.262   7.703   3.686  0.4277 -1.8609  0.0337
13263SOL    HW240600   0.307   7.822   3.603 -0.9063 -0.5867  1.0843
13264SOL     OW40601   5.499   5.883   5.704 -0.0968  0.1072  0.2141
13264SOL    HW140602   5.490   5.978   5.689 -0.0374 -0.1029 -1.2687
13264SOL    HW240603   5.410   5.849   5.697  0.0865 -0.1627 -0.9683
13265SOL     OW40604   7.124   6.165   1.482 -0.4424 -0.0793  0.5847
13265SOL    HW140605   7.167   6.106   1.543  0.4842 -0.4367 -0.3922
13265SOL    HW240606   7.039   6.123   1.464 -0.3767 -0.3846  0.9791
13266SOL     OW40607   6.535   1.376   4.128  0.6948 -0.1743  0.4441
13266SOL    HW140608   6.611   1.330   4.162  0.9349  0.0769  0.2591
13266SOL    HW240609   6.517   1.334   4.044 -1.5338 -2.5806  2.0111
13267SOL     OW40610   5.679   4.742   0.083 -0.0985 -0.3805 -0.2976
13267SOL    HW140611   5.702   4.663   0.034 -1.1590 -1.6005  1.0423
13267SOL    HW240612   5.744   4.746   0.153  0.5129  0.4947 -0.9006
13268SOL     OW40613   0.220   6.039   6.991 -0.6793 -0.2027  0.1206
13268SOL    HW140614   0.232   5.944   6.994  1.2997 -0.1817 -2.9654
13268SOL    HW240615   0.240   6.068   7.080 -0.0280 -2.5546  0.8276
13269SOL     OW40616   6.480   0.497   1.489 -0.1381  0.3676 -0.2821
13269SOL    HW140617   6.510   0.566   1.430 -0.2081 -0.2730 -1.0877
13269SOL    HW240618   6.499   0.530   1.577  0.3095  1.1806 -0.6766
13270SOL     OW40619   0.771   5.578   7.556 -0.0275  0.3166  0.8310
13270SOL    HW140620   0.743   5.489   7.538  1.3763  0.0601 -0.2676
13270SOL    HW240621   0.850   5.590   7.503 -1.5289  3.0372 -1.0567
13271SOL     OW40622   0.563   6.231   6.670 -0.2853  0.4463  0.3331
13271SOL    HW140623   0.619   6.255   6.597  0.6575 -0.3039  0.7886
13271SOL    HW240624   0.474   6.231   6.634 -0.4150  4.3597  0.2372
13272SOL     OW40625   3.182   1.760   2.171 -0.0909  0.6696  0.2099
13272SOL    HW140626   3.182   1.850   2.136  1.4859  0.6405  0.0646
13272SOL    HW240627   3.108   1.717   2.127  0.7522  1.1368 -1.7808
13273SOL     OW40628   6.146   1.456   1.039  0.5167 -0.0577  0.3267
13273SOL    HW140629   6.119   1.397   0.969  1.8160 -0.9298  0.5323
13273SOL    HW240630   6.082   1.442   1.109 -0.6805  0.6839 -0.5764
13274SOL     OW40631   4.230   1.437   2.971 -0.1420 -0.2317  0.4760
13274SOL    HW140632   4.297   1.504   2.977  0.5700 -0.8240 -0.5966
13274SOL    HW240633   4.190   1.450   2.885  0.8361 -1.9018 -0.2902
13275SOL     OW40634   7.914   5.939   4.704  0.2551  0.3083  0.5378
13275SOL    HW140635   7.932   6.010   4.764 -0.1240 -0.5817  1.7513
13275SOL    HW240636   7.863   5.979   4.633  0.2095  1.2604  1.1011
13276SOL     OW40637   3.109   4.547   5.460  0.5047 -0.0984 -0.1839
13276SOL    HW140638   3.116   4.456   5.490  1.1438  0.2621  0.7853
13276SOL    HW240639   3.144   4.545   5.371  1.0885 -0.6920  0.0531
13277SOL     OW40640   0.748   3.243   6.010 -0.1533 -0.4213 -0.0594
13277SOL    HW140641   0.711   3.329   5.990 -0.1371 -0.7021 -1.3647
13277SOL    HW240642   0.690   3.207   6.077  0.1693  0.8248  0.9250
13278SOL     OW40643   2.313   1.484   2.702  0.0582 -0.0740  0.4301
13278SOL    HW140644   2.380   1.419   2.685 -0.4160 -0.8713  1.5091
13278SOL    HW240645   2.231   1.440   2.680 -0.0753  1.4690 -2.6225
13279SOL     OW40646   5.853   5.774   6.224  0.5051  0.3082 -0.7065
13279SOL    HW140647   5.882   5.685   6.244  0.0756  0.2703 -0.2500
13279SOL    HW240648   5.919   5.830   6.264 -0.4073  0.2373  0.9746
13280SOL     OW40649   5.268   6.949   2.802 -0.0647  0.8303 -0.6211
13280SOL    HW140650   5.203   6.886   2.771 -0.3261  0.1586  1.1656
13280SOL    HW240651   5.233   6.979   2.886  0.9888  1.9606 -0.5607
13281SOL     OW40652   2.685   4.551   1.544 -0.2684 -0.4081  0.4863
13281SOL    HW140653   2.628   4.484   1.506  0.7841 -0.5908 -0.8202
13281SOL    HW240654   2.654   4.634   1.507  0.9987 -0.6220 -1.1869
13282SOL     OW40655   2.270   5.122   0.204  0.0866 -0.6811  0.5281
13282SOL    HW140656   2.339   5.155   0.147  0.5589 -1.8111  0.4297
13282SOL    HW240657   2.286   5.028   0.210 -0.9926 -0.8450  1.1206
13283SOL     OW40658   1.504   5.080   4.632 -0.1193  0.4128  0.0015
13283SOL    HW140659   1.526   5.121   4.716  2.1702 -1.0109  0.1962
13283SOL    HW240660   1.455   5.001   4.657  1.4814 -0.5810  0.1323
13284SOL     OW40661   3.930   4.222   1.038 -0.0661  0.4448  0.4228
13284SOL    HW140662   3.874   4.251   0.965  0.0959  0.8965  0.4742
13284SOL    HW240663   4.010   4.274   1.029  0.1299  0.1898  0.6699
13285SOL     OW40664   0.674   6.290   7.400  0.0258  0.0227  0.4972
13285SOL    HW140665   0.580   6.306   7.412 -0.5608 -1.5461 -1.5213
13285SOL    HW240666   0.706   6.274   7.489 -1.2055  2.3327  1.4497
13286SOL     OW40667   3.185   0.267   7.907  0.1022  0.2084  0.0152
13286SOL    HW140668   3.228   0.185   7.932  1.1953  0.6149 -0.4275
13286SOL    HW240669   3.215   0.330   7.973  1.9892  0.9930 -1.4660
13287SOL     OW40670   7.942   0.659   6.599 -0.4347 -0.1510  0.1503
13287SOL    HW140671   7.886   0.646   6.675  0.4858  1.7332  1.2261
13287SOL    HW240672   7.906   0.737   6.556  0.9518  0.7069  0.5050
13288SOL     OW40673   1.946   6.007   0.104  0.1815 -0.1151 -0.1463
13288SOL    HW140674   2.026   6.052   0.077  0.8456 -0.9544  0.3785
13288SOL    HW240675   1.939   5.932   0.046 -0.7427  0.4595 -0.8000
13289SOL     OW40676   0.590   7.461   5.166 -0.0927  0.3347 -0.4904
13289SOL    HW140677   0.605   7.423   5.253  0.1295 -0.7872 -0.9893
13289SOL    HW240678   0.662   7.523   5.154  0.5707 -0.3925 -0.3431
13290SOL     OW40679   3.510   0.859   1.396 -0.0997 -0.2701  0.0293
13290SOL    HW140680   3.592   0.811   1.386  0.5336  0.7135  0.4276
13290SOL    HW240681   3.445   0.804   1.352  1.1328 -0.0499 -2.2010
13291SOL     OW40682   3.891   5.177   1.971 -0.2350 -0.4270  0.8908
13291SOL    HW140683   3.873   5.121   1.895 -0.9491 -0.9198  1.4160
13291SOL    HW240684   3.916   5.261   1.933 -1.3330 -0.4343  0.1091
13292SOL     OW40685   7.004   6.716   0.489  0.6174 -0.7711  0.1379
13292SOL    HW140686   7.060   6.793   0.480  0.1219 -0.3299  0.7079
13292SOL    HW240687   6.928   6.748   0.538 -0.3916 -1.2146 -1.0821
13293SOL     OW40688   5.029   6.191   7.172  0.3302 -0.7066  0.0024
13293SOL    HW140689   5.078   6.113   7.196 -1.2453 -1.6648  0.2639
13293SOL    HW240690   4.962   6.199   7.240 -0.0179  0.4303 -0.4509
13294SOL     OW40691   0.509   3.702   6.099 -0.1475  0.7895 -0.0837
13294SOL    HW140692   0.595   3.710   6.057  0.1572  1.6228  0.6562
13294SOL    HW240693   0.465   3.633   6.051  0.9001  0.4279 -0.5595
13295SOL     OW40694   4.007   1.863   2.610  0.0570  0.2708 -0.1848
13295SOL    HW140695   3.938   1.820   2.560 -0.1726 -0.1561  0.4913
13295SOL    HW240696   3.973   1.869   2.699 -0.0581  2.1686 -0.3192
13296SOL     OW40697   2.901   2.062   2.528 -0.0421  0.9768  0.9313
13296SOL    HW140698   2.879   2.124   2.597  0.7854  1.0908  1.1068
13296SOL    HW240699   2.984   2.093   2.493  0.8826 -0.5344  1.6599
13297SOL     OW40700   5.290   0.185   0.363 -0.2778  0.1722 -0.3898
13297SOL    HW140701   5.331   0.260   0.405 -1.0557  0.1687  0.3981
13297SOL    HW240702   5.317   0.110   0.416  0.7119 -0.1728 -1.3195
13298SOL     OW40703   3.225   2.028   2.093  0.1138 -0.1936 -0.1045
13298SOL    HW140704   3.287   2.101   2.085 -0.3322  0.1457 -0.4716
13298SOL    HW240705   3.172   2.033   2.014 -1.2646  0.3374  0.8174
13299SOL     OW40706   4.278   6.830   1.065  0.6366  0.4024 -0.1982
13299SOL    HW140707   4.212   6.900   1.061  0.1108 -0.1380 -1.5168
13299SOL    HW240708   4.341   6.860   1.130  0.9350  2.5557 -1.3986
13300SOL     OW40709   6.665   4.043   1.995  0.3315  0.0217  0.1242
13300SOL    HW140710   6.663   4.137   2.009 -1.3161 -0.0432  0.4853
13300SOL    HW240711   6.614   4.029   1.915 -1.6789 -0.7548  1.4790
13301SOL     OW40712   4.454   0.214   5.341 -0.5309  0.5738 -0.1500
13301SOL    HW140713   4.360   0.230   5.336 -0.6969 -0.0129  0.8048
13301SOL    HW240714   4.471   0.147   5.274 -0.7161  0.9405 -0.5718
13302SOL     OW40715   7.269   4.911   2.253 -0.1664  0.3002 -0.2677
13302SOL    HW140716   7.290   4.851   2.182  0.0196 -0.1609  0.1684
13302SOL    HW240717   7.194   4.872   2.297 -0.2133  0.5266 -0.1448
13303SOL     OW40718   2.300   5.602   1.519 -0.1180  0.0828 -0.3514
13303SOL    HW140719   2.369   5.550   1.478 -0.8897 -0.8277 -0.5330
13303SOL    HW240720   2.306   5.688   1.478  0.7605 -0.0588 -0.5225
13304SOL     OW40721   2.215   7.706   2.996  0.3161  0.4184 -0.3722
13304SOL    HW140722   2.209   7.726   3.089 -0.6057 -0.7538 -0.1504
13304SOL    HW240723   2.298   7.659   2.987  1.6561  2.6550 -0.6180
13305SOL     OW40724   3.607   4.290   7.218 -0.3739 -0.2098 -0.0164
13305SOL    HW140725   3.598   4.372   7.266 -0.5640  0.4192 -1.0900
13305SOL    HW240726   3.701   4.274   7.214 -0.2545  0.5783 -0.7779
13306SOL     OW40727   4.856   2.609   2.737 -0.2690  0.0624  0.0861
13306SOL    HW140728   4.847   2.606   2.832  0.1196  1.7594  0.2128
13306SOL    HW240729   4.871   2.702   2.717 -3.2387  0.2804 -1.8879
13307SOL     OW40730   3.055   4.867   1.620  0.6421  0.1099  0.3604
13307SOL    HW140731   2.990   4.854   1.689 -0.2646  1.8204 -0.0961
13307SOL    HW240732   3.060   4.783   1.575 -1.5718  0.0377  0.1675
13308SOL     OW40733   7.592   3.729   1.248  0.0256  0.3600 -0.6408
13308SOL    HW140734   7.551   3.660   1.299  0.7166  0.7300  0.4487
13308SOL    HW240735   7.625   3.686   1.170 -0.2088 -0.3961 -0.3259
13309SOL     OW40736   7.337   6.504   4.644  0.4257  0.1797  0.5717
13309SOL    HW140737   7.328   6.585   4.594 -1.4645  0.7999  1.8085
13309SOL    HW240738   7.430   6.484   4.642  0.8139  1.9346 -0.4432
13310SOL     OW40739   0.556   4.610   3.276 -0.3235 -0.4572  0.0169
13310SOL    HW140740   0.527   4.682   3.332 -0.0452  0.8933 -1.5044
13310SOL    HW240741   0.531   4.637   3.187  0.4094 -1.9185 -0.6691
13311SOL     OW40742   5.876   7.652   1.094  0.9000 -0.0263 -0.2326
13311SOL    HW140743   5.954   7.707   1.095  0.7633  0.1842  1.0973
13311SOL    HW240744   5.850   7.648   1.002  1.5962  1.1599 -0.4992
13312SOL     OW40745   0.292   4.507   5.378 -0.4741  0.7631 -0.4355
13312SOL    HW140746   0.341   4.521   5.459  0.9123 -0.2572 -1.0477
13312SOL    HW240747   0.250   4.422   5.390  1.4325 -0.4018 -1.5276
13313SOL     OW40748   6.127   2.795   7.295  0.9740 -0.3336  0.0545
13313SOL    HW140749   6.058   2.742   7.254  2.5914 -2.2595 -0.3189
13313SOL    HW240750   6.190   2.810   7.224  1.3308  0.7711  0.5823
13314SOL     OW40751   7.359   5.730   2.792  0.0842 -0.3766  0.7184
13314SOL    HW140752   7.420   5.664   2.825  1.0985  1.3731  2.5746
13314SOL    HW240753   7.414   5.800   2.760 -0.9688  0.2589  0.2427
13315SOL     OW40754   4.102   2.037   6.052 -0.3350 -0.3532 -0.2078
13315SOL    HW140755   4.042   2.111   6.037 -0.6978 -0.6410 -0.1827
13315SOL    HW240756   4.045   1.960   6.055 -0.3055 -0.3588  2.5304
13316SOL     OW40757   6.178   4.113   3.079  0.2687  0.8316 -0.7080
13316SOL    HW140758   6.225   4.032   3.063 -1.4015 -0.2761 -0.2487
13316SOL    HW240759   6.225   4.154   3.152  0.7895 -0.0006 -0.5608
13317SOL     OW40760   7.878   1.725   6.594  0.3281 -0.4207 -0.4254
13317SOL    HW140761   7.906   1.807   6.634 -1.3456 -0.1418  0.2357
13317SOL    HW240762   7.909   1.730   6.503  1.7486  0.1459  0.0603
13318SOL     OW40763   4.490   6.438   5.530 -0.3395  0.5674  0.0879
13318SOL    HW140764   4.543   6.512   5.560  2.1160 -2.1691  3.2715
13318SOL    HW240765   4.404   6.452   5.570 -0.1409  1.9626  0.0807
13319SOL     OW40766   3.238   7.800   4.976  0.1315 -0.3425  0.0740
13319SOL    HW140767   3.302   7.867   5.002 -1.0372  1.2383 -0.9115
13319SOL    HW240768   3.273   7.764   4.894  0.8579 -1.1018  0.7033
13320SOL     OW40769   1.301   3.462   7.938 -0.5870  0.6304 -0.5760
13320SOL    HW140770   1.389   3.439   7.968 -1.1511 -1.5033 -0.3759
13320SOL    HW240771   1.315   3.523   7.867  1.0423  0.6620 -0.2648
13321SOL     OW40772   0.703   5.944   0.907  0.1521 -0.8011 -0.3695
13321SOL    HW140773   0.747   5.881   0.850 -0.3914 -0.4575 -1.1798
13321SOL    HW240774   0.643   5.991   0.849 -0.5959 -0.6178  0.5345
13322SOL     OW40775   7.971   6.389   7.680  0.2278  0.2232  0.4498
13322SOL    HW140776   7.906   6.411   7.612 -0.3988  0.8108  1.2249
13322SOL    HW240777   7.999   6.300   7.658 -1.7846 -0.5462  0.8053
13323SOL     OW40778   3.031   4.725   7.504  0.4590  0.3675  0.5871
13323SOL    HW140779   3.092   4.653   7.517 -0.7540 -0.5489  1.5026
13323SOL    HW240780   3.072   4.800   7.548  0.7831 -0.3188  1.4888
13324SOL     OW40781   5.069   5.790   5.041 -0.3134 -0.6744 -0.6101
13324SOL    HW140782   5.144   5.836   5.001  0.7580 -0.7602  1.2094
13324SOL    HW240783   5.008   5.860   5.064  0.3488 -0.3338  0.1804
13325SOL     OW40784   6.638   2.401   0.121  0.1623  0.4814  0.4776
13325SOL    HW140785   6.549   2.387   0.153  1.1152 -0.2310  3.0434
13325SOL    HW240786   6.677   2.461   0.184  2.1892 -1.0260  0.7624
13326SOL     OW40787   2.956   6.862   7.238 -0.4977  0.1073 -0.6269
13326SOL    HW140788   2.995   6.798   7.298  1.6295  0.6267 -1.3565
13326SOL    HW240789   2.863   6.862   7.260 -0.0404 -0.8283  1.6170
13327SOL     OW40790   2.493   5.439   5.892 -0.8962 -0.9997 -0.0539
13327SOL    HW140791   2.499   5.392   5.976 -2.0643 -0.2859  0.4541
13327SOL    HW240792   2.472   5.529   5.917  0.8174 -0.2760 -1.0333
13328SOL     OW40793   0.250   0.705   5.924  0.3346  0.3681 -0.2864
13328SOL    HW140794   0.197   0.780   5.895  0.2372  0.4114 -0.0027
13328SOL    HW240795   0.279   0.729   6.012  0.1998  0.0184 -0.1449
13329SOL     OW40796   0.768   6.897   7.098 -0.0245  0.8796 -0.3478
13329SOL    HW140797   0.823   6.878   7.022  0.7236  3.0275 -0.4213
13329SOL    HW240798   0.681   6.868   7.072  0.5138  0.1533 -1.4118
13330SOL     OW40799   2.537   7.829   5.176 -0.1553 -0.0443 -0.0688
13330SOL    HW140800   2.598   7.884   5.226 -1.1078 -0.9203  2.1646
13330SOL    HW240801   2.590   7.755   5.146  0.5874  0.8472 -1.0374
13331SOL     OW40802   2.047   0.237   4.781  0.2424 -0.1968  0.4656
13331SOL    HW140803   2.072   0.163   4.725  1.5452  1.1851 -0.8627
13331SOL    HW240804   2.079   0.314   4.734 -2.9813  1.4353  0.7145
13332SOL     OW40805   2.150   3.203   6.569 -0.1520 -0.0140 -0.5175
13332SOL    HW140806   2.096   3.124   6.564 -0.2548  0.0233 -0.0245
13332SOL    HW240807   2.138   3.235   6.658  0.7462 -0.0498 -0.3704
13333SOL     OW40808   4.490   2.980   5.960 -0.0796  0.0011 -0.0801
13333SOL    HW140809   4.501   2.894   6.001  0.3463 -0.1076 -0.4224
13333SOL    HW240810   4.482   2.962   5.867  3.7344  0.5418 -0.6593
13334SOL     OW40811   5.864   2.162   5.269  0.2893 -0.3153  0.7920
13334SOL    HW140812   5.814   2.227   5.319 -0.9615 -0.0770 -0.7069
13334SOL    HW240813   5.954   2.192   5.274  0.2174 -0.2897  2.8682
13335SOL     OW40814   7.367   4.977   6.868 -0.1346  0.2410 -0.4317
13335SOL    HW140815   7.328   4.891   6.851 -0.2416  0.4624 -1.3103
13335SOL    HW240816   7.390   4.974   6.961  1.1753 -1.2785 -0.7579
13336SOL     OW40817   1.394   1.555   1.050 -0.8151  0.0164  0.4545
13336SOL    HW140818   1.414   1.580   1.140 -1.0943 -1.2908  0.8952
13336SOL    HW240819   1.324   1.491   1.058  0.1691 -1.2480 -0.5827
13337SOL     OW40820   7.236   2.643   6.989 -0.0072 -0.0637 -0.5657
13337SOL    HW140821   7.217   2.578   7.057 -1.7322  0.5924 -0.3610
13337SOL    HW240822   7.307   2.696   7.024 -1.4603  0.8328  1.1889
13338SOL     OW40823   4.398   1.919   0.597 -0.1355  0.5642 -0.5973
13338SOL    HW140824   4.303   1.917   0.583 -0.3942 -0.2568  0.9888
13338SOL    HW240825   4.433   1.859   0.531 -0.9505 -0.7046  0.0624
13339SOL     OW40826   0.245   3.562   5.328 -0.2212  0.6945  0.7249
13339SOL    HW140827   0.170   3.520   5.369  0.6086 -0.2579  1.3369
13339SOL    HW240828   0.318   3.502   5.344  0.0307 -0.2119 -2.9338
13340SOL     OW40829   6.423   4.676   7.723 -0.4479 -0.1440 -0.5800
13340SOL    HW140830   6.368   4.730   7.780  0.7582 -0.4184  0.9016
13340SOL    HW240831   6.362   4.613   7.684 -1.3036  0.0370  0.4246
13341SOL     OW40832   2.658   0.502   6.402  0.2604  0.3908  0.1818
13341SOL    HW140833   2.701   0.483   6.485  0.1522 -0.4326  0.0627
13341SOL    HW240834   2.565   0.484   6.418  0.1856  0.6131 -0.0002
13342SOL     OW40835   0.922   6.050   7.352 -0.2286  0.1305 -0.1738
13342SOL    HW140836   0.981   6.075   7.280 -0.1481 -0.5243 -0.3480
13342SOL    HW240837   0.851   6.114   7.348 -0.0038  0.3632 -0.5639
13343SOL     OW40838   4.189   0.062   2.123 -0.7464 -0.1611 -0.2362
13343SOL    HW140839   4.186   0.059   2.219  0.8783  0.4303 -0.1351
13343SOL    HW240840   4.248  -0.010   2.099  1.2817  1.5175 -0.5669
13344SOL     OW40841   2.998   3.987   3.960  0.1594  0.6404 -0.3716
13344SOL    HW140842   3.001   3.892   3.969 -1.7933  0.4897 -0.7786
13344SOL    HW240843   2.974   4.019   4.047  1.8918  0.8786  0.0481
13345SOL     OW40844   1.195   1.187   0.707 -0.3625 -0.0492 -0.0153
13345SOL    HW140845   1.196   1.280   0.685  2.1382  0.6777  2.6221
13345SOL    HW240846   1.133   1.180   0.779  0.6244 -0.0876  0.8509
13346SOL     OW40847   0.855   1.957   6.411 -0.3927 -1.0025 -0.1761
13346SOL    HW140848   0.868   2.046   6.445 -1.2437 -0.4579 -1.2184
13346SOL    HW240849   0.943   1.920   6.408 -0.1392 -0.5607  1.2217
13347SOL     OW40850   6.981   3.578   7.823  0.0913  0.8039  0.6656
13347SOL    HW140851   6.907   3.588   7.764  0.2278  0.8249  0.4975
13347SOL    HW240852   7.036   3.655   7.807  0.5878  0.3559  0.1622
13348SOL     OW40853   6.553   3.627   5.003 -0.1805  0.1427  0.4259
13348SOL    HW140854   6.626   3.608   4.944 -0.5575 -0.1708  0.0422
13348SOL    HW240855   6.578   3.588   5.086 -0.3597 -0.9277  0.0042
13349SOL     OW40856   6.704   4.289   2.333 -0.1686 -0.1196 -0.2060
13349SOL    HW140857   6.701   4.233   2.411  1.6852  0.6327  0.4525
13349SOL    HW240858   6.690   4.377   2.367  0.8761  0.2418 -0.6834
13350SOL     OW40859   7.470   4.978   3.181  0.3184 -0.0217  0.5169
13350SOL    HW140860   7.377   4.953   3.178  0.3730 -0.1402 -0.5791
13350SOL    HW240861   7.471   5.058   3.233 -0.6092  0.8198 -0.6956
13351SOL     OW40862   4.280   1.793   2.580 -0.2612 -0.0461 -0.2960
13351SOL    HW140863   4.269   1.865   2.642  1.7001  0.7319 -0.8072
13351SOL    HW240864   4.200   1.795   2.527 -1.3646  0.1206  1.3127
13352SOL     OW40865   1.421   3.268   2.166 -0.0472 -0.0578 -0.4784
13352SOL    HW140866   1.367   3.282   2.088 -1.5277 -0.9805  0.3505
13352SOL    HW240867   1.447   3.176   2.161  0.9226  0.2023 -0.5107
13353SOL     OW40868   6.095   2.487   7.471 -0.2103 -0.0641 -0.4132
13353SOL    HW140869   6.098   2.504   7.565 -1.3606  0.5592 -0.4716
13353SOL    HW240870   6.182   2.514   7.440 -0.0396  0.3475  0.3731
13354SOL     OW40871   5.481   0.805   6.659  0.0625  0.4358  0.4333
13354SOL    HW140872   5.453   0.868   6.726 -0.2375 -0.1116  0.8375
13354SOL    HW240873   5.406   0.747   6.649  0.6683 -0.4265  0.7603
13355SOL     OW40874   5.634   1.834   7.637  0.2061 -0.4412  0.4043
13355SOL    HW140875   5.630   1.893   7.712 -1.2949  0.6883 -0.5044
13355SOL    HW240876   5.558   1.775   7.648 -0.9089  0.6615 -0.8973
13356SOL     OW40877   7.731   4.543   3.645 -0.5276  0.2485  0.5527
13356SOL    HW140878   7.650   4.581   3.611 -0.3844 -0.5125 -0.7110
13356SOL    HW240879   7.800   4.595   3.604 -0.3537 -0.6725 -0.3758
13357SOL     OW40880   1.901   4.878   5.924 -0.5623 -0.1862  0.7172
13357SOL    HW140881   1.876   4.925   5.844 -1.9149  0.4689  1.4979
13357SOL    HW240882   1.818   4.860   5.968  0.1995 -0.0322  2.2604
13358SOL     OW40883   4.512   4.290   5.756  0.0813  0.0521  0.1546
13358SOL    HW140884   4.455   4.325   5.688  0.4341  0.0731 -0.1355
13358SOL    HW240885   4.546   4.209   5.719  0.7867  0.3938  0.0339
13359SOL     OW40886   7.128   0.598   6.285 -0.5161  0.3060  0.3005
13359SOL    HW140887   7.212   0.633   6.257 -0.8377  0.2681 -0.7885
13359SOL    HW240888   7.148   0.512   6.320 -0.1594  0.0381 -0.5319
13360SOL     OW40889   7.691   6.215   5.224 -0.0623 -0.5269  0.9140
13360SOL    HW140890   7.602   6.181   5.229 -0.0474 -0.3943  2.4533
13360SOL    HW240891   7.737   6.153   5.167 -0.8844 -1.1749  0.9391
13361SOL     OW40892   2.090   4.175   2.462  0.1404 -0.0121 -0.5264
13361SOL    HW140893   2.184   4.182   2.445  0.3626  1.2626  0.9545
13361SOL    HW240894   2.069   4.084   2.443  2.1092 -0.8518  0.9172
13362SOL     OW40895   6.248   0.244   4.391 -0.1046 -0.9210  0.0442
13362SOL    HW140896   6.317   0.299   4.430  0.9214 -0.5587 -2.1428
13362SOL    HW240897   6.169   0.297   4.396  0.5672  0.1877 -0.7161
13363SOL     OW40898   1.242   0.272   7.486  0.2655 -0.0189 -0.2507
13363SOL    HW140899   1.258   0.290   7.578 -1.6252 -0.0901  0.1431
13363SOL    HW240900   1.304   0.326   7.439 -0.1712  1.6697  1.0327
13364SOL     OW40901   5.261   5.936   4.462  0.3264 -0.6449 -0.4107
13364SOL    HW140902   5.319   5.879   4.511  0.3830  3.3347  5.1185
13364SOL    HW240903   5.173   5.906   4.483  0.3642 -0.5263 -0.0835
13365SOL     OW40904   4.689   2.622   3.818 -0.4644 -0.3622  0.2429
13365SOL    HW140905   4.607   2.602   3.773  0.5237  0.3466 -1.9752
13365SOL    HW240906   4.752   2.562   3.780  0.2100 -0.4607  1.4734
13366SOL     OW40907   2.632   6.592   5.870 -0.7199 -0.1477 -0.1339
13366SOL    HW140908   2.602   6.585   5.961 -0.9503 -1.5510 -0.3009
13366SOL    HW240909   2.713   6.541   5.868  0.0110  0.9954 -0.4175
13367SOL     OW40910   6.047   6.947   7.851 -0.7163  0.3876 -0.8946
13367SOL    HW140911   6.077   7.037   7.862  2.5539 -0.7258  0.4569
13367SOL    HW240912   6.101   6.912   7.780 -2.7454 -0.2806 -2.2180
13368SOL     OW40913   4.224   7.096   3.358 -0.1115  0.0359  0.0884
13368SOL    HW140914   4.194   7.185   3.376 -1.7936 -0.2465 -1.0430
13368SOL    HW240915   4.172   7.069   3.283  1.3896 -1.4059 -0.4858
13369SOL     OW40916   5.100   1.646   1.392 -0.0671  0.2447 -0.1032
13369SOL    HW140917   5.044   1.706   1.441 -1.5719 -0.1988 -1.2153
13369SOL    HW240918   5.188   1.662   1.426 -0.9823  0.2136  2.4851
13370SOL     OW40919   6.812   5.307   5.075 -0.0946 -0.4225 -0.3658
13370SOL    HW140920   6.881   5.310   5.141  0.6483 -0.1767 -1.1397
13370SOL    HW240921   6.752   5.378   5.100  0.3953 -0.0665 -0.1845
13371SOL     OW40922   4.572   1.919   4.368 -0.1106  0.0072  0.0142
13371SOL    HW140923   4.535   1.881   4.288 -1.9825  0.7195  0.4747
13371SOL    HW240924   4.509   1.897   4.436  0.7803  0.5415  1.0449
13372SOL     OW40925   5.490   0.453   2.865 -0.5464 -0.3021  0.0765
13372SOL    HW140926   5.428   0.381   2.877  1.4452 -2.4688 -1.5275
13372SOL    HW240927   5.558   0.437   2.931  0.2357 -0.3190 -0.7165
13373SOL     OW40928   5.574   4.325   5.587 -0.4410  0.0998  0.8098
13373SOL    HW140929   5.483   4.338   5.611 -0.8547 -2.1699  0.7551
13373SOL    HW240930   5.594   4.236   5.618  1.3559  0.0743 -0.2831
13374SOL     OW40931   5.461   5.942   2.194  0.3983 -0.3171  0.0086
13374SOL    HW140932   5.479   5.850   2.212  3.6100  0.1409 -0.3105
13374SOL    HW240933   5.533   5.990   2.237 -0.1144  1.8840 -1.4089
13375SOL     OW40934   3.129   5.254   5.730  0.0422 -0.3312 -0.3524
13375SOL    HW140935   3.071   5.266   5.655 -0.0549 -2.1023 -0.5956
13375SOL    HW240936   3.158   5.343   5.752  0.1212  0.2308 -2.5021
13376SOL     OW40937   7.581   2.872   2.098 -0.5692  0.2785 -0.2892
13376SOL    HW140938   7.528   2.843   2.172 -0.4378 -0.7586 -0.5894
13376SOL    HW240939   7.547   2.959   2.077 -1.8389 -0.1753 -0.1814
13377SOL     OW40940   6.943   4.607   6.266  0.1882 -0.5681 -0.3553
13377SOL    HW140941   6.895   4.564   6.195 -1.3842  0.8105 -0.1906
13377SOL    HW240942   6.937   4.701   6.245  2.3548 -0.3122 -0.0141
13378SOL     OW40943   4.446   2.773   7.351  0.0074 -0.2150 -0.9529
13378SOL    HW140944   4.359   2.740   7.375  0.3233 -0.9993 -0.8511
13378SOL    HW240945   4.489   2.790   7.435 -0.5991  1.7221 -0.9960
13379SOL     OW40946   5.139   6.866   7.567 -0.3718  0.1021  0.0148
13379SOL    HW140947   5.078   6.882   7.639 -0.7268  1.3051 -0.5330
13379SOL    HW240948   5.158   6.953   7.532 -1.7192 -0.5543 -2.5682
13380SOL     OW40949   7.291   0.068   4.116  0.1523 -0.0079  0.3907
13380SOL    HW140950   7.336   0.096   4.196  0.2820  0.2559  0.2256
13380SOL    HW240951   7.212   0.122   4.112 -0.4919 -0.8827  0.9945
13381SOL     OW40952   0.173   3.087   4.117  0.0543 -0.1184 -0.0575
13381SOL    HW140953   0.192   3.146   4.044 -0.4215 -0.4660 -0.4713
13381SOL    HW240954   0.259   3.053   4.145  0.5965  2.3334  1.5599
13382SOL     OW40955   7.801   3.903   7.972  0.4147 -0.5782 -0.4304
13382SOL    HW140956   7.708   3.887   7.957  0.2891  0.8886 -1.4657
13382SOL    HW240957   7.817   3.873   8.062 -1.1119 -0.5662 -0.1320
13383SOL     OW40958   6.198   3.299   4.134  0.8364  0.3956 -0.3786
13383SOL    HW140959   6.190   3.282   4.040 -1.0306 -1.7240  0.0715
13383SOL    HW240960   6.277   3.253   4.160 -0.0375 -1.2684 -0.5270
13384SOL     OW40961   3.770   2.405   7.400  0.0840  0.0394  0.1220
13384SOL    HW140962   3.767   2.494   7.433 -0.9761 -0.4205  1.3673
13384SOL    HW240963   3.720   2.408   7.318 -1.1357  0.3436  0.8503
13385SOL     OW40964   0.828   1.137   4.681 -0.5188 -0.1171 -0.4528
13385SOL    HW140965   0.802   1.103   4.595  0.0577  0.1598 -0.7390
13385SOL    HW240966   0.745   1.147   4.728 -0.9291  0.6111 -1.3013
13386SOL     OW40967   3.982   7.201   2.932 -0.2936  0.3076 -0.4946
13386SOL    HW140968   3.958   7.123   2.883 -0.0694  0.2208 -0.4687
13386SOL    HW240969   4.069   7.182   2.967 -0.1465  0.6469 -0.6610
13387SOL     OW40970   2.910   3.428   7.506 -0.8769 -0.0045 -0.1289
13387SOL    HW140971   2.967   3.435   7.583  1.1110 -0.5153 -1.4660
13387SOL    HW240972   2.874   3.339   7.511 -0.5681 -0.1208  0.1107
13388SOL     OW40973   5.335   6.063   1.226 -0.2906 -0.3568 -0.1422
13388SOL    HW140974   5.287   6.134   1.269  0.2750  0.6660 -1.1583
13388SOL    HW240975   5.425   6.071   1.259  0.4061  1.1047 -2.2316
13389SOL     OW40976   5.442   5.664   2.251  0.0006  0.0721  0.3971
13389SOL    HW140977   5.451   5.642   2.158 -0.7359 -0.1054  0.3583
13389SOL    HW240978   5.432   5.579   2.295  3.5405 -0.1495  1.0879
13390SOL     OW40979   1.207   3.575   0.149 -0.3006  0.7590 -0.0529
13390SOL    HW140980   1.264   3.536   0.083 -0.4961 -0.7755  0.6191
13390SOL    HW240981   1.133   3.610   0.099 -0.8287 -1.0545 -0.6503
13391SOL     OW40982   3.363   3.894   3.479  0.4814 -0.2260 -0.3100
13391SOL    HW140983   3.455   3.918   3.485  0.4355  0.0660 -0.7403
13391SOL    HW240984   3.353   3.819   3.537  1.3374 -1.2832 -1.4787
13392SOL     OW40985   7.624   1.899   3.460 -0.5038 -0.4288 -0.1687
13392SOL    HW140986   7.671   1.980   3.478 -2.1859  0.0957  2.2413
13392SOL    HW240987   7.582   1.914   3.375 -1.6264  1.6827  0.6940
13393SOL     OW40988   7.275   6.783   3.235 -0.2989  0.0854 -0.0287
13393SOL    HW140989   7.222   6.855   3.270 -0.3487  0.3688 -0.6792
13393SOL    HW240990   7.251   6.778   3.143  0.0359 -0.4749 -0.0884
13394SOL     OW40991   5.420   6.080   7.687  0.1443  0.0177  0.2088
13394SOL    HW140992   5.403   6.169   7.718 -0.7460 -0.1705  0.2752
13394SOL    HW240993   5.461   6.092   7.601 -0.5106  0.4863 -0.0454
13395SOL     OW40994   0.799   5.319   2.018 -0.1380 -0.5754 -0.6187
13395SOL    HW140995   0.724   5.366   2.056  0.6575 -1.1510  1.8347
13395SOL    HW240996   0.872   5.380   2.026  0.3172 -1.1868  0.0823
13396SOL     OW40997   5.766   1.661   7.437  0.0887  0.1877 -0.5781
13396SOL    HW140998   5.738   1.741   7.483  1.8923  1.1072 -0.9607
13396SOL    HW240999   5.730   1.589   7.489 -1.3463  1.2396 -0.0587
13397SOL     OW41000   6.615   2.378   3.458 -0.2274 -0.1647 -0.2452
13397SOL    HW141001   6.612   2.282   3.464 -0.8750 -0.2025 -1.0088
13397SOL    HW241002   6.687   2.396   3.397 -0.4701 -0.1850 -0.5363
13398SOL     OW41003   3.511   3.829   5.144 -0.2850 -0.4076 -0.2043
13398SOL    HW141004   3.501   3.765   5.073 -0.4854 -1.6057  0.8564
13398SOL    HW241005   3.477   3.784   5.221 -1.1389  1.2775  0.4514
13399SOL     OW41006   2.493   5.399   1.608  0.3933 -0.3699  0.2724
13399SOL    HW141007   2.451   5.404   1.694 -0.0803 -0.0522  0.0267
13399SOL    HW241008   2.502   5.305   1.592  0.8015 -0.4329  0.8141
13400SOL     OW41009   6.632   0.002   6.998  0.1129  0.0988 -0.1066
13400SOL    HW141010   6.716  -0.001   7.044 -0.8325  2.8532  2.1047
13400SOL    HW241011   6.634   0.083   6.948 -1.7319  1.0504  1.2316
13401SOL     OW41012   4.347   2.144   2.535 -0.3231 -0.1454  0.3334
13401SOL    HW141013   4.254   2.165   2.528 -0.6273 -0.8882  1.7435
13401SOL    HW241014   4.349   2.063   2.586  1.0724 -0.4606 -0.1761
13402SOL     OW41015   0.160   3.121   3.026  0.3383  0.2451 -0.1015
13402SOL    HW141016   0.105   3.170   2.965  0.3261  1.2683  0.7111
13402SOL    HW241017   0.144   3.162   3.111  1.4599 -0.2192  0.3474
13403SOL     OW41018   0.452   3.834   7.344  0.0905 -0.1130 -0.5375
13403SOL    HW141019   0.430   3.752   7.301 -0.2906 -0.2604 -0.0627
13403SOL    HW241020   0.538   3.858   7.308 -0.4751  0.0706 -1.8144
13404SOL     OW41021   5.094   4.131   7.882  0.0354 -0.4026 -0.0232
13404SOL    HW141022   5.051   4.125   7.797 -1.7454  2.7052  0.4918
13404SOL    HW241023   5.100   4.041   7.914 -3.0071 -1.3033 -1.6690
13405SOL     OW41024   3.903   1.546   0.316  0.1724  0.8138 -0.1204
13405SOL    HW141025   3.985   1.543   0.266 -1.1682  0.2187 -2.4065
13405SOL    HW241026   3.871   1.636   0.303  0.7936  1.2978  1.4374
13406SOL     OW41027   0.928   2.915   4.319  0.1872 -0.6240  0.2476
13406SOL    HW141028   0.986   2.941   4.390  1.0649  0.4207 -0.8038
13406SOL    HW241029   0.985   2.873   4.255 -0.3860 -0.5314 -0.3424
13407SOL     OW41030   2.121   4.501   2.923 -0.5236  0.0633  0.6049
13407SOL    HW141031   2.210   4.534   2.908 -0.3613 -1.5075 -2.7479
13407SOL    HW241032   2.068   4.545   2.857 -1.5343 -1.5687  0.2881
13408SOL     OW41033   7.579   4.027   5.688 -0.0456 -0.0003  0.0415
13408SOL    HW141034   7.544   3.938   5.685  0.4169 -0.2121  0.6646
13408SOL    HW241035   7.505   4.082   5.716 -0.0746 -0.3324  0.6206
13409SOL     OW41036   6.320   5.921   7.067 -0.0589 -0.1397  0.2197
13409SOL    HW141037   6.401   5.885   7.031  0.1634 -1.2211  1.7447
13409SOL    HW241038   6.299   5.994   7.008  1.2537 -0.7014 -1.0126
13410SOL     OW41039   1.890   7.532   5.727  0.1965  0.2413 -0.3888
13410SOL    HW141040   1.966   7.484   5.760 -0.2534 -0.6362 -0.5973
13410SOL    HW241041   1.888   7.512   5.633  1.4013  2.6230 -0.9959
13411SOL     OW41042   4.593   1.002   7.497  0.5774 -0.3190 -0.8524
13411SOL    HW141043   4.600   1.035   7.587 -2.1115  0.2472 -0.7774
13411SOL    HW241044   4.585   0.907   7.506  1.1540 -0.3443 -0.5711
13412SOL     OW41045   6.077   4.370   3.458 -0.2897 -0.5152 -0.1134
13412SOL    HW141046   6.098   4.277   3.459  0.2121 -0.4008  1.1808
13412SOL    HW241047   5.983   4.373   3.476 -0.1255 -0.7396  0.8311
13413SOL     OW41048   2.001   4.626   6.845  0.1369 -0.8090  0.0309
13413SOL    HW141049   2.042   4.653   6.927  2.4900 -2.5813 -0.4442
13413SOL    HW241050   1.913   4.600   6.869 -0.8238  2.8952  1.1811
13414SOL     OW41051   3.390   5.988   3.147  0.7666  0.1267  0.3515
13414SOL    HW141052   3.473   6.022   3.112  0.8965 -0.3489  0.1856
13414SOL    HW241053   3.351   6.063   3.192  0.1756  1.0217 -1.5438
13415SOL     OW41054   4.008   5.847   3.379 -0.4011  0.0945  0.1174
13415SOL    HW141055   3.960   5.861   3.460 -0.1472 -0.2904  0.3333
13415SOL    HW241056   3.940   5.842   3.311 -0.5448  2.0678  0.0518
13416SOL     OW41057   6.681   4.359   3.226  0.3254  0.4285  0.4448
13416SOL    HW141058   6.654   4.272   3.255  0.7943  0.6714  1.6557
13416SOL    HW241059   6.643   4.368   3.139 -0.8780 -0.4394  0.8625
13417SOL     OW41060   6.796   5.662   1.906 -0.4447 -0.0805 -0.2379
13417SOL    HW141061   6.780   5.573   1.937 -0.6608 -0.1318 -0.5024
13417SOL    HW241062   6.777   5.717   1.983  0.3045 -0.3035  0.1175
13418SOL     OW41063   3.087   7.136   2.920 -0.2760  0.2229  0.4246
13418SOL    HW141064   3.159   7.096   2.871  0.4217  0.4854  1.2116
13418SOL    HW241065   3.037   7.185   2.854  1.6561  2.0680  0.2066
13419SOL     OW41066   1.815   1.673   3.363  0.0225  0.5637 -0.4446
13419SOL    HW141067   1.749   1.712   3.305 -0.6333 -0.1601 -0.2018
13419SOL    HW241068   1.884   1.739   3.367 -1.4898  2.1727  0.7758
13420SOL     OW41069   7.258   0.246   0.267 -0.1882  0.2265  0.1043
13420SOL    HW141070   7.242   0.265   0.359  2.1470 -2.1665  1.1417
13420SOL    HW241071   7.353   0.236   0.260 -0.3416 -0.2314 -2.4387
13421SOL     OW41072   4.543   7.123   5.577  0.0580 -0.4851 -0.0685
13421SOL    HW141073   4.521   7.098   5.667  0.0605 -0.7704 -0.1472
13421SOL    HW241074   4.490   7.065   5.523  0.1025 -0.3535 -0.2523
13422SOL     OW41075   5.372   7.938   5.209 -0.3110 -0.7588  0.2025
13422SOL    HW141076   5.463   7.938   5.179 -0.3119 -1.7323  0.1637
13422SOL    HW241077   5.373   7.993   5.288 -0.1505  1.1285 -1.0586
13423SOL     OW41078   6.063   6.952   5.305  0.2258  0.1390  0.3442
13423SOL    HW141079   6.101   6.877   5.260  0.2636 -1.1050  2.3354
13423SOL    HW241080   5.988   6.916   5.353 -1.3067  1.8733 -0.6392
13424SOL     OW41081   4.599   7.073   0.065 -0.2684  0.4316  0.6654
13424SOL    HW141082   4.643   7.113  -0.010 -3.2926  2.3658 -0.2243
13424SOL    HW241083   4.575   7.146   0.121 -1.2467 -0.6567  1.7264
13425SOL     OW41084   7.693   0.856   0.276 -0.2281  0.3523 -0.0056
13425SOL    HW141085   7.648   0.771   0.277 -2.5972  1.4368  2.6790
13425SOL    HW241086   7.751   0.853   0.352 -2.3879  1.9357  1.8667
13426SOL     OW41087   3.093   5.122   5.976  0.1395  0.0514  0.1457
13426SOL    HW141088   3.150   5.046   5.991  0.2389 -0.0609 -0.7438
13426SOL    HW241089   3.113   5.150   5.886 -0.6340  0.4971  0.1001
13427SOL     OW41090   5.413   0.470   0.932  0.0081  0.1412 -0.8476
13427SOL    HW141091   5.344   0.536   0.931 -0.8930 -0.7627 -0.1787
13427SOL    HW241092   5.463   0.489   1.011  0.8315  1.0732 -1.5656
13428SOL     OW41093   7.531   4.553   3.197  0.6053 -0.6275  0.3854
13428SOL    HW141094   7.594   4.493   3.237 -1.3753 -2.3344  1.1365
13428SOL    HW241095   7.463   4.496   3.161 -2.5362  1.0693  3.0747
13429SOL     OW41096   2.379   0.440   6.452  0.6621 -0.9041  0.2761
13429SOL    HW141097   2.284   0.453   6.459  0.8344 -0.1475  1.3600
13429SOL    HW241098   2.392   0.349   6.478  0.2404 -1.0362  0.0513
13430SOL     OW41099   7.638   4.247   5.024 -0.7113 -0.1218 -0.6189
13430SOL    HW141100   7.716   4.210   5.065 -1.1596  1.3360  1.7942
13430SOL    HW241101   7.567   4.229   5.086 -1.8112  0.7020 -1.5794
13431SOL     OW41102   3.464   3.797   0.464 -0.2761  0.5340 -0.3129
13431SOL    HW141103   3.514   3.830   0.389 -1.4603 -0.2065 -1.4889
13431SOL    HW241104   3.409   3.871   0.490 -0.7366  0.4376 -0.9788
13432SOL     OW41105   4.749   7.610   5.669  0.2808 -0.7417 -0.2158
13432SOL    HW141106   4.672   7.553   5.675 -0.6873  0.5645  0.2524
13432SOL    HW241107   4.821   7.551   5.650 -1.1415 -1.7900 -2.9297
13433SOL     OW41108   7.058   1.156   7.392 -0.1342  0.5384 -0.0661
13433SOL    HW141109   7.005   1.077   7.409  0.9610 -0.1991  0.0388
13433SOL    HW241110   7.142   1.137   7.433  1.6825 -0.1279 -3.6823
13434SOL     OW41111   2.740   4.078   6.940  0.2276  0.1035  0.0027
13434SOL    HW141112   2.698   4.085   6.854 -0.5609 -0.3633  0.3300
13434SOL    HW241113   2.681   4.022   6.991  0.8104  0.1596  0.7711
13435SOL     OW41114   5.280   3.864   5.224 -0.4820  0.0076 -0.3968
13435SOL    HW141115   5.311   3.839   5.311 -1.5215  1.0450  0.2825
13435SOL    HW241116   5.217   3.933   5.239 -0.0067  0.8559 -2.0445
13436SOL     OW41117   0.926   4.733   6.167 -0.2039 -0.5580  0.3932
13436SOL    HW141118   0.834   4.723   6.144 -0.5504  1.1145  0.9370
13436SOL    HW241119   0.935   4.688   6.251 -1.1318  1.3566  1.5726
13437SOL     OW41120   0.111   3.763   0.304 -0.1543 -1.0178 -0.1481
13437SOL    HW141121   0.183   3.790   0.362  0.1546  0.0170 -0.9795
13437SOL    HW241122   0.116   3.668   0.303  0.5627 -1.0070  0.6055
13438SOL     OW41123   4.771   1.284   0.749 -0.1761 -0.2568 -0.1276
13438SOL    HW141124   4.743   1.265   0.839 -0.1060 -0.7577 -0.2050
13438SOL    HW241125   4.822   1.365   0.756  1.0591 -1.0512  0.5237
13439SOL     OW41126   2.869   4.054   3.323 -0.5025  0.0674 -0.0875
13439SOL    HW141127   2.912   3.998   3.389 -0.5379  1.1030  0.8443
13439SOL    HW241128   2.816   4.114   3.375  0.9607  2.1759 -0.9206
13440SOL     OW41129   0.255   0.358   2.462  0.4754 -0.3551 -0.0101
13440SOL    HW141130   0.172   0.404   2.450  0.3723 -0.6906 -0.6611
13440SOL    HW241131   0.279   0.374   2.553  0.1480  0.4873 -0.0592
13441SOL     OW41132   6.437   4.863   7.480 -0.3510  0.0471 -0.5026
13441SOL    HW141133   6.391   4.945   7.495  2.0671  1.0758  2.4156
13441SOL    HW241134   6.437   4.819   7.564  1.0883 -1.4447 -1.2084
13442SOL     OW41135   4.744   6.473   5.349 -0.1576  0.2015 -0.2784
13442SOL    HW141136   4.705   6.386   5.359 -1.5060  0.7247 -0.8401
13442SOL    HW241137   4.698   6.527   5.413  1.0368  0.4096  0.4357
13443SOL     OW41138   5.964   4.466   5.834 -0.4612  0.3082  0.1090
13443SOL    HW141139   5.960   4.561   5.835 -0.0381  0.3226  1.0177
13443SOL    HW241140   5.989   4.444   5.744 -0.5089  1.0552 -0.0875
13444SOL     OW41141   6.446   2.249   4.977 -0.0645 -0.3522  0.0180
13444SOL    HW141142   6.534   2.284   4.987  0.6427 -2.2650  0.9778
13444SOL    HW241143   6.405   2.262   5.063 -0.5174 -0.0209 -0.2427
13445SOL     OW41144   1.561   2.350   3.459  0.0169 -0.4857 -0.3107
13445SOL    HW141145   1.532   2.345   3.550 -0.3203 -0.2059 -0.4035
13445SOL    HW241146   1.543   2.440   3.432 -0.1469 -0.6436 -0.7438
13446SOL     OW41147   4.740   3.381   4.493 -0.3704  0.2354  0.1157
13446SOL    HW141148   4.709   3.307   4.441 -2.5338  2.0433 -1.3697
13446SOL    HW241149   4.683   3.381   4.570  0.5916 -0.4305  0.8597
13447SOL     OW41150   0.247   6.188   7.968  0.2866  0.1983 -0.0130
13447SOL    HW141151   0.238   6.259   7.905 -0.0261 -1.0959 -1.4987
13447SOL    HW241152   0.158   6.154   7.980  0.5375 -0.4829 -0.0085
13448SOL     OW41153   5.170   6.863   1.182  0.1943 -0.5069 -0.2820
13448SOL    HW141154   5.192   6.953   1.157  1.6385 -0.4911  0.9292
13448SOL    HW241155   5.083   6.870   1.222  0.3497  0.3724 -0.0797
13449SOL     OW41156   2.135   1.299   4.667 -0.1745 -0.4692  0.0060
13449SOL    HW141157   2.089   1.301   4.751  0.5515  1.2208  0.3995
13449SOL    HW241158   2.090   1.363   4.612  1.4826  1.0462  0.3188
13450SOL     OW41159   2.524   7.777   1.685 -0.0427  0.3246  0.2204
13450SOL    HW141160   2.503   7.823   1.767 -0.8835 -0.0348  0.2148
13450SOL    HW241161   2.489   7.689   1.697  0.0045  0.2117 -0.4579
13451SOL     OW41162   6.389   7.152   2.486  0.2155 -0.2559 -0.0871
13451SOL    HW141163   6.459   7.159   2.421 -0.8485  2.3268 -1.1176
13451SOL    HW241164   6.421   7.203   2.561 -0.5123  1.0126 -0.5975
13452SOL     OW41165   3.804   7.874   0.367 -0.0193  0.3699  0.5539
13452SOL    HW141166   3.866   7.804   0.346 -1.2654 -0.9093  0.9897
13452SOL    HW241167   3.735   7.865   0.301  1.0597  2.9503 -1.0848
13453SOL     OW41168   2.981   6.642   2.040 -0.4353 -0.4683 -0.2770
13453SOL    HW141169   3.024   6.606   1.962  1.2986 -1.1402  0.9230
13453SOL    HW241170   2.916   6.577   2.063 -2.7391  0.8665 -2.5017
13454SOL     OW41171   7.870   7.276   0.489 -0.0606 -0.2447  0.2323
13454SOL    HW141172   7.884   7.312   0.401 -0.0131 -0.1522  0.2774
13454SOL    HW241173   7.880   7.182   0.478  2.1807 -0.1081  0.5319
13455SOL     OW41174   3.117   1.931   1.121  0.0828 -0.2829  0.0926
13455SOL    HW141175   3.172   1.853   1.127  2.9880  1.3258 -2.4690
13455SOL    HW241176   3.178   2.003   1.103 -2.7228  1.9157 -1.7974
13456SOL     OW41177   3.502   2.410   3.004 -0.9927  0.0962  0.0674
13456SOL    HW141178   3.469   2.434   3.091  1.6413  0.8200  0.9518
13456SOL    HW241179   3.516   2.316   3.009 -0.1393  0.2408  0.7412
13457SOL     OW41180   0.873   0.162   4.668 -0.5754 -0.3311 -0.1026
13457SOL    HW141181   0.823   0.088   4.635  0.6658 -1.0914 -0.3392
13457SOL    HW241182   0.925   0.125   4.740 -1.5649  0.7973  1.2429
13458SOL     OW41183   3.088   7.007   3.951  0.0902  0.2913 -0.7808
13458SOL    HW141184   3.013   7.060   3.978 -0.3266  0.3694 -2.0200
13458SOL    HW241185   3.051   6.920   3.936  0.4397  0.0852 -0.4828
13459SOL     OW41186   7.541   6.075   0.012  0.1463 -0.1166 -0.3856
13459SOL    HW141187   7.616   6.042   0.060  0.8620 -0.0911 -1.4504
13459SOL    HW241188   7.574   6.153  -0.033 -0.7187  0.3284 -0.2699
13460SOL     OW41189   1.841   5.942   3.280  0.2262  0.6444 -0.0092
13460SOL    HW141190   1.814   5.850   3.282  0.2530  0.5549 -1.9670
13460SOL    HW241191   1.871   5.956   3.191 -0.4356  2.7503  0.0502
13461SOL     OW41192   6.858   4.659   3.937 -0.0511 -0.2961 -0.1427
13461SOL    HW141193   6.852   4.636   3.845 -1.6345  0.9228 -0.3802
13461SOL    HW241194   6.943   4.701   3.946 -0.6684  1.3700 -1.5124
13462SOL     OW41195   4.969   0.682   4.457  0.2128  0.0076 -0.2464
13462SOL    HW141196   4.942   0.594   4.486 -0.2481 -0.1917 -1.2502
13462SOL    HW241197   4.965   0.735   4.536  1.9094 -1.1792  0.7153
13463SOL     OW41198   3.001   7.165   7.191  0.1472  0.5642 -0.4865
13463SOL    HW141199   3.001   7.089   7.249 -1.2911 -0.0138 -1.1826
13463SOL    HW241200   3.071   7.221   7.224  0.7553 -0.7169  0.4971
13464SOL     OW41201   1.037   1.465   6.740 -0.0115  0.1846 -0.0967
13464SOL    HW141202   1.059   1.412   6.816  1.1806  2.0036  0.9159
13464SOL    HW241203   0.982   1.536   6.775 -0.9429  0.0690 -1.2559
13465SOL     OW41204   6.666   1.631   5.547  0.2580 -0.0685  0.1390
13465SOL    HW141205   6.686   1.553   5.495 -0.7838 -1.1146  1.2355
13465SOL    HW241206   6.746   1.683   5.544  1.0031 -1.2139 -0.5698
13466SOL     OW41207   6.025   4.537   0.377  0.3333  0.2116  0.0881
13466SOL    HW141208   5.939   4.506   0.406  1.3032 -1.7187  1.1208
13466SOL    HW241209   6.014   4.556   0.284 -1.1705 -0.1857  0.1595
13467SOL     OW41210   4.230   3.962   7.547  0.3886  0.2879 -0.6568
13467SOL    HW141211   4.236   3.891   7.483  0.0632 -0.2571 -0.0944
13467SOL    HW241212   4.254   4.040   7.498  0.6155 -0.1887 -1.3237
13468SOL     OW41213   1.807   7.891   2.025  0.0825  0.0421  0.1667
13468SOL    HW141214   1.719   7.895   1.987  0.4071 -1.6005 -0.8545
13468SOL    HW241215   1.803   7.817   2.085  0.5631  0.4672  0.7342
13469SOL     OW41216   2.898   2.296   2.314 -0.3849 -0.5725  0.2637
13469SOL    HW141217   2.950   2.329   2.241  0.0457 -1.0024  0.3694
13469SOL    HW241218   2.955   2.304   2.390 -1.7279  2.3373  1.0758
13470SOL     OW41219   7.793   0.511   4.883  0.2435  0.0372 -0.4862
13470SOL    HW141220   7.710   0.479   4.917 -0.4609  1.8837 -0.3319
13470SOL    HW241221   7.856   0.492   4.952 -0.4074  0.1776  0.1558
13471SOL     OW41222   1.498   7.052   4.868  0.0515  0.1470 -0.5417
13471SOL    HW141223   1.520   7.118   4.933  1.5520  0.0150 -0.8679
13471SOL    HW241224   1.444   6.988   4.915 -0.2399  0.8803  0.1315
13472SOL     OW41225   5.589   4.465   4.895 -0.0619  0.4227  0.2869
13472SOL    HW141226   5.652   4.537   4.887  2.2049 -1.6111 -2.1493
13472SOL    HW241227   5.628   4.407   4.960  0.4255 -0.6292 -0.9031
13473SOL     OW41228   6.332   1.061   5.058  0.6366  0.1355 -0.3202
13473SOL    HW141229   6.238   1.063   5.075  0.7726 -1.2231  0.7509
13473SOL    HW241230   6.359   1.153   5.062 -0.7561  0.6507 -1.4984
13474SOL     OW41231   2.698   1.617   4.607 -0.1982  0.4493 -0.1627
13474SOL    HW141232   2.615   1.617   4.559 -0.8646 -1.3098  0.8791
13474SOL    HW241233   2.717   1.525   4.621  0.6431  0.8654  1.7650
13475SOL     OW41234   2.021   6.102   2.345  0.7848  0.2245  0.2359
13475SOL    HW141235   2.035   6.181   2.398  2.1510  0.2310 -0.1032
13475SOL    HW241236   2.062   6.032   2.395  2.2076  0.2548 -0.8453
13476SOL     OW41237   4.085   3.767   6.634 -0.1552  0.1900  0.3061
13476SOL    HW141238   4.004   3.739   6.679 -0.8521  0.9106 -0.4728
13476SOL    HW241239   4.143   3.691   6.641 -0.6801 -0.1399  1.3855
13477SOL     OW41240   3.197   7.044   5.964  1.1362  0.1415  0.2064
13477SOL    HW141241   3.116   7.003   5.996  1.2264 -0.6069 -0.5106
13477SOL    HW241242   3.172   7.136   5.950  0.5731  0.0509  0.5513
13478SOL     OW41243   2.766   1.836   6.178 -0.4759 -0.0902 -0.3617
13478SOL    HW141244   2.732   1.910   6.127  0.8149  0.0073 -1.1206
13478SOL    HW241245   2.747   1.859   6.269 -0.3426  1.0436 -0.6074
13479SOL     OW41246   7.012   6.046   5.270  0.4447 -0.0738 -0.0921
13479SOL    HW141247   7.064   6.108   5.219  0.6514 -0.3005 -0.1550
13479SOL    HW241248   7.050   6.048   5.358  1.6392 -1.4866 -0.5505
13480SOL     OW41249   3.211   4.513   0.485 -0.0451  0.0898  0.5563
13480SOL    HW141250   3.163   4.459   0.549 -0.0982 -0.6069 -0.0638
13480SOL    HW241251   3.256   4.450   0.429 -1.4574  0.6215 -1.2489
13481SOL     OW41252   2.409   1.265   0.966 -0.2020 -0.6932  0.1580
13481SOL    HW141253   2.378   1.339   0.914 -0.0681 -1.4971 -1.1156
13481SOL    HW241254   2.469   1.304   1.030 -0.5880  0.3610 -0.1095
13482SOL     OW41255   7.091   4.709   5.057  0.1431  0.2228  0.1837
13482SOL    HW141256   7.052   4.743   4.976 -0.2561  0.7275  0.5733
13482SOL    HW241257   7.184   4.700   5.038 -0.1101 -0.7001 -0.6737
13483SOL     OW41258   4.732   5.393   7.466 -0.7371  0.0410  0.1938
13483SOL    HW141259   4.688   5.469   7.505 -0.1126 -0.2307  1.4636
13483SOL    HW241260   4.775   5.428   7.388  0.0146  1.1325  1.0686
13484SOL     OW41261   2.005   4.340   6.604 -0.2098 -0.2537  0.1516
13484SOL    HW141262   1.985   4.304   6.691  0.2551 -0.9879 -0.0371
13484SOL    HW241263   1.991   4.267   6.544 -0.1818  0.1514 -0.3542
13485SOL     OW41264   0.612   1.793   4.260 -0.0598  0.2466 -0.4576
13485SOL    HW141265   0.610   1.856   4.188  2.2704 -1.3632 -2.0617
13485SOL    HW241266   0.648   1.713   4.222  0.9323 -0.8076  2.4167
13486SOL     OW41267   3.336   1.217   4.479 -0.3665 -0.0956  0.3559
13486SOL    HW141268   3.415   1.239   4.430  0.2270 -1.8005  0.4573
13486SOL    HW241269   3.274   1.287   4.460  1.0273  1.0659 -0.0568
13487SOL     OW41270   0.236   1.478   1.773  0.1361  0.0909  0.0348
13487SOL    HW141271   0.312   1.535   1.783  3.2745 -3.3512 -1.8309
13487SOL    HW241272   0.225   1.437   1.859 -1.1544  2.1261  0.9283
13488SOL     OW41273   5.189   6.197   3.488  0.0475 -0.0264 -0.0782
13488SOL    HW141274   5.272   6.170   3.525  0.8777  1.1286 -1.0268
13488SOL    HW241275   5.188   6.292   3.497 -0.5425  0.1052 -1.2958
13489SOL     OW41276   1.710   6.036   0.837 -0.0145  0.3342 -0.4887
13489SOL    HW141277   1.783   6.097   0.851 -0.5672  1.3102 -1.6588
13489SOL    HW241278   1.722   6.005   0.748 -1.3224  0.9400 -0.8977
13490SOL     OW41279   2.667   1.824   1.070  0.5387  0.0228 -0.2279
13490SOL    HW141280   2.664   1.916   1.045 -0.4069 -0.0992 -0.6301
13490SOL    HW241281   2.720   1.822   1.149 -1.7648  1.3484  1.4797
13491SOL     OW41282   7.536   2.636   0.750  0.2935 -0.1155  0.2117
13491SOL    HW141283   7.488   2.665   0.673  0.1893 -0.7992  0.0086
13491SOL    HW241284   7.492   2.679   0.823 -2.1140 -2.4320  0.2575
13492SOL     OW41285   3.084   2.663   2.818 -0.7091 -0.2412  0.1396
13492SOL    HW141286   3.102   2.589   2.877  0.8231  0.5377  0.7015
13492SOL    HW241287   3.007   2.635   2.769 -1.1386 -1.5489  1.4532
13493SOL     OW41288   7.289   6.164   6.405  0.2841  0.2750 -0.1227
13493SOL    HW141289   7.265   6.255   6.392 -0.3973  0.0117 -0.7863
13493SOL    HW241290   7.264   6.120   6.323  2.0867 -0.2243 -0.4509
13494SOL     OW41291   2.767   6.850   4.786  0.3090 -0.6447  0.4139
13494SOL    HW141292   2.691   6.897   4.752  1.4244  0.4711 -0.6233
13494SOL    HW241293   2.736   6.760   4.799 -0.8875 -0.4832 -1.0576
13495SOL     OW41294   2.747   7.347   3.694  0.2003  0.6742  0.1413
13495SOL    HW141295   2.677   7.304   3.743 -0.8135  0.5797 -1.3203
13495SOL    HW241296   2.705   7.420   3.650  0.8309  0.1912 -1.3528
13496SOL     OW41297   7.733   2.665   3.896 -0.2053 -0.2251  0.2068
13496SOL    HW141298   7.788   2.615   3.835 -0.8875  0.8145 -1.3180
13496SOL    HW241299   7.768   2.754   3.892 -0.5806 -0.0353  0.9769
13497SOL     OW41300   7.943   5.191   1.463 -0.2506  0.8625 -0.4743
13497SOL    HW141301   7.921   5.277   1.427 -0.3087  2.1831  2.4615
13497SOL    HW241302   8.032   5.174   1.431  0.1328  2.4516 -0.3530
13498SOL     OW41303   5.628   7.433   4.402 -0.9405 -0.1927 -0.7182
13498SOL    HW141304   5.622   7.345   4.364 -2.1585 -0.3405 -0.2258
13498SOL    HW241305   5.539   7.453   4.430 -1.1362  2.0345 -2.6117
13499SOL     OW41306   2.675   7.883   3.831 -0.3872  0.4304 -0.2666
13499SOL    HW141307   2.627   7.963   3.854 -0.3039  0.5842 -0.6229
13499SOL    HW241308   2.664   7.826   3.907 -1.8271  0.1426 -0.6706
13500SOL     OW41309   4.681   3.271   2.850  0.1076 -0.1481  0.5032
13500SOL    HW141310   4.600   3.309   2.817  0.4278 -0.6279 -0.9317
13500SOL    HW241311   4.736   3.262   2.772  1.3657 -0.2505  1.3780
13501SOL     OW41312   1.252   4.439   7.356  0.8873 -0.0594 -0.3083
13501SOL    HW141313   1.163   4.407   7.342  0.9267 -1.4823  2.1591
13501SOL    HW241314   1.241   4.524   7.398  0.6777 -0.2960  0.1199
13502SOL     OW41315   5.433   0.991   6.844 -0.1291  0.6257  0.1533
13502SOL    HW141316   5.420   0.956   6.932  1.5188  3.5861  1.7403
13502SOL    HW241317   5.356   1.046   6.829  0.7251  2.0630  0.8577
13503SOL     OW41318   7.691   1.450   5.115 -0.2312 -0.0565  0.3105
13503SOL    HW141319   7.786   1.442   5.122 -0.1644 -0.4559 -0.8639
13503SOL    HW241320   7.676   1.540   5.088 -0.1686 -0.0554  0.2790
13504SOL     OW41321   4.728   1.905   3.035  0.1469  0.0753 -0.0647
13504SOL    HW141322   4.651   1.854   3.061 -0.3194  1.3040  1.0777
13504SOL    HW241323   4.719   1.914   2.940 -2.0007  1.5042  0.1898
13505SOL     OW41324   1.371   1.922   5.026  0.4506  0.1463 -0.0753
13505SOL    HW141325   1.310   1.879   4.967 -0.6592  0.8188  0.5621
13505SOL    HW241326   1.368   2.015   5.001  0.7003  0.2893  0.4000
13506SOL     OW41327   5.854   4.887   2.164  0.4694  0.2663 -0.1174
13506SOL    HW141328   5.809   4.970   2.147 -0.9225 -0.6441 -1.1364
13506SOL    HW241329   5.784   4.826   2.186  1.2249 -1.1546 -1.4760
13507SOL     OW41330   1.371   1.222   2.846 -0.1112  0.1867  0.5545
13507SOL    HW141331   1.378   1.265   2.931  0.8060  0.2498  0.4583
13507SOL    HW241332   1.294   1.262   2.805  1.2588  2.5477  0.0433
13508SOL     OW41333   0.420   7.802   5.368  0.0489 -0.2534 -0.5710
13508SOL    HW141334   0.340   7.811   5.419 -0.6010 -1.3822 -1.3314
13508SOL    HW241335   0.485   7.853   5.415 -0.7092 -0.6496  0.9532
13509SOL     OW41336   3.047   1.405   1.977  0.2615  0.0961 -0.6767
13509SOL    HW141337   3.031   1.329   2.033 -0.4534 -0.6767 -1.8822
13509SOL    HW241338   3.130   1.385   1.933 -1.0777 -1.1969 -2.8077
13510SOL     OW41339   4.538   4.189   4.370  0.1254 -0.0086 -0.0318
13510SOL    HW141340   4.627   4.218   4.386  0.9362 -1.3581 -1.7619
13510SOL    HW241341   4.527   4.197   4.275 -1.4772 -0.2092  0.1053
13511SOL     OW41342   3.387   6.058   4.660  0.1296 -0.3259 -0.2971
13511SOL    HW141343   3.307   6.092   4.700  0.0079 -0.9987  0.0427
13511SOL    HW241344   3.436   6.019   4.732  1.1602  0.8039 -0.3606
13512SOL     OW41345   1.550   4.394   1.513 -0.6566  0.5485  0.0473
13512SOL    HW141346   1.513   4.425   1.595 -1.9162  0.6641 -0.5388
13512SOL    HW241347   1.572   4.473   1.464  1.8366  0.5214  0.9578
13513SOL     OW41348   3.728   2.025   0.802 -0.4736 -0.2454 -0.0874
13513SOL    HW141349   3.818   2.057   0.796  0.3672 -2.4115 -0.0825
13513SOL    HW241350   3.675   2.092   0.760  1.2967  0.5433 -1.1421
13514SOL     OW41351   7.135   4.762   6.665  0.2041  0.2854 -0.1561
13514SOL    HW141352   7.136   4.676   6.709 -0.0405  0.3556 -0.0099
13514SOL    HW241353   7.104   4.742   6.576 -2.7023  0.5723  0.6900
13515SOL     OW41354   0.038   4.972   5.254  0.0955  0.6175 -0.0776
13515SOL    HW141355   0.011   4.884   5.281 -1.9381  0.9252 -0.9473
13515SOL    HW241356   0.133   4.972   5.264  0.0301 -1.3101  0.9963
13516SOL     OW41357   7.687   5.222   6.702  0.1735  0.1581 -0.0451
13516SOL    HW141358   7.782   5.220   6.698  0.2109 -0.9309  0.9529
13516SOL    HW241359   7.663   5.306   6.662  1.4330 -0.4171 -2.1938
13517SOL     OW41360   4.496   4.341   2.284 -0.8952 -0.3979 -0.2539
13517SOL    HW141361   4.580   4.305   2.259 -1.0129 -0.5632 -0.4145
13517SOL    HW241362   4.458   4.374   2.203 -1.3601 -1.1060 -0.3364
13518SOL     OW41363   4.432   7.631   5.975 -0.6053 -0.2855 -0.5161
13518SOL    HW141364   4.497   7.562   5.985  1.2948  1.7075  2.6562
13518SOL    HW241365   4.472   7.693   5.914  0.9838  1.2375  1.8885
13519SOL     OW41366   7.193   0.469   1.588 -0.0254  0.1677 -0.3579
13519SOL    HW141367   7.272   0.430   1.551  1.4449  2.9839 -0.4678
13519SOL    HW241368   7.167   0.409   1.658  1.4807 -1.4479 -1.1109
13520SOL     OW41369   4.066   1.815   7.749  0.0944  0.1546 -0.2281
13520SOL    HW141370   4.037   1.872   7.820  0.7012  0.4290 -0.1956
13520SOL    HW241371   4.076   1.874   7.673  0.2529  0.0098 -0.3204
13521SOL     OW41372   4.586   4.377   0.698 -0.3270 -0.7962  0.1724
13521SOL    HW141373   4.533   4.313   0.745  0.6435 -1.5800  0.2345
13521SOL    HW241374   4.589   4.454   0.755  1.5252 -2.0302  1.8252
13522SOL     OW41375   5.238   6.578   5.062  0.2096  0.2754  0.1478
13522SOL    HW141376   5.255   6.557   4.971  0.4861 -1.6511  0.5959
13522SOL    HW241377   5.186   6.659   5.059 -0.1668  0.0050 -1.7124
13523SOL     OW41378   1.730   1.006   3.241  0.9540  0.1788 -0.2085
13523SOL    HW141379   1.751   0.918   3.272 -0.6772 -0.1697 -0.0016
13523SOL    HW241380   1.725   0.997   3.146 -0.7542 -0.3787 -0.1185
13524SOL     OW41381   6.551   6.060   0.427 -0.4853  0.7750  0.0558
13524SOL    HW141382   6.515   6.132   0.375  0.8995  0.6048 -1.1977
13524SOL    HW241383   6.626   6.099   0.473  1.1053 -0.1045 -1.6567
13525SOL     OW41384   6.022   2.976   6.225 -0.0873  0.1234  0.1957
13525SOL    HW141385   6.002   2.915   6.155 -0.0572  0.4855 -0.1320
13525SOL    HW241386   6.034   3.060   6.181 -0.2063  0.3811  0.6497
13526SOL     OW41387   4.472   5.956   3.229  0.3237 -0.2642  0.2823
13526SOL    HW141388   4.382   5.935   3.255  1.0893 -1.4172  2.2221
13526SOL    HW241389   4.506   6.007   3.302  0.9495  1.0844 -0.9170
13527SOL     OW41390   4.430   4.860   4.710 -0.3043 -0.0503  0.1823
13527SOL    HW141391   4.414   4.767   4.693  1.1008  0.0189 -1.8996
13527SOL    HW241392   4.493   4.886   4.642 -1.5605  2.7219 -0.0443
13528SOL     OW41393   2.303   4.981   2.674 -0.3308 -0.1838  0.1830
13528SOL    HW141394   2.262   4.972   2.588 -0.7584 -0.1796  0.3849
13528SOL    HW241395   2.289   5.073   2.698  1.3403  0.2910 -0.5161
13529SOL     OW41396   3.951   6.925   3.438 -0.3609 -0.3412 -0.0622
13529SOL    HW141397   3.949   6.999   3.377 -2.5919  1.8248  2.3997
13529SOL    HW241398   3.913   6.852   3.389 -1.4696  1.1332 -1.4886
13530SOL     OW41399   6.628   7.792   4.248 -0.5746  0.6819 -0.3192
13530SOL    HW141400   6.705   7.790   4.305  0.5802  1.2954 -1.8058
13530SOL    HW241401   6.575   7.864   4.282 -0.6801  0.0673  0.8973
13531SOL     OW41402   7.394   1.866   4.759 -0.4512 -0.3580 -0.4729
13531SOL    HW141403   7.402   1.780   4.718  2.5707 -0.4129 -0.0088
13531SOL    HW241404   7.344   1.850   4.839  1.3910 -2.0934  0.4197
13532SOL     OW41405   4.904   1.497   1.807  0.0664 -0.1113 -0.1943
13532SOL    HW141406   4.865   1.554   1.873 -1.1657 -2.0849  0.8922
13532SOL    HW241407   4.996   1.489   1.833 -0.1700 -0.0496  0.6883
13533SOL     OW41408   3.008   4.042   2.758 -0.1435 -0.2909 -0.1484
13533SOL    HW141409   3.076   3.981   2.785  1.3120  0.9056 -0.9812
13533SOL    HW241410   2.965   4.067   2.840  0.7091 -0.7292  0.4495
13534SOL     OW41411   7.906   5.040   7.891  0.0082  0.2906  0.2175
13534SOL    HW141412   7.920   5.125   7.931 -0.0177 -0.3485  1.6351
13534SOL    HW241413   7.833   5.053   7.830  0.9862  1.6089 -0.7250
13535SOL     OW41414   2.339   5.789   6.826 -0.4494 -0.0241 -0.9336
13535SOL    HW141415   2.330   5.789   6.921 -1.4762  0.8338 -1.0155
13535SOL    HW241416   2.287   5.714   6.797 -0.5575  0.0206 -0.8528
13536SOL     OW41417   0.387   0.427   7.301 -0.2785  0.0462 -0.0656
13536SOL    HW141418   0.301   0.457   7.330  0.1835  0.5819  0.7957
13536SOL    HW241419   0.412   0.487   7.231  0.2914  1.2485  1.1085
13537SOL     OW41420   7.156   1.510   6.156 -0.7345 -0.3099 -0.5846
13537SOL    HW141421   7.075   1.485   6.200 -0.3195 -0.7142 -0.0230
13537SOL    HW241422   7.218   1.441   6.181  0.0585  0.5401 -0.1680
13538SOL     OW41423   0.569   3.609   4.797 -0.4819  0.9596  0.0288
13538SOL    HW141424   0.585   3.682   4.856  1.2096 -0.5710  1.6066
13538SOL    HW241425   0.541   3.537   4.854 -0.3158 -0.1260 -1.2071
13539SOL     OW41426   3.453   3.681   5.641 -0.4387 -0.2291  0.2480
13539SOL    HW141427   3.533   3.696   5.692  0.6768 -1.1387 -1.1360
13539SOL    HW241428   3.412   3.605   5.681 -0.7101  0.3325  1.0624
13540SOL     OW41429   7.837   7.683   7.173 -0.0507 -0.3757  0.2821
13540SOL    HW141430   7.925   7.649   7.156  0.4559  0.4483  1.1274
13540SOL    HW241431   7.778   7.615   7.141  0.9017 -1.3410  0.5208
13541SOL     OW41432   6.504   6.964   4.935 -0.5924 -0.4928  0.1799
13541SOL    HW141433   6.466   6.970   5.023  0.5255 -1.0597  0.7286
13541SOL    HW241434   6.500   6.871   4.913 -3.3590 -0.0558 -1.5607
13542SOL     OW41435   2.607   7.875   5.696  0.6840  0.8864  0.3274
13542SOL    HW141436   2.657   7.854   5.617  1.5441  0.2277  1.0281
13542SOL    HW241437   2.516   7.874   5.667  0.7546 -2.2583 -0.0682
13543SOL     OW41438   0.019   5.864   2.116  0.4192  0.6987 -0.4256
13543SOL    HW141439   0.010   5.947   2.162  1.9187 -0.2304  1.7308
13543SOL    HW241440   0.110   5.837   2.132 -0.1719 -1.6177 -0.5313
13544SOL     OW41441   0.255   1.982   0.118 -0.0927  0.5738  0.1934
13544SOL    HW141442   0.197   1.907   0.128  0.1451  0.3128 -0.3540
13544SOL    HW241443   0.343   1.945   0.124  0.0337  1.0343  1.5241
13545SOL     OW41444   0.267   0.529   4.590 -0.0920  0.3050 -0.0346
13545SOL    HW141445   0.187   0.577   4.614 -0.7173 -0.5965 -0.2736
13545SOL    HW241446   0.337   0.594   4.597 -0.7991  1.0208  0.5165
13546SOL     OW41447   0.019   2.851   3.065 -0.3668  0.3345 -0.4038
13546SOL    HW141448   0.069   2.920   3.021  1.8544 -1.9590 -1.7509
13546SOL    HW241449   0.048   2.854   3.156 -0.5980  1.3846 -0.3510
13547SOL     OW41450   6.344   6.281   1.476  0.0289 -0.1604  0.2079
13547SOL    HW141451   6.316   6.371   1.463  0.0186 -0.2391 -0.3408
13547SOL    HW241452   6.266   6.229   1.458  0.4859 -0.3782 -1.2605
13548SOL     OW41453   0.190   2.846   7.384  0.2640 -0.0727  0.1185
13548SOL    HW141454   0.200   2.926   7.437  1.1229 -0.8779  1.1975
13548SOL    HW241455   0.190   2.878   7.294 -2.3174  1.4682  0.5485
13549SOL     OW41456   2.654   3.493   3.669 -0.2402 -0.3994 -0.1028
13549SOL    HW141457   2.710   3.505   3.592 -1.5844 -0.5092 -1.1321
13549SOL    HW241458   2.704   3.435   3.726  0.7622 -0.3621 -0.9091
13550SOL     OW41459   3.241   1.261   4.164  0.0952  0.0084  0.1988
13550SOL    HW141460   3.151   1.283   4.189  0.3290 -0.5922  1.7180
13550SOL    HW241461   3.294   1.286   4.240  1.1667  0.0164 -0.5289
13551SOL     OW41462   3.022   5.840   1.804 -0.5973  0.5028 -0.3621
13551SOL    HW141463   2.986   5.790   1.730  0.4936 -0.8349 -0.0458
13551SOL    HW241464   3.006   5.784   1.880 -0.2443  1.1094  0.1638
13552SOL     OW41465   2.046   2.530   6.959 -0.1529 -0.1424  0.8395
13552SOL    HW141466   1.995   2.600   6.917  1.5912  1.3165  1.0777
13552SOL    HW241467   2.059   2.466   6.889 -1.3455 -0.0299  0.4824
13553SOL     OW41468   2.359   3.899   7.142 -0.3766 -0.0402 -0.2412
13553SOL    HW141469   2.279   3.885   7.091  0.1680  0.3379 -1.2256
13553SOL    HW241470   2.346   3.847   7.222 -0.2341 -2.6865 -1.8223
13554SOL     OW41471   5.396   5.464   6.607 -0.6735 -0.0387  0.0304
13554SOL    HW141472   5.454   5.432   6.538 -0.3673 -0.2564  0.3867
13554SOL    HW241473   5.403   5.399   6.677 -1.4578 -0.1450  0.0217
13555SOL     OW41474   7.072   3.392   0.166  0.4033 -0.2317  0.7500
13555SOL    HW141475   6.997   3.399   0.107  0.4949  1.0776  0.7640
13555SOL    HW241476   7.134   3.336   0.120  0.1620  0.1634 -0.0706
13556SOL     OW41477   7.660   7.660   2.017  0.7888  0.2118 -0.0829
13556SOL    HW141478   7.573   7.692   1.994 -0.5005 -0.8021  2.8050
13556SOL    HW241479   7.707   7.738   2.045  0.2337  0.5681 -0.1238
13557SOL     OW41480   3.409   1.295   0.521 -0.0146 -0.0322 -0.2791
13557SOL    HW141481   3.330   1.321   0.474  0.7496  0.0896 -1.5363
13557SOL    HW241482   3.447   1.226   0.467  0.8920  0.1052  0.1636
13558SOL     OW41483   6.048   4.776   0.074 -0.4165  0.0032  0.1810
13558SOL    HW141484   6.033   4.683   0.054 -0.6910 -0.3228  1.7797
13558SOL    HW241485   6.140   4.781   0.098  0.2355  0.6177 -2.1996
13559SOL     OW41486   5.035   6.929   7.206 -0.1383 -0.2109 -0.2458
13559SOL    HW141487   5.104   6.877   7.247  1.5268  2.3011  0.3894
13559SOL    HW241488   5.044   6.912   7.112  1.7955  0.4835 -0.2288
13560SOL     OW41489   5.257   2.469   2.099 -0.3955  0.3290  0.2314
13560SOL    HW141490   5.307   2.393   2.131 -0.7327 -0.1987 -0.4664
13560SOL    HW241491   5.186   2.479   2.162  0.8039  1.3653  1.4976
13561SOL     OW41492   7.269   1.886   6.738 -0.6800 -0.1378  0.0498
13561SOL    HW141493   7.268   1.886   6.834 -0.0150  0.9849  0.0792
13561SOL    HW241494   7.240   1.798   6.713 -1.1151 -0.3560  1.2747
13562SOL     OW41495   3.038   0.009   3.565  0.2078 -0.1341  0.0663
13562SOL    HW141496   2.968   0.071   3.587  0.5621  0.4907 -0.5198
13562SOL    HW241497   3.118   0.053   3.593  0.3176 -1.2971  1.7346
13563SOL     OW41498   7.295   7.180   5.449 -0.6287  0.0671 -0.1960
13563SOL    HW141499   7.325   7.165   5.538 -0.5264 -0.2626 -0.2841
13563SOL    HW241500   7.266   7.271   5.448 -1.7444 -0.2753  0.4862
13564SOL     OW41501   2.582   7.696   4.852 -0.3862  0.0384 -0.1682
13564SOL    HW141502   2.623   7.657   4.928  1.4232 -0.4763 -1.3559
13564SOL    HW241503   2.650   7.751   4.812 -1.0452 -0.2414 -1.7813
13565SOL     OW41504   4.440   4.037   1.012  0.3644  0.6088  0.3467
13565SOL    HW141505   4.378   3.968   1.037  0.3798 -0.7700 -2.8111
13565SOL    HW241506   4.500   4.044   1.085  0.7311 -3.2580  0.6071
13566SOL     OW41507   2.109   6.618   3.889 -0.2868 -0.2389  0.3602
13566SOL    HW141508   2.132   6.531   3.855 -1.0200 -0.3905  0.2128
13566SOL    HW241509   2.016   6.609   3.912 -0.7701  0.9093 -0.9893
13567SOL     OW41510   7.970   7.546   3.892  0.2888  0.0491 -0.1817
13567SOL    HW141511   7.900   7.522   3.832  0.5334  0.1243 -0.4976
13567SOL    HW241512   8.050   7.531   3.843  0.5637 -1.3784  0.6470
13568SOL     OW41513   7.686   4.980   2.882  0.6230 -0.7381  0.0216
13568SOL    HW141514   7.742   4.904   2.864  0.8513 -0.7660  0.8171
13568SOL    HW241515   7.599   4.943   2.896  0.8880 -0.9609  1.2316
13569SOL     OW41516   3.104   0.022   4.716  0.0199  0.0991  0.4750
13569SOL    HW141517   3.101   0.017   4.811 -0.2752  0.9317  0.5234
13569SOL    HW241518   3.067  -0.061   4.685  0.1019 -0.1643  1.0803
13570SOL     OW41519   3.127   0.230   1.206 -0.4545 -0.1858  0.0031
13570SOL    HW141520   3.044   0.248   1.249 -0.7587  2.7473 -1.5168
13570SOL    HW241521   3.193   0.242   1.275 -1.0223  2.8153  0.1668
13571SOL     OW41522   5.061   1.119   1.392  0.2984 -0.7970  0.2475
13571SOL    HW141523   4.986   1.163   1.432 -1.2003 -1.5846 -1.5132
13571SOL    HW241524   5.137   1.160   1.432 -1.0604 -0.0057  2.1677
13572SOL     OW41525   2.653   0.315   7.329  0.1867 -0.4335  0.2926
13572SOL    HW141526   2.592   0.342   7.398  0.0574 -1.0290  0.4138
13572SOL    HW241527   2.682   0.228   7.355  0.6011 -0.4163 -0.0983
13573SOL     OW41528   4.238   6.772   3.195  0.1350  0.4324  0.7700
13573SOL    HW141529   4.311   6.833   3.199 -0.2525  0.8492  1.6578
13573SOL    HW241530   4.213   6.757   3.286 -0.7678  0.1560  0.4931
13574SOL     OW41531   0.614   3.585   5.448 -0.7789 -0.2920 -0.3605
13574SOL    HW141532   0.591   3.589   5.541  0.8706 -0.5562  0.0926
13574SOL    HW241533   0.595   3.673   5.415 -0.2210  0.1719  0.5223
13575SOL     OW41534   4.830   5.749   4.852 -0.4232 -0.3407  0.6843
13575SOL    HW141535   4.805   5.829   4.899  0.9098  0.5488 -0.0455
13575SOL    HW241536   4.884   5.700   4.913  1.0165  0.6475  0.2651
13576SOL     OW41537   5.604   1.501   6.114  0.2143 -0.4839  0.1612
13576SOL    HW141538   5.592   1.580   6.166  0.6417  0.9307 -1.7636
13576SOL    HW241539   5.576   1.526   6.026  1.0684 -2.2556 -0.6583
13577SOL     OW41540   6.461   0.395   4.166  0.2836  0.5647 -0.8358
13577SOL    HW141541   6.535   0.449   4.137  2.5469 -2.1595 -0.6225
13577SOL    HW241542   6.470   0.389   4.261  0.2477 -0.3344 -0.8719
13578SOL     OW41543   0.108   2.500   0.618 -0.3185 -0.6384  0.5257
13578SOL    HW141544   0.155   2.502   0.534 -2.6356 -0.4934 -0.8465
13578SOL    HW241545   0.016   2.497   0.594 -1.0440 -1.6515  3.1038
13579SOL     OW41546   0.334   2.496   0.232 -0.4287  0.2188  0.3581
13579SOL    HW141547   0.414   2.517   0.185 -1.4018 -0.8968 -1.9961
13579SOL    HW241548   0.356   2.420   0.286  0.3036  0.4187  0.3401
13580SOL     OW41549   4.211   4.984   3.140 -0.3899 -0.0855 -0.1332
13580SOL    HW141550   4.140   5.027   3.092  0.8105 -0.2281 -2.1349
13580SOL    HW241551   4.271   5.054   3.163  0.0656 -0.2918 -0.6874
13581SOL     OW41552   1.172   1.503   2.519 -0.3046  0.2220 -0.1336
13581SOL    HW141553   1.266   1.497   2.507 -0.3534  0.4662 -0.6442
13581SOL    HW241554   1.135   1.489   2.432 -0.8067 -1.2039  0.2798
13582SOL     OW41555   3.379   1.800   4.126 -0.3161 -0.4165 -0.2344
13582SOL    HW141556   3.465   1.773   4.157  0.4100 -0.0490 -1.8307
13582SOL    HW241557   3.323   1.724   4.142  0.0927 -0.3970  1.5021
13583SOL     OW41558   6.006   4.161   5.376  0.1341 -0.2367  0.3034
13583SOL    HW141559   5.911   4.149   5.372  0.1691 -0.6332  0.5445
13583SOL    HW241560   6.018   4.254   5.390 -0.2023 -0.0590 -0.5209
13584SOL     OW41561   1.366   1.307   7.287 -0.2809 -0.0580 -0.1896
13584SOL    HW141562   1.406   1.227   7.254  1.3622  1.1494 -1.3185
13584SOL    HW241563   1.272   1.287   7.294 -0.1593 -1.5376 -2.1075
13585SOL     OW41564   0.774   6.734   5.276  0.3757 -0.1928 -0.7583
13585SOL    HW141565   0.782   6.640   5.291  0.0697 -0.0747  0.2266
13585SOL    HW241566   0.850   6.756   5.222 -0.0273 -1.1480 -1.7561
13586SOL     OW41567   2.037   1.939   0.001  0.1965  0.1559  0.4575
13586SOL    HW141568   2.028   1.970   0.091  0.0651  1.8160 -0.0946
13586SOL    HW241569   2.070   1.849   0.009 -0.1694  0.1472  2.1539
13587SOL     OW41570   4.303   6.512   5.184  0.6865 -0.2510 -0.4340
13587SOL    HW141571   4.227   6.465   5.151  0.8529 -0.4388 -0.5490
13587SOL    HW241572   4.377   6.455   5.165  0.8114 -0.2577  0.0570
13588SOL     OW41573   5.109   6.945   4.082  0.5926  1.1028  0.7594
13588SOL    HW141574   5.066   6.903   4.008  0.5860  1.1083  0.7604
13588SOL    HW241575   5.165   6.875   4.119 -0.7788  0.5378  1.8601
13589SOL     OW41576   3.923   4.485   0.641 -0.3032  0.1627 -0.2205
13589SOL    HW141577   3.831   4.512   0.648 -0.6730 -0.6154 -1.6583
13589SOL    HW241578   3.934   4.419   0.709 -0.6141  0.7178  0.3870
13590SOL     OW41579   5.370   7.461   1.794  0.1413 -0.8547  0.0575
13590SOL    HW141580   5.283   7.422   1.780 -0.7209  0.2361  1.9597
13590SOL    HW241581   5.391   7.442   1.885 -0.2501  2.7704  1.0598
13591SOL     OW41582   3.894   6.608   3.849  0.3686 -0.0793  0.4830
13591SOL    HW141583   3.864   6.639   3.934  0.1957 -1.0391  0.7874
13591SOL    HW241584   3.854   6.668   3.786 -0.3447  0.0297  1.0267
13592SOL     OW41585   4.120   6.743   7.563 -0.1657  0.6844 -0.4930
13592SOL    HW141586   4.144   6.812   7.500 -2.0868  1.6602 -0.2386
13592SOL    HW241587   4.110   6.789   7.646 -1.3091  0.0841 -0.2806
13593SOL     OW41588   3.349   0.350   1.040  0.1439 -0.0697 -0.1050
13593SOL    HW141589   3.276   0.338   0.979 -0.3043  2.0614 -0.0506
13593SOL    HW241590   3.332   0.288   1.111 -1.3548  0.0596 -0.3213
13594SOL     OW41591   3.827   7.611   3.921 -0.3822  0.2359  0.0646
13594SOL    HW141592   3.841   7.687   3.978 -1.9610 -0.7009  1.8099
13594SOL    HW241593   3.889   7.546   3.951  0.9814  0.7764 -1.4448
13595SOL     OW41594   1.629   6.994   2.160  0.2814 -0.1087 -0.2768
13595SOL    HW141595   1.722   6.989   2.182  0.4290 -0.1669 -0.8947
13595SOL    HW241596   1.602   7.082   2.188  0.3250 -0.3705  0.6212
13596SOL     OW41597   3.844   3.542   4.380 -0.5344 -0.5463 -0.3227
13596SOL    HW141598   3.770   3.591   4.415 -0.5125 -0.8103  0.0949
13596SOL    HW241599   3.811   3.505   4.298 -0.4320  0.4805 -0.8345
13597SOL     OW41600   3.316   7.990   2.705 -0.3022 -0.1272 -0.3373
13597SOL    HW141601   3.360   7.941   2.774 -1.2827 -0.4031  0.1137
13597SOL    HW241602   3.302   7.926   2.635 -1.0049 -0.3421 -0.0099
13598SOL     OW41603   6.886   3.772   2.307 -0.1550 -0.5241  0.3550
13598SOL    HW141604   6.793   3.792   2.291  0.2550  1.4198  0.1811
13598SOL    HW241605   6.889   3.751   2.400 -0.8788 -1.3768  0.2039
13599SOL     OW41606   5.547   1.720   6.264 -0.5959  0.0953 -0.5800
13599SOL    HW141607   5.518   1.740   6.353 -0.2414 -0.0236 -0.4367
13599SOL    HW241608   5.628   1.770   6.254  0.3169 -1.2524 -0.2110
13600SOL     OW41609   2.944   5.551   5.699  0.2606 -0.1189  0.1941
13600SOL    HW141610   2.914   5.504   5.621  0.7514  1.4235 -0.9786
13600SOL    HW241611   2.874   5.615   5.716 -0.9196 -1.8523  2.4128
13601SOL     OW41612   7.295   7.284   3.570 -0.3783 -0.0715  0.0119
13601SOL    HW141613   7.269   7.376   3.578 -0.1051  0.0029  0.0736
13601SOL    HW241614   7.254   7.253   3.490  0.6388  0.4863 -0.7413
13602SOL     OW41615   4.803   6.965   6.523 -0.0751 -0.1217 -0.1243
13602SOL    HW141616   4.721   7.000   6.557 -0.0416 -0.1639  0.0006
13602SOL    HW241617   4.854   6.944   6.601 -0.2477 -0.8137 -0.1884
13603SOL     OW41618   0.724   0.454   5.624 -0.1592 -0.4136 -0.4276
13603SOL    HW141619   0.741   0.546   5.646  1.2562 -0.8588  0.4726
13603SOL    HW241620   0.631   0.441   5.644 -0.3343  0.7731 -0.3941
13604SOL     OW41621   6.536   4.786   6.398  0.0135  0.0658  0.0656
13604SOL    HW141622   6.612   4.728   6.392 -1.0225 -1.2422 -0.8693
13604SOL    HW241623   6.570   4.865   6.440  1.4092 -1.3013  1.6700
13605SOL     OW41624   0.370   1.845   0.356 -0.0748 -0.1313 -0.4086
13605SOL    HW141625   0.356   1.913   0.423  0.1615 -0.2771 -0.2097
13605SOL    HW241626   0.282   1.813   0.335 -0.0660 -1.0485  0.8331
13606SOL     OW41627   4.898   7.335   5.058 -0.5924 -0.1244  0.1749
13606SOL    HW141628   4.897   7.246   5.021 -1.6759  0.0752 -0.3094
13606SOL    HW241629   4.877   7.392   4.984 -1.3291  0.4127  0.7774
13607SOL     OW41630   0.042   1.550   6.714  0.1450 -0.5784 -0.2989
13607SOL    HW141631  -0.027   1.610   6.685  0.3802  0.1789  0.6752
13607SOL    HW241632   0.092   1.600   6.779  0.4275 -1.7798  0.4389
13608SOL     OW41633   3.697   0.964   7.983 -0.3102  0.3098  0.5099
13608SOL    HW141634   3.636   0.960   7.910 -1.0102  0.8534  1.0409
13608SOL    HW241635   3.752   1.040   7.964 -0.9372  0.8662  0.8676
13609SOL     OW41636   3.907   7.602   5.754 -0.3871  0.5752  0.1639
13609SOL    HW141637   3.968   7.652   5.699 -0.3656  1.1635  0.7151
13609SOL    HW241638   3.883   7.663   5.824 -0.9621  0.0639  0.4120
13610SOL     OW41639   0.082   2.624   2.814  0.2106 -0.1333 -0.0885
13610SOL    HW141640   0.143   2.698   2.826  0.7686 -0.7375  0.9222
13610SOL    HW241641   0.139   2.548   2.805 -0.3862 -0.5717 -0.1985
13611SOL     OW41642   2.680   7.855   1.145  0.4763  0.2417 -0.2914
13611SOL    HW141643   2.593   7.882   1.116 -0.5153 -1.8182  0.5410
13611SOL    HW241644   2.711   7.797   1.076 -0.0160 -1.1750  0.6325
13612SOL     OW41645   4.758   0.467   6.626  0.0520  0.2321 -0.4324
13612SOL    HW141646   4.824   0.494   6.691 -1.8044 -0.4067  1.8708
13612SOL    HW241647   4.723   0.385   6.662 -0.4571 -0.6471 -2.7743
13613SOL     OW41648   5.289   3.967   4.941  0.3278  0.1399  0.7304
13613SOL    HW141649   5.302   3.906   5.013  0.3065 -0.4653  0.2254
13613SOL    HW241650   5.213   4.019   4.968  1.1997  0.9098  1.8007
13614SOL     OW41651   1.264   1.313   5.944  0.1603  0.0494 -0.6017
13614SOL    HW141652   1.241   1.226   5.913  0.7435  0.9222 -3.7883
13614SOL    HW241653   1.180   1.357   5.958 -0.1421 -1.0280  1.3147
13615SOL     OW41654   1.317   5.281   0.840 -0.1341  0.6818  0.0202
13615SOL    HW141655   1.323   5.319   0.927  1.3098 -0.5031  0.4821
13615SOL    HW241656   1.269   5.346   0.788  0.8398  2.3631  1.1434
13616SOL     OW41657   1.342   4.258   7.803  0.6217 -0.2622 -0.1943
13616SOL    HW141658   1.341   4.274   7.898  0.0273 -0.2192 -0.2062
13616SOL    HW241659   1.338   4.345   7.764  0.4771 -0.2986 -0.2594
13617SOL     OW41660   7.032   5.719   1.783 -0.4693 -0.1066  0.5627
13617SOL    HW141661   6.947   5.701   1.822  0.1111 -0.0308  1.9195
13617SOL    HW241662   7.077   5.774   1.847  0.5665 -0.0787 -0.1620
13618SOL     OW41663   2.892   1.304   6.910 -0.8040  0.3384  0.0556
13618SOL    HW141664   2.858   1.390   6.886  1.1601  0.6776 -1.8061
13618SOL    HW241665   2.982   1.304   6.879 -0.6043 -2.2400  0.4052
13619SOL     OW41666   5.425   3.540   5.432  0.9386  0.1597  0.2670
13619SOL    HW141667   5.475   3.607   5.385  1.0677  0.0080  0.1883
13619SOL    HW241668   5.446   3.458   5.387 -2.1517  0.4891 -2.1280
13620SOL     OW41669   7.485   3.191   0.076  0.2479  0.1160 -0.0396
13620SOL    HW141670   7.511   3.100   0.089  0.2250  0.2836  1.3992
13620SOL    HW241671   7.540   3.222   0.004 -0.1705 -1.1813 -0.9596
13621SOL     OW41672   7.538   5.737   3.448 -0.7143  0.0686 -0.0530
13621SOL    HW141673   7.628   5.764   3.430  0.0722 -1.4700  1.3588
13621SOL    HW241674   7.503   5.807   3.504 -0.2652  0.4493 -0.2425
13622SOL     OW41675   6.928   5.460   0.431 -0.4306 -0.5207  0.6702
13622SOL    HW141676   6.973   5.406   0.366  0.5037 -0.9748  1.6540
13622SOL    HW241677   6.980   5.450   0.511 -1.3005  0.3599  1.3815
13623SOL     OW41678   0.130   2.508   5.637 -0.1738 -0.3385  0.3196
13623SOL    HW141679   0.073   2.453   5.691 -0.6395  1.0788  1.3357
13623SOL    HW241680   0.171   2.568   5.700 -0.5442  1.2075 -0.8499
13624SOL     OW41681   1.127   6.382   3.921  0.6329  0.2369 -0.2371
13624SOL    HW141682   1.130   6.437   3.999 -0.0603 -1.5125  1.1083
13624SOL    HW241683   1.128   6.444   3.847 -1.4797  2.1248  1.1852
13625SOL     OW41684   0.893   5.764   3.890  0.8542 -0.2506 -0.2054
13625SOL    HW141685   0.977   5.719   3.881  1.8560  1.3577  0.8042
13625SOL    HW241686   0.906   5.848   3.846 -0.2986 -0.0470 -0.1852
13626SOL     OW41687   2.378   1.043   1.640 -0.2098 -0.2012 -0.3266
13626SOL    HW141688   2.425   0.968   1.676 -0.7210 -1.6626 -2.5182
13626SOL    HW241689   2.287   1.029   1.666 -0.1510  0.2131  0.1127
13627SOL     OW41690   7.099   4.149   5.729 -0.3948  0.0710  0.2711
13627SOL    HW141691   7.089   4.243   5.748  0.9885  0.2102  0.3961
13627SOL    HW241692   7.181   4.125   5.772 -1.0053 -1.3351  0.6853
13628SOL     OW41693   7.572   6.501   5.845 -0.1944  0.1020 -0.0227
13628SOL    HW141694   7.487   6.532   5.876 -1.1694 -1.3107 -1.1462
13628SOL    HW241695   7.603   6.572   5.787 -1.0355  0.2443 -0.3143
13629SOL     OW41696   1.594   6.692   3.502  0.5594 -0.0779  0.2362
13629SOL    HW141697   1.516   6.636   3.505  1.1954 -0.9890  0.2239
13629SOL    HW241698   1.653   6.654   3.567  2.3026 -1.4182 -1.9918
13630SOL     OW41699   4.436   6.365   1.641  0.5400 -0.2947 -0.1506
13630SOL    HW141700   4.350   6.336   1.612  0.4018  1.7477 -2.0304
13630SOL    HW241701   4.427   6.376   1.736 -1.5491  0.7094 -0.4138
13631SOL     OW41702   1.313   6.084   5.328  0.1010 -0.3564 -0.0188
13631SOL    HW141703   1.349   6.165   5.291 -0.6376  0.3785  0.8224
13631SOL    HW241704   1.334   6.089   5.421 -2.3395  0.2467  0.5666
13632SOL     OW41705   5.319   2.523   5.331  0.8104 -0.1720  0.2706
13632SOL    HW141706   5.286   2.506   5.243 -1.3646 -1.8901  1.3436
13632SOL    HW241707   5.363   2.442   5.357  1.6101  0.3866  0.7340
13633SOL     OW41708   1.656   0.295   1.233  0.5575  0.0580  0.4533
13633SOL    HW141709   1.696   0.215   1.267  0.7148  0.3000  0.8443
13633SOL    HW241710   1.631   0.345   1.311  0.2891  0.3075  0.2135
13634SOL     OW41711   1.198   3.896   4.899 -0.4110 -0.1650  0.1871
13634SOL    HW141712   1.212   3.990   4.913 -0.9951  0.0045 -0.3093
13634SOL    HW241713   1.155   3.891   4.813  0.0666 -0.9224 -0.0168
13635SOL     OW41714   6.298   2.106   5.751 -0.1693 -0.5437 -0.3946
13635SOL    HW141715   6.380   2.127   5.706 -0.4060  0.7911 -0.2396
13635SOL    HW241716   6.304   2.151   5.835 -2.0041  1.5900 -1.2967
13636SOL     OW41717   6.045   0.189   5.794 -0.2249  0.7078  0.4822
13636SOL    HW141718   5.983   0.168   5.724 -0.9564  0.9254  1.0506
13636SOL    HW241719   6.120   0.228   5.749 -0.8251  1.1579 -0.1541
13637SOL     OW41720   7.809   4.832   6.781  0.2978  0.3846 -0.1691
13637SOL    HW141721   7.735   4.893   6.778  0.2733  0.4387  1.0082
13637SOL    HW241722   7.770   4.749   6.810  0.7659  0.5541  1.0000
13638SOL     OW41723   2.215   1.126   5.206  0.4981  0.2855  0.9316
13638SOL    HW141724   2.149   1.086   5.149 -1.2379 -1.1658  3.7649
13638SOL    HW241725   2.268   1.179   5.146 -0.4173 -2.0030 -2.2110
13639SOL     OW41726   1.325   5.355   1.096  0.2569  0.2005  0.0062
13639SOL    HW141727   1.299   5.433   1.145  0.4939  0.7577 -0.7449
13639SOL    HW241728   1.420   5.351   1.106  0.2021 -0.2043  0.3576
13640SOL     OW41729   5.105   1.324   2.258 -0.6800  0.3191 -0.3080
13640SOL    HW141730   5.076   1.405   2.217  0.2428  0.3011 -1.0573
13640SOL    HW241731   5.200   1.335   2.268 -0.2491 -1.3018 -2.0061
13641SOL     OW41732   7.415   7.720   1.944 -0.0716  0.2288 -0.1888
13641SOL    HW141733   7.373   7.772   2.013  0.8494 -0.7670  1.1843
13641SOL    HW241734   7.369   7.636   1.947 -0.5702  0.4413 -1.3800
13642SOL     OW41735   0.920   1.014   6.926  0.3448 -0.0722 -0.1715
13642SOL    HW141736   1.000   1.010   6.978  1.4847  1.2008 -1.7406
13642SOL    HW241737   0.876   1.094   6.956 -0.3119 -0.6977  0.5915
13643SOL     OW41738   2.217   6.906   1.115 -0.1307 -0.2048 -0.4684
13643SOL    HW141739   2.289   6.920   1.177  0.6874 -0.6606 -1.2800
13643SOL    HW241740   2.217   6.984   1.059 -1.1957  0.4384  0.3976
13644SOL     OW41741   1.347   3.413   0.979  0.0059 -0.0604  0.2746
13644SOL    HW141742   1.408   3.356   0.933  1.8843  1.0118  1.3104
13644SOL    HW241743   1.366   3.501   0.947 -0.3402  0.4056  1.2843
13645SOL     OW41744   1.068   4.956   5.674 -0.4059 -0.3647  0.2048
13645SOL    HW141745   1.062   5.019   5.601 -0.9311 -0.3646  0.2382
13645SOL    HW241746   1.138   4.989   5.729 -1.7260  1.1376  1.0900
13646SOL     OW41747   0.977   2.670   5.149 -0.1533  0.1486  0.4124
13646SOL    HW141748   0.951   2.724   5.075  1.9052  0.5702 -0.0820
13646SOL    HW241749   0.903   2.612   5.165 -1.4739  1.4829 -0.5908
13647SOL     OW41750   2.689   1.016   2.382 -0.0988  0.3486  0.4103
13647SOL    HW141751   2.644   0.981   2.305  1.3763 -0.7081 -0.0291
13647SOL    HW241752   2.775   0.975   2.380  0.4031  1.2207  1.9828
13648SOL     OW41753   0.001   4.856   4.484  0.6059  0.1676 -0.1140
13648SOL    HW141754  -0.002   4.914   4.408  0.8168 -1.5678 -1.4911
13648SOL    HW241755   0.005   4.916   4.559 -0.8203  1.9482 -1.3635
13649SOL     OW41756   2.248   0.870   1.400  0.3133 -0.4167 -0.2619
13649SOL    HW141757   2.231   0.955   1.440 -0.9852  0.5088 -2.5877
13649SOL    HW241758   2.287   0.892   1.315 -3.2393 -1.8722 -2.4743
13650SOL     OW41759   6.936   2.728   7.952  0.2472 -0.3382  0.0260
13650SOL    HW141760   6.906   2.683   7.874  0.8738  1.8787 -1.6163
13650SOL    HW241761   6.902   2.817   7.943  4.2413  1.3924 -0.2870
13651SOL     OW41762   2.984   6.652   6.013  0.0207  0.0253 -0.3036
13651SOL    HW141763   3.043   6.611   5.950 -1.0829  0.0434 -1.3893
13651SOL    HW241764   2.897   6.619   5.990 -0.5669  1.0233  0.4026
13652SOL     OW41765   5.908   6.041   1.035  0.6704  0.5526  0.7710
13652SOL    HW141766   5.961   6.119   1.018 -0.3532  1.1087 -0.0474
13652SOL    HW241767   5.970   5.969   1.032  1.1786  0.9894 -1.9092
13653SOL     OW41768   5.879   1.884   1.226  0.0686 -0.5446 -0.6880
13653SOL    HW141769   5.914   1.833   1.153  1.0294 -0.3139 -0.3955
13653SOL    HW241770   5.882   1.824   1.300 -0.9760 -0.8030 -0.8280
13654SOL     OW41771   2.209   7.492   6.043  0.3071 -0.2969 -0.5423
13654SOL    HW141772   2.280   7.510   6.105 -0.2870 -0.9235  0.3441
13654SOL    HW241773   2.183   7.402   6.061 -2.1048  0.5359  0.6062
13655SOL     OW41774   3.104   6.250   6.293  0.7515 -0.3459 -0.1303
13655SOL    HW141775   3.047   6.241   6.217  0.9838  1.6121 -0.5891
13655SOL    HW241776   3.110   6.162   6.330 -2.8194 -0.6167  0.1405
13656SOL     OW41777   7.934   1.119   4.434 -0.4637 -0.1917  0.3309
13656SOL    HW141778   7.860   1.146   4.489 -1.7770 -0.5387 -1.2072
13656SOL    HW241779   7.990   1.068   4.493 -1.4551  0.0457  1.5259
13657SOL     OW41780   6.266   1.934   6.438  0.1293 -0.1169  0.0321
13657SOL    HW141781   6.347   1.907   6.482  1.1728  0.5843 -1.4071
13657SOL    HW241782   6.294   1.993   6.369 -1.4889 -0.9100 -1.3787
13658SOL     OW41783   6.071   7.742   5.366  0.4177  0.1847 -0.4284
13658SOL    HW141784   5.989   7.725   5.318 -0.3582  1.0997  0.5148
13658SOL    HW241785   6.088   7.661   5.413 -0.0794  0.0535 -0.4601
13659SOL     OW41786   1.678   7.127   3.958 -0.2815  0.2342  0.5786
13659SOL    HW141787   1.627   7.066   4.011 -0.8742  1.1471  1.0770
13659SOL    HW241788   1.646   7.114   3.869  1.3542 -1.9658  0.2196
13660SOL     OW41789   1.522   7.748   6.249  0.1172  0.0184  0.1567
13660SOL    HW141790   1.526   7.679   6.316 -0.4892  0.7098  0.9403
13660SOL    HW241791   1.429   7.767   6.240  0.1124 -0.6846 -1.5730
13661SOL     OW41792   7.931   3.662   6.597 -0.1271 -0.5384 -0.5341
13661SOL    HW141793   7.901   3.603   6.667  0.7320 -1.3709 -0.8544
13661SOL    HW241794   7.948   3.745   6.642 -3.3248  0.1950 -0.3890
13662SOL     OW41795   4.963   4.875   1.602 -1.0016 -0.9491 -0.5772
13662SOL    HW141796   5.008   4.892   1.685  0.1126 -0.9921 -1.1550
13662SOL    HW241797   4.943   4.961   1.567  0.0049 -0.8853 -1.0329
13663SOL     OW41798   2.144   1.339   7.891 -0.1814 -0.2061 -0.2425
13663SOL    HW141799   2.131   1.427   7.926 -1.0720 -0.4328  0.0268
13663SOL    HW241800   2.232   1.341   7.853  0.8420  0.0746  1.9587
13664SOL     OW41801   1.995   3.750   4.024  0.5048 -0.7079  0.5789
13664SOL    HW141802   1.987   3.663   4.061 -1.5868 -0.0959  1.7207
13664SOL    HW241803   1.931   3.803   4.072  1.6250  1.4334 -0.1517
13665SOL     OW41804   5.647   5.095   3.213  0.0755 -0.3513  0.3567
13665SOL    HW141805   5.638   5.101   3.118  0.0436 -0.6551  0.3389
13665SOL    HW241806   5.560   5.071   3.244 -0.1747  0.7689  0.5611
13666SOL     OW41807   7.964   4.665   5.944  0.1976  0.1476  0.0798
13666SOL    HW141808   7.942   4.573   5.957 -1.3004  0.4183 -0.4118
13666SOL    HW241809   7.941   4.708   6.026  1.0235  0.0864  0.3584
13667SOL     OW41810   2.261   3.082   1.289  0.6814 -0.5446 -0.7466
13667SOL    HW141811   2.174   3.121   1.275  0.1949 -1.4004 -0.1575
13667SOL    HW241812   2.273   3.083   1.384  2.0281  1.0462 -0.8755
13668SOL     OW41813   4.423   5.185   0.709 -0.1210  0.2167  0.0417
13668SOL    HW141814   4.478   5.139   0.772 -0.4093 -0.6721 -0.3470
13668SOL    HW241815   4.341   5.136   0.707 -0.5062  0.8503 -0.2461
13669SOL     OW41816   6.398   3.312   6.758  0.5660  0.3822  0.1842
13669SOL    HW141817   6.443   3.289   6.677  1.4853 -2.3521  1.3546
13669SOL    HW241818   6.465   3.354   6.812 -0.2384  2.9069 -0.6678
13670SOL     OW41819   1.084   6.607   7.951 -0.1409  0.1818  0.3735
13670SOL    HW141820   1.141   6.669   7.905 -0.0821  0.3362  0.6529
13670SOL    HW241821   0.997   6.649   7.949 -0.0668  0.3525  0.7103
13671SOL     OW41822   1.805   2.012   1.956  0.1852  0.0759 -0.3408
13671SOL    HW141823   1.859   2.088   1.979  0.5393 -0.6202  1.3075
13671SOL    HW241824   1.863   1.937   1.965 -0.3736 -0.4683 -1.1493
13672SOL     OW41825   4.762   0.785   5.130  0.4564 -0.4132 -0.4081
13672SOL    HW141826   4.855   0.806   5.131  0.0616  1.7198 -1.2440
13672SOL    HW241827   4.720   0.864   5.165 -0.9788 -1.9732  1.5768
13673SOL     OW41828   2.367   4.607   5.366 -0.3434  0.2404 -0.8590
13673SOL    HW141829   2.324   4.605   5.451  0.6756 -1.2418 -0.3478
13673SOL    HW241830   2.372   4.700   5.343 -1.5984  0.5879  0.1749
13674SOL     OW41831   3.574   7.894   0.229  0.3867 -1.0676 -0.3510
13674SOL    HW141832   3.520   7.831   0.181 -0.9475 -0.4090  0.2313
13674SOL    HW241833   3.512   7.959   0.262  1.4987 -0.4733  0.6637
13675SOL     OW41834   3.919   5.503   3.457 -0.4595  0.1848 -0.0774
13675SOL    HW141835   3.826   5.513   3.437 -0.3072  0.1587 -0.8297
13675SOL    HW241836   3.946   5.589   3.489 -0.5566  0.4461 -0.6687
13676SOL     OW41837   3.758   1.753   0.198  0.3292  0.5935  0.0012
13676SOL    HW141838   3.767   1.845   0.222  1.5814  0.2635  0.9361
13676SOL    HW241839   3.677   1.749   0.148  0.8711  2.4076 -1.1283
13677SOL     OW41840   2.931   6.397   4.010 -0.1092 -0.1492 -0.2042
13677SOL    HW141841   2.965   6.413   4.098 -0.5080 -1.7611  0.2710
13677SOL    HW241842   3.009   6.387   3.956  0.1754 -1.0594  0.3519
13678SOL     OW41843   5.675   4.162   3.685 -0.0353  0.2092  0.4571
13678SOL    HW141844   5.698   4.072   3.706 -0.8473 -0.0489  0.3010
13678SOL    HW241845   5.591   4.176   3.730 -1.8910 -0.3697 -2.5092
13679SOL     OW41846   4.117   0.303   2.000 -0.0116 -0.4841  0.2897
13679SOL    HW141847   4.074   0.260   1.926  0.5080 -1.0683  0.3146
13679SOL    HW241848   4.165   0.232   2.044 -1.4934 -0.4836  2.0620
13680SOL     OW41849   2.290   7.323   3.544  0.3576 -0.1692  0.2111
13680SOL    HW141850   2.314   7.264   3.473 -1.4402  0.5016 -1.0232
13680SOL    HW241851   2.259   7.265   3.614  1.3672 -0.7992  0.1519
13681SOL     OW41852   4.972   6.765   3.048  0.4129  0.3825 -0.4741
13681SOL    HW141853   4.914   6.784   3.121 -1.1281 -0.0363 -1.5239
13681SOL    HW241854   4.990   6.671   3.055  0.0601  0.2904 -0.7523
13682SOL     OW41855   6.309   1.439   5.467 -0.2359 -0.1146 -0.0126
13682SOL    HW141856   6.303   1.505   5.399  0.0954  0.4591  0.4976
13682SOL    HW241857   6.352   1.484   5.540 -0.5379 -0.7272  0.5549
13683SOL     OW41858   0.762   7.695   4.530 -0.3513  0.3698  0.0204
13683SOL    HW141859   0.763   7.654   4.616 -0.3969  0.0072 -0.1533
13683SOL    HW241860   0.813   7.637   4.474 -0.4204  0.5428 -0.2277
13684SOL     OW41861   7.912   4.430   4.929 -0.2817  0.3012  0.1895
13684SOL    HW141862   7.927   4.486   5.005  0.0037 -2.1735  2.0744
13684SOL    HW241863   7.818   4.413   4.930 -0.6720  2.0133 -1.4091
13685SOL     OW41864   6.790   1.687   6.949 -0.1471  0.3245  0.8070
13685SOL    HW141865   6.884   1.671   6.962 -0.0156 -0.0104 -0.4380
13685SOL    HW241866   6.780   1.781   6.959  0.5944  0.5680 -0.5189
13686SOL     OW41867   6.584   5.765   2.078 -0.0682 -0.2597 -0.1952
13686SOL    HW141868   6.552   5.800   1.995 -1.4502 -0.3993  0.2531
13686SOL    HW241869   6.525   5.802   2.144  0.3252 -1.0274  0.6091
13687SOL     OW41870   2.145   3.626   0.894  0.0640 -0.6038  0.0401
13687SOL    HW141871   2.218   3.565   0.898  0.6824  0.1159  0.0689
13687SOL    HW241872   2.172   3.691   0.829 -0.3120 -0.0387  0.4426
13688SOL     OW41873   0.775   4.649   2.310  0.2739 -0.1448 -0.1855
13688SOL    HW141874   0.749   4.557   2.312 -3.1102  0.6675 -0.2511
13688SOL    HW241875   0.740   4.685   2.391 -1.6714  1.7514 -1.7647
13689SOL     OW41876   2.042   2.200   7.650  0.2357 -0.0204  0.3611
13689SOL    HW141877   1.971   2.149   7.610 -1.5247  1.8492  0.9013
13689SOL    HW241878   2.095   2.230   7.577 -0.2749 -0.4222 -0.1800
13690SOL     OW41879   2.662   1.986   3.544  0.0841 -0.0533  0.0810
13690SOL    HW141880   2.594   2.042   3.582 -0.5928 -0.6173 -0.2621
13690SOL    HW241881   2.656   2.002   3.450  2.3745  2.0358  0.1952
13691SOL     OW41882   5.179   7.668   6.512 -0.7039 -0.4360  0.0572
13691SOL    HW141883   5.259   7.719   6.517 -1.5908  1.1782 -1.3241
13691SOL    HW241884   5.202   7.592   6.458  0.1775 -0.6176  0.6722
13692SOL     OW41885   3.639   7.580   2.094 -0.3013 -0.2337 -0.3209
13692SOL    HW141886   3.671   7.625   2.016 -0.3885 -0.5105 -0.5178
13692SOL    HW241887   3.646   7.645   2.164 -0.6856  0.1706 -0.6586
13693SOL     OW41888   6.895   2.652   2.412  0.1704 -0.4521 -0.3758
13693SOL    HW141889   6.944   2.570   2.400  1.9935  0.7668 -1.9113
13693SOL    HW241890   6.845   2.662   2.331 -2.5432 -1.5254  1.0535
13694SOL     OW41891   0.224   2.631   1.687 -0.0676  0.9186  0.1236
13694SOL    HW141892   0.246   2.698   1.622 -0.0180  0.1739 -0.6479
13694SOL    HW241893   0.143   2.662   1.728 -0.4603  1.0890 -0.7596
13695SOL     OW41894   7.781   3.042   0.258  0.0136  0.5868 -0.3931
13695SOL    HW141895   7.766   2.948   0.252  1.4772  0.2890  0.1306
13695SOL    HW241896   7.713   3.073   0.318  0.1061 -0.3046  0.1977
13696SOL     OW41897   7.464   2.185   0.369  0.0801  0.2404 -0.0219
13696SOL    HW141898   7.459   2.256   0.433  0.8012  1.0985 -0.8693
13696SOL    HW241899   7.445   2.228   0.285  1.6694 -0.3097 -0.7005
13697SOL     OW41900   7.613   3.129   1.773 -0.4688 -0.6798  0.6012
13697SOL    HW141901   7.702   3.116   1.804  0.0831  2.3322  0.6570
13697SOL    HW241902   7.614   3.104   1.681  0.9525  0.8477  0.1463
13698SOL     OW41903   2.528   7.944   7.401  0.2552  0.0585  0.3681
13698SOL    HW141904   2.437   7.950   7.429 -0.2839 -1.6931 -0.8605
13698SOL    HW241905   2.525   7.898   7.318  2.2541  0.2023  0.1638
13699SOL     OW41906   2.182   4.892   5.968  0.7099  0.1645  0.7884
13699SOL    HW141907   2.098   4.850   5.949  0.3456  1.1734  0.0511
13699SOL    HW241908   2.158   4.979   6.001  1.4393  1.0030 -0.7577
13700SOL     OW41909   1.510   4.366   3.496  0.0668  0.3802  0.1382
13700SOL    HW141910   1.467   4.446   3.525  0.1310 -0.4681  2.8718
13700SOL    HW241911   1.603   4.382   3.512  0.1122 -0.0696  0.3676
13701SOL     OW41912   0.057   3.077   2.437  0.1892 -0.0616  0.4851
13701SOL    HW141913   0.076   3.171   2.442 -0.7372  0.0710  2.2221
13701SOL    HW241914   0.091   3.041   2.519 -0.6031 -1.0152  0.4156
13702SOL     OW41915   6.402   6.141   2.140 -0.2961  0.2114 -0.0567
13702SOL    HW141916   6.431   6.069   2.083 -0.6973  1.3709 -1.8113
13702SOL    HW241917   6.482   6.172   2.181 -0.1459 -1.3633  0.9171
13703SOL     OW41918   4.575   4.329   1.262  0.1313  0.0566  0.3253
13703SOL    HW141919   4.501   4.342   1.203  0.3202  0.9216  0.2767
13703SOL    HW241920   4.550   4.373   1.343 -0.4639 -1.7962  1.2071
13704SOL     OW41921   0.011   5.392   3.859  0.2039  0.4922 -0.5083
13704SOL    HW141922  -0.053   5.363   3.924 -0.3695  0.0025 -1.2753
13704SOL    HW241923   0.065   5.456   3.905 -0.4445  0.4476  0.3301
13705SOL     OW41924   4.391   0.291   3.745  0.0780 -0.6167  0.4589
13705SOL    HW141925   4.436   0.222   3.695 -0.7362  0.5794 -2.1430
13705SOL    HW241926   4.303   0.293   3.707 -0.1584  1.2740  1.0334
13706SOL     OW41927   3.445   2.195   4.023  0.4869  0.2989  0.5348
13706SOL    HW141928   3.473   2.284   4.001 -2.7118  1.7815  1.7998
13706SOL    HW241929   3.436   2.196   4.118 -0.7250 -0.9938  0.4546
13707SOL     OW41930   7.616   6.940   4.251 -0.3257  0.4963 -0.3067
13707SOL    HW141931   7.521   6.937   4.253 -0.3016 -0.1133  0.3478
13707SOL    HW241932   7.639   7.000   4.322 -0.2053  0.0164  0.0657
13708SOL     OW41933   2.891   5.516   3.598  0.0055 -0.2231  0.4197
13708SOL    HW141934   2.978   5.517   3.637  0.2300  0.4195 -0.0768
13708SOL    HW241935   2.900   5.458   3.522  0.5295  1.3411 -0.7628
13709SOL     OW41936   5.459   7.740   6.666  0.1946 -0.9404  0.0169
13709SOL    HW141937   5.422   7.684   6.734 -0.2002  0.3173  0.8758
13709SOL    HW241938   5.497   7.813   6.714  2.7356 -1.5506 -0.9161
13710SOL     OW41939   7.785   1.292   0.887  0.2536  0.0090  0.2644
13710SOL    HW141940   7.693   1.309   0.906  0.0946 -1.6478  1.1297
13710SOL    HW241941   7.819   1.376   0.857 -1.0744  1.1595  1.8054
13711SOL     OW41942   4.156   5.310   2.204 -0.3157  0.1334  0.1849
13711SOL    HW141943   4.227   5.281   2.147 -1.0479  0.9655 -1.1860
13711SOL    HW241944   4.104   5.369   2.150 -0.3250  1.9935  2.0941
13712SOL     OW41945   1.530   7.769   4.107  0.3025  0.1253 -0.2770
13712SOL    HW141946   1.471   7.713   4.158  0.3526 -0.9288 -1.3394
13712SOL    HW241947   1.493   7.857   4.117 -1.3280 -0.4692 -0.7312
13713SOL     OW41948   6.314   2.583   7.361  0.1717 -0.4977  0.0413
13713SOL    HW141949   6.332   2.677   7.359  0.5837 -0.5898 -0.9556
13713SOL    HW241950   6.394   2.542   7.329 -0.8870 -1.0423 -2.1023
13714SOL     OW41951   3.381   6.422   1.024 -0.0910 -0.2221 -0.4068
13714SOL    HW141952   3.305   6.449   0.972  0.2850 -0.4138 -1.0756
13714SOL    HW241953   3.347   6.357   1.085 -0.8349  1.0870  0.6248
13715SOL     OW41954   7.621   4.274   1.913  0.2420  0.1340  0.0937
13715SOL    HW141955   7.543   4.324   1.937 -0.2853 -0.5793 -0.1198
13715SOL    HW241956   7.613   4.260   1.819  0.2018 -0.6519  0.2076
13716SOL     OW41957   6.221   0.133   6.896 -0.3099  0.5330 -0.3617
13716SOL    HW141958   6.272   0.185   6.834 -0.6373  3.4223  1.6434
13716SOL    HW241959   6.130   0.155   6.877 -0.5090  0.0789  0.0416
13717SOL     OW41960   3.368   3.023   1.312  0.2827  0.8666  0.1913
13717SOL    HW141961   3.404   3.095   1.363  1.0071  0.1567  0.7198
13717SOL    HW241962   3.404   2.944   1.354 -0.5352  0.1958 -0.3268
13718SOL     OW41963   7.278   7.388   7.785 -0.2100 -0.4960 -0.0658
13718SOL    HW141964   7.219   7.438   7.842  0.3239 -1.0093  0.9587
13718SOL    HW241965   7.221   7.327   7.739 -0.5501 -0.6116  0.4999
13719SOL     OW41966   2.811   7.748   1.389 -0.0061 -0.1358 -0.2715
13719SOL    HW141967   2.747   7.769   1.320 -1.9997 -2.3096  0.7810
13719SOL    HW241968   2.894   7.741   1.342 -1.1312 -0.7229 -2.3409
13720SOL     OW41969   5.771   2.668   7.559 -0.2581  0.1220 -0.4050
13720SOL    HW141970   5.694   2.695   7.509  0.3567  0.7044 -1.0571
13720SOL    HW241971   5.798   2.586   7.518 -0.3832  0.0447 -0.3342
13721SOL     OW41972   3.578   1.363   7.900 -0.5650 -0.5906  0.2956
13721SOL    HW141973   3.649   1.406   7.947  0.2980 -0.3688 -1.1524
13721SOL    HW241974   3.557   1.286   7.952 -0.5395  0.3274  1.7043
13722SOL     OW41975   4.844   4.334   0.312 -0.0606  0.3304  0.0662
13722SOL    HW141976   4.891   4.402   0.264  0.2713  0.6764  0.8569
13722SOL    HW241977   4.913   4.280   0.350 -0.3185 -0.5080 -0.6087
13723SOL     OW41978   1.225   4.556   5.298  0.0723  0.2151  0.3549
13723SOL    HW141979   1.304   4.507   5.276 -0.4249 -0.9685  1.0876
13723SOL    HW241980   1.153   4.500   5.267 -0.5029  0.8816  0.4524
13724SOL     OW41981   0.476   6.159   3.666  0.4844  0.0084  0.3737
13724SOL    HW141982   0.571   6.175   3.671  0.7426 -1.0161 -0.8488
13724SOL    HW241983   0.462   6.123   3.579 -0.6025 -2.6888  1.5729
13725SOL     OW41984   2.619   0.138   0.970  0.4113 -0.0149 -0.4183
13725SOL    HW141985   2.655   0.069   0.914 -0.7632 -1.7983  0.9027
13725SOL    HW241986   2.537   0.164   0.928  0.5693  0.1743 -0.6124
13726SOL     OW41987   4.992   3.830   5.503 -0.3082 -0.0211  0.2709
13726SOL    HW141988   4.927   3.866   5.563  0.8688 -0.1302  1.6670
13726SOL    HW241989   5.032   3.907   5.462 -1.5861  0.0348 -0.9450
13727SOL     OW41990   3.107   1.907   4.085  0.2575  0.3809 -0.9176
13727SOL    HW141991   3.128   1.814   4.077  2.2956  0.8419 -1.6378
13727SOL    HW241992   3.072   1.917   4.173  1.1644 -0.8923 -0.3778
13728SOL     OW41993   0.046   6.217   2.448  0.4641 -0.0338  0.2103
13728SOL    HW141994   0.061   6.303   2.487 -0.0360  0.1754 -0.0576
13728SOL    HW241995   0.053   6.156   2.522  0.9111  0.2235  0.3851
13729SOL     OW41996   2.427   3.779   7.612 -0.5453 -0.0491  0.5477
13729SOL    HW141997   2.366   3.781   7.686  0.4080  1.3818  1.3367
13729SOL    HW241998   2.406   3.857   7.561 -0.8594 -0.7618 -0.4295
13730SOL     OW41999   0.201   5.590   0.976 -0.8469  0.4236  0.1225
13730SOL    HW142000   0.188   5.496   0.990 -0.0725  0.5659  2.1966
13730SOL    HW242001   0.117   5.621   0.942 -1.9548 -0.6307  1.7605
13731SOL     OW42002   7.421   1.068   3.057  0.2534  0.1369  0.2164
13731SOL    HW142003   7.406   1.104   3.144  0.6399 -0.2143  0.4334
13731SOL    HW242004   7.350   1.104   3.003 -1.0758 -1.0511  1.0822
13732SOL     OW42005   2.658   1.910   2.327 -0.2019  0.6732 -0.2223
13732SOL    HW142006   2.698   1.887   2.410 -0.7016  0.0628 -0.1492
13732SOL    HW242007   2.565   1.890   2.338  0.0542 -1.7179 -1.6972
13733SOL     OW42008   3.359   3.460   2.429 -0.3420  0.2295  0.2374
13733SOL    HW142009   3.295   3.419   2.488  0.8865 -0.6091  1.0447
13733SOL    HW242010   3.313   3.535   2.392 -1.9027 -0.5451  0.5148
13734SOL     OW42011   5.384   7.782   1.843 -0.2919  0.1540  0.1551
13734SOL    HW142012   5.409   7.747   1.757 -1.3134  1.0709 -0.5532
13734SOL    HW242013   5.449   7.747   1.903  0.9835  0.1857 -1.1349
13735SOL     OW42014   7.254   7.242   4.609  0.1428 -0.3076 -0.4188
13735SOL    HW142015   7.324   7.304   4.589  1.1812 -1.5588 -0.8236
13735SOL    HW242016   7.217   7.275   4.691  0.2654  1.1527 -0.9127
13736SOL     OW42017   4.820   2.491   5.413  0.5006 -0.4649  0.3592
13736SOL    HW142018   4.868   2.423   5.367  1.0508 -0.4523  0.8950
13736SOL    HW242019   4.729   2.461   5.413  0.1889  0.2996 -2.1035
13737SOL     OW42020   0.947   7.672   2.560 -0.2568  0.3023 -0.1596
13737SOL    HW142021   0.933   7.585   2.598 -1.0256  0.0320 -1.0318
13737SOL    HW242022   1.039   7.692   2.578 -0.0653 -0.7044  0.0240
13738SOL     OW42023   2.360   5.903   5.189  0.5327 -0.6786  0.1366
13738SOL    HW142024   2.422   5.960   5.236 -0.6490  0.1243  0.7682
13738SOL    HW242025   2.348   5.828   5.247  1.1206 -0.9790 -0.1200
13739SOL     OW42026   1.116   2.202   5.230  0.6990  0.3297 -0.3151
13739SOL    HW142027   1.115   2.247   5.146 -0.4782 -0.8148 -0.9554
13739SOL    HW242028   1.185   2.246   5.280  0.6332  1.7939 -1.4431
13740SOL     OW42029   4.851   6.366   0.888 -0.1639  0.5420  0.2049
13740SOL    HW142030   4.924   6.323   0.931  0.1597  1.8686  1.0453
13740SOL    HW242031   4.890   6.409   0.811 -0.3519 -0.0403 -0.2217
13741SOL     OW42032   3.368   4.550   4.360 -0.1095  0.2351 -0.0807
13741SOL    HW142033   3.386   4.459   4.338 -0.4995 -0.1310  1.0084
13741SOL    HW242034   3.391   4.556   4.453 -1.1659  0.9443  0.1483
13742SOL     OW42035   2.213   2.992   6.965 -0.4353  0.0312  0.1653
13742SOL    HW142036   2.172   2.950   6.889  0.2984  0.5475 -0.5387
13742SOL    HW242037   2.304   3.006   6.938  0.5834 -2.1797  2.1034
13743SOL     OW42038   3.697   7.535   7.582  0.1860  0.5622 -0.0620
13743SOL    HW142039   3.731   7.518   7.670  0.3096  0.2570 -0.1668
13743SOL    HW242040   3.613   7.488   7.580 -0.0610  0.9983  0.0678
13744SOL     OW42041   2.868   4.738   6.104 -0.4044 -0.4125  0.4485
13744SOL    HW142042   2.922   4.714   6.179 -0.1873  0.5337  0.6041
13744SOL    HW242043   2.930   4.753   6.033 -0.6592 -2.1697 -0.1918
13745SOL     OW42044   7.749   0.709   7.796 -0.2397 -0.1654  0.3032
13745SOL    HW142045   7.678   0.770   7.816 -1.5611 -0.9042 -1.8234
13745SOL    HW242046   7.819   0.764   7.761 -1.0942  0.2430 -0.8006
13746SOL     OW42047   1.688   3.552   3.953 -0.3635  0.1798  0.8266
13746SOL    HW142048   1.773   3.587   3.978 -0.3409  0.5350  0.2557
13746SOL    HW242049   1.700   3.457   3.952 -0.0522  0.2181  1.0230
13747SOL     OW42050   1.618   7.777   2.969 -0.2454  0.6163  0.1297
13747SOL    HW142051   1.676   7.797   2.896 -0.3758  2.7601  0.5499
13747SOL    HW242052   1.579   7.693   2.946  2.5922 -0.6543 -0.3935
13748SOL     OW42053   7.116   4.385   4.505  0.2672  0.2985 -0.4176
13748SOL    HW142054   7.070   4.465   4.530  0.6813  0.2444  0.5449
13748SOL    HW242055   7.054   4.315   4.521  0.6025  0.2415  0.7160
13749SOL     OW42056   6.178   0.676   4.760  0.1585  0.6049  0.3142
13749SOL    HW142057   6.105   0.739   4.763 -1.4506 -1.1831  0.5335
13749SOL    HW242058   6.250   0.721   4.804 -1.0499  2.1397  0.8157
13750SOL     OW42059   5.676   3.026   5.133 -0.2430 -0.7798  0.4787
13750SOL    HW142060   5.669   3.078   5.213  0.8897  1.7926 -0.9550
13750SOL    HW242061   5.597   3.049   5.083  0.3961 -0.1713 -0.2790
13751SOL     OW42062   1.852   4.654   7.853 -0.1596  0.6332  0.0712
13751SOL    HW142063   1.816   4.570   7.826  1.2611  0.2654 -0.7961
13751SOL    HW242064   1.871   4.643   7.947  0.9767 -0.4071 -0.2456
13752SOL     OW42065   3.894   1.688   7.222 -0.1723 -0.4136 -0.1551
13752SOL    HW142066   3.921   1.640   7.301  0.3540 -0.3404 -0.2845
13752SOL    HW242067   3.857   1.621   7.165 -0.4527 -0.4852  0.1098
13753SOL     OW42068   3.125   6.015   7.285 -0.0753 -0.2448  0.0775
13753SOL    HW142069   3.138   6.038   7.193 -0.5255 -0.6264 -0.0813
13753SOL    HW242070   3.210   5.979   7.313 -0.2231 -1.0154 -0.4525
13754SOL     OW42071   3.020   5.750   6.413  0.2024 -0.0857  0.6949
13754SOL    HW142072   3.043   5.711   6.497 -0.3338 -0.8032  0.5245
13754SOL    HW242073   3.096   5.735   6.357 -1.1384 -4.0371 -0.4111
13755SOL     OW42074   4.463   5.958   6.923 -0.2350  0.1948  0.1996
13755SOL    HW142075   4.529   5.892   6.904  1.5749  1.7581  0.7720
13755SOL    HW242076   4.447   6.001   6.839 -0.8487 -0.4447 -0.0187
13756SOL     OW42077   0.857   4.548   0.930 -0.2723 -0.1998 -0.1258
13756SOL    HW142078   0.887   4.457   0.931 -1.9246 -0.7913  2.1347
13756SOL    HW242079   0.779   4.549   0.986 -1.6143  2.1934 -1.8369
13757SOL     OW42080   0.730   5.704   2.308 -0.2499 -0.2931  0.4816
13757SOL    HW142081   0.820   5.673   2.318  0.4033  0.9695 -1.0543
13757SOL    HW242082   0.684   5.630   2.267  0.2582 -0.6913  0.6096
13758SOL     OW42083   4.736   3.928   2.233 -0.2927  0.3109  0.7720
13758SOL    HW142084   4.671   3.862   2.255 -0.4503  0.0611 -0.3747
13758SOL    HW242085   4.812   3.878   2.204  0.0652  0.6163  1.1701
13759SOL     OW42086   6.994   3.918   4.060  0.0718  0.1777  0.1635
13759SOL    HW142087   6.925   3.981   4.035  1.8353  1.7056 -1.1395
13759SOL    HW242088   6.976   3.841   4.006 -0.6262  0.5460 -0.1465
13760SOL     OW42089   3.306   1.577   3.769  0.4431 -0.0658 -0.2511
13760SOL    HW142090   3.280   1.494   3.808  2.6764 -0.3221  0.8619
13760SOL    HW242091   3.248   1.642   3.807 -1.3370 -1.0680 -1.1331
13761SOL     OW42092   2.911   3.790   4.342 -0.9110 -0.1487 -0.3352
13761SOL    HW142093   2.844   3.771   4.408 -0.9807  0.0441 -0.3514
13761SOL    HW242094   2.880   3.868   4.297  0.8816  1.9443  1.8234
13762SOL     OW42095   2.574   5.618   7.473  0.1870 -0.0020  0.4071
13762SOL    HW142096   2.601   5.542   7.420  0.4247 -0.5445  1.2896
13762SOL    HW242097   2.607   5.693   7.423  0.8178 -0.5221  0.0059
13763SOL     OW42098   1.550   6.429   7.895  0.2366 -0.1372  0.4472
13763SOL    HW142099   1.600   6.369   7.840 -0.3146 -0.1141 -0.0862
13763SOL    HW242100   1.471   6.447   7.845  0.6712  1.5400  0.3049
13764SOL     OW42101   1.529   0.177   2.989 -0.3100 -0.2689  0.2456
13764SOL    HW142102   1.562   0.156   3.077 -0.5624 -0.3311  0.3288
13764SOL    HW242103   1.544   0.098   2.938 -1.6423 -0.8282  0.6700
13765SOL     OW42104   7.820   7.890   7.458  0.3886  0.5892  0.4396
13765SOL    HW142105   7.778   7.808   7.432  0.5350  0.7062 -0.1828
13765SOL    HW242106   7.893   7.901   7.397 -0.9330  2.2792 -0.9653
13766SOL     OW42107   3.353   3.273   6.203 -0.3534  0.6879  0.7190
13766SOL    HW142108   3.394   3.234   6.126  0.4897  1.4824  0.7356
13766SOL    HW242109   3.392   3.361   6.208 -1.9734  1.4298  0.8303
13767SOL     OW42110   0.245   5.636   4.484 -0.3371 -0.0838  0.1670
13767SOL    HW142111   0.252   5.542   4.502 -3.2074 -0.2949  0.7817
13767SOL    HW242112   0.178   5.642   4.416  0.9480  1.4835 -1.0377
13768SOL     OW42113   5.476   7.280   4.653  0.0132  0.2046  0.2800
13768SOL    HW142114   5.435   7.221   4.717  1.1972 -0.9041  0.0669
13768SOL    HW242115   5.545   7.324   4.703  2.6573 -2.5223 -0.6812
13769SOL     OW42116   2.648   5.924   5.497  0.2094  0.0432 -0.0052
13769SOL    HW142117   2.572   5.877   5.531  0.6028 -0.3803  0.3144
13769SOL    HW242118   2.612   5.987   5.435 -0.3881 -0.2516  0.0339
13770SOL     OW42119   3.342   7.781   2.497  0.3887 -0.3391 -0.2217
13770SOL    HW142120   3.284   7.706   2.486  0.8550 -0.5495 -1.3666
13770SOL    HW242121   3.428   7.743   2.514  0.2508 -0.0306  1.2408
13771SOL     OW42122   5.013   1.092   6.382 -0.2645 -0.3461  0.1014
13771SOL    HW142123   4.967   1.018   6.422  0.8346 -1.5397 -0.7554
13771SOL    HW242124   5.043   1.058   6.297 -1.1146  1.5990 -1.0379
13772SOL     OW42125   0.726   2.843   2.448  0.1820 -0.3173 -0.1452
13772SOL    HW142126   0.647   2.830   2.501  0.3191 -0.0741  0.1256
13772SOL    HW242127   0.713   2.789   2.371 -0.2742 -0.2377 -0.1250
13773SOL     OW42128   4.992   0.149   5.823  0.0621 -0.4202  0.1611
13773SOL    HW142129   5.076   0.119   5.788 -0.1424 -0.0975 -0.6111
13773SOL    HW242130   5.015   0.198   5.902  0.6093 -0.2217 -0.1194
13774SOL     OW42131   5.025   1.558   2.147 -0.3304  0.3211  0.4289
13774SOL    HW142132   4.974   1.587   2.071  0.4753  0.4886 -0.0633
13774SOL    HW242133   5.105   1.611   2.144  1.8677 -2.7389 -1.2934
13775SOL     OW42134   4.679   7.643   6.309 -0.2965 -0.0606 -0.3625
13775SOL    HW142135   4.682   7.739   6.316 -2.2811 -0.0483  0.8056
13775SOL    HW242136   4.722   7.612   6.389 -0.5680 -0.1421 -0.2488
13776SOL     OW42137   6.389   1.286   6.090  0.3360  0.6281 -0.1514
13776SOL    HW142138   6.345   1.276   6.005  1.3811 -2.2914 -0.4510
13776SOL    HW242139   6.325   1.258   6.154  0.2592  0.8009 -0.1502
13777SOL     OW42140   6.695   6.926   7.317 -0.2588 -0.4159  0.8944
13777SOL    HW142141   6.708   6.840   7.276 -2.3489 -0.8931  1.0821
13777SOL    HW242142   6.705   6.909   7.411 -0.6505 -0.4850  0.9296
13778SOL     OW42143   4.208   5.835   3.840 -1.1326  0.6415 -0.1607
13778SOL    HW142144   4.254   5.918   3.847 -1.9071  1.0357  0.3430
13778SOL    HW242145   4.202   5.803   3.931  0.2985 -0.6095 -0.4557
13779SOL     OW42146   3.176   2.609   1.991  0.1063 -0.2560  0.4224
13779SOL    HW142147   3.085   2.635   1.983  0.1602 -0.2969 -0.4382
13779SOL    HW242148   3.220   2.685   2.028  0.3357  1.1525 -2.4386
13780SOL     OW42149   1.888   7.760   3.329 -0.2575 -0.3731 -0.3815
13780SOL    HW142150   1.863   7.677   3.288 -0.0676 -1.5171  1.6719
13780SOL    HW242151   1.975   7.779   3.294 -0.7428 -0.4625 -1.6753
13781SOL     OW42152   5.783   1.346   5.235 -0.1027  0.4500 -0.0887
13781SOL    HW142153   5.879   1.347   5.228  0.1303 -1.2288  1.8682
13781SOL    HW242154   5.766   1.335   5.329 -2.1856 -0.6742 -0.5404
13782SOL     OW42155   7.059   0.478   1.052  0.1838 -0.9811 -0.0937
13782SOL    HW142156   7.109   0.555   1.078 -0.9789 -0.2897  0.1991
13782SOL    HW242157   6.985   0.514   1.002 -0.3177 -1.9179 -0.0415
13783SOL     OW42158   0.805   0.975   2.782 -0.0396 -0.5742 -0.3759
13783SOL    HW142159   0.888   0.974   2.830 -0.3858 -1.8792  0.2396
13783SOL    HW242160   0.826   0.933   2.698 -0.3796 -2.2985  0.3665
13784SOL     OW42161   2.393   6.934   4.651  0.3010  0.0616 -0.2487
13784SOL    HW142162   2.426   6.901   4.567  0.9531  0.0290  0.0140
13784SOL    HW242163   2.459   6.997   4.680  1.4492 -1.8369  1.4898
13785SOL     OW42164   6.074   7.676   6.652  0.0018 -0.1613  0.4802
13785SOL    HW142165   6.061   7.589   6.614  1.6224 -0.8052  1.2805
13785SOL    HW242166   6.116   7.659   6.736 -2.1570  1.2917  1.9349
13786SOL     OW42167   1.186   3.806   6.342 -0.2468  0.2431  0.1999
13786SOL    HW142168   1.111   3.858   6.373  0.4364  0.4279  1.6057
13786SOL    HW242169   1.221   3.857   6.269 -0.7791  0.7527  0.2905
13787SOL     OW42170   0.531   6.453   4.615 -0.5385  0.4957  0.0165
13787SOL    HW142171   0.564   6.400   4.688 -1.3126 -0.7081 -0.4786
13787SOL    HW242172   0.610   6.477   4.565  0.0082  1.4225  1.2782
13788SOL     OW42173   4.311   0.866   2.347 -0.7551 -0.6741 -0.1452
13788SOL    HW142174   4.234   0.868   2.291 -0.8939  0.2203  0.0754
13788SOL    HW242175   4.370   0.932   2.309 -0.8520 -0.0559  0.7636
13789SOL     OW42176   4.845   7.868   1.306 -0.1831 -0.9043  0.0782
13789SOL    HW142177   4.823   7.952   1.346 -3.3005 -2.1760  1.4216
13789SOL    HW242178   4.889   7.890   1.224 -0.7880  1.9963  0.4381
13790SOL     OW42179   1.310   3.534   0.695 -0.2070 -0.1139  0.2423
13790SOL    HW142180   1.304   3.439   0.693  0.7899 -0.1856 -1.9520
13790SOL    HW242181   1.397   3.552   0.732  0.6626 -0.1878 -1.6428
13791SOL     OW42182   7.121   6.231   5.894  0.6480  0.2200  0.1662
13791SOL    HW142183   7.101   6.261   5.806 -0.6549  0.8306  0.6366
13791SOL    HW242184   7.164   6.146   5.882  0.4415  0.2743 -1.0399
13792SOL     OW42185   3.108   0.315   7.449  0.4356  0.2179 -0.4454
13792SOL    HW142186   3.202   0.300   7.440  0.5099 -1.7083  2.2438
13792SOL    HW242187   3.067   0.245   7.400  0.5033 -0.5138  0.5096
13793SOL     OW42188   5.782   7.020   3.621 -0.7252 -0.3463  0.5703
13793SOL    HW142189   5.747   6.956   3.682  0.1445 -0.7911  0.6165
13793SOL    HW242190   5.707   7.047   3.568 -0.5311 -4.3579 -2.1885
13794SOL     OW42191   2.789   5.519   6.914  0.0726 -0.2379 -0.0766
13794SOL    HW142192   2.696   5.536   6.901  0.2548  0.4583 -0.5359
13794SOL    HW242193   2.797   5.423   6.908 -0.7715 -0.4076  1.1344
13795SOL     OW42194   4.939   4.691   3.597 -0.4821  0.1796  0.1208
13795SOL    HW142195   4.870   4.688   3.663 -0.1907  0.7344  0.4569
13795SOL    HW242196   5.002   4.754   3.631  0.3013 -0.4934 -0.0825
13796SOL     OW42197   2.084   7.142   3.307 -0.5591 -0.0011 -0.0191
13796SOL    HW142198   2.036   7.218   3.274 -3.3518 -1.8264 -0.5071
13796SOL    HW242199   2.053   7.132   3.397 -2.2717 -1.9696 -0.7510
13797SOL     OW42200   3.814   2.601   0.923 -0.1603 -0.3343 -0.4306
13797SOL    HW142201   3.859   2.539   0.865 -1.7132 -1.9548  0.0102
13797SOL    HW242202   3.802   2.553   1.005  0.1569  1.2115  0.5685
13798SOL     OW42203   1.446   7.769   4.676 -0.0593  0.3536 -0.0668
13798SOL    HW142204   1.360   7.793   4.708 -0.1179  0.3457 -0.2174
13798SOL    HW242205   1.439   7.676   4.656  0.2110  0.1708  0.6605
13799SOL     OW42206   4.997   5.562   3.069  0.2117 -0.4383  0.5243
13799SOL    HW142207   5.033   5.539   2.984  3.8676 -3.3147  2.5260
13799SOL    HW242208   4.934   5.493   3.089  2.4081 -2.2475  1.6640
13800SOL     OW42209   7.869   4.855   4.150  0.4037 -0.5566 -0.2273
13800SOL    HW142210   7.844   4.816   4.234  1.0244  1.3952  0.9390
13800SOL    HW242211   7.954   4.895   4.166  0.7455 -0.5327 -1.9357
13801SOL     OW42212   7.090   0.051   2.551  0.6327 -0.7644 -0.9508
13801SOL    HW142213   7.062   0.141   2.531  0.7769 -0.5662 -0.2951
13801SOL    HW242214   7.099   0.009   2.465 -1.8818 -0.9159 -1.2085
13802SOL     OW42215   5.076   4.004   1.760  0.0504 -0.5082  0.4494
13802SOL    HW142216   5.136   4.053   1.704 -0.5254 -0.8525 -0.4869
13802SOL    HW242217   4.990   4.038   1.739 -0.2616 -1.2541  0.4884
13803SOL     OW42218   5.981   5.125   4.421 -0.1641  0.4485  0.1311
13803SOL    HW142219   5.914   5.187   4.449 -0.4704 -0.4252  1.4691
13803SOL    HW242220   5.937   5.040   4.425  1.0857 -0.1876  1.3704
13804SOL     OW42221   5.478   3.269   3.953 -0.3718  0.5417 -0.4474
13804SOL    HW142222   5.569   3.287   3.975 -0.6079  2.9088 -1.1748
13804SOL    HW242223   5.461   3.182   3.989  2.1063  0.1237 -0.1574
13805SOL     OW42224   1.861   7.634   7.092 -0.0086 -0.0553 -0.1018
13805SOL    HW142225   1.844   7.621   7.185  2.0275  2.6689  0.7816
13805SOL    HW242226   1.879   7.728   7.084 -0.6219 -0.1065 -3.3662
13806SOL     OW42227   0.195   7.541   6.491 -0.2689  0.4315 -0.8895
13806SOL    HW142228   0.281   7.526   6.453 -0.3137  0.7469 -1.1154
13806SOL    HW242229   0.207   7.614   6.552 -0.6316  1.2963 -1.8360
13807SOL     OW42230   4.481   4.115   5.085 -0.1023  0.2932 -0.2835
13807SOL    HW142231   4.395   4.144   5.053 -0.0378 -0.9271 -1.6657
13807SOL    HW242232   4.543   4.144   5.018  0.1054 -1.8812 -1.1039
13808SOL     OW42233   3.955   0.765   7.018  0.2140  0.3809 -0.1983
13808SOL    HW142234   3.945   0.826   7.092 -0.8098 -1.4104  1.2391
13808SOL    HW242235   3.871   0.720   7.013  1.0978 -1.2735 -0.8654
13809SOL     OW42236   7.583   4.506   7.693  0.1894  0.6776 -0.3514
13809SOL    HW142237   7.519   4.442   7.724 -2.0694  1.6584 -2.5740
13809SOL    HW242238   7.626   4.464   7.619  1.1972  0.5269  0.2991
13810SOL     OW42239   4.904   1.474   2.463  0.1606  0.4079 -0.1192
13810SOL    HW142240   4.989   1.518   2.453  1.1912 -1.4660 -0.1703
13810SOL    HW242241   4.927   1.381   2.472 -1.8673 -0.0685  0.5597
13811SOL     OW42242   6.060   5.699   6.882  0.0946  0.1681  0.3684
13811SOL    HW142243   6.105   5.678   6.964 -0.3581  1.0175  0.8394
13811SOL    HW242244   5.982   5.747   6.909 -1.3284 -1.5898 -0.4029
13812SOL     OW42245   5.674   6.593   7.809 -0.2901 -0.7929 -0.6531
13812SOL    HW142246   5.751   6.649   7.815 -1.6001  1.1088 -0.7607
13812SOL    HW242247   5.701   6.510   7.847  1.1564  0.5340  1.3929
13813SOL     OW42248   2.228   5.532   3.933 -0.0138  0.2382 -0.3196
13813SOL    HW142249   2.203   5.593   3.864 -0.2662  0.4127 -0.0769
13813SOL    HW242250   2.149   5.481   3.950 -0.3286  1.0552  0.7219
13814SOL     OW42251   6.298   0.673   0.718 -0.0485  0.5562 -0.1877
13814SOL    HW142252   6.378   0.647   0.671 -1.1165 -0.7969 -1.3290
13814SOL    HW242253   6.302   0.625   0.801 -1.3673 -2.4718 -1.7364
13815SOL     OW42254   0.879   5.646   6.156  0.3780  0.4047 -0.0882
13815SOL    HW142255   0.934   5.650   6.234  1.7977  0.1433 -1.0464
13815SOL    HW242256   0.886   5.555   6.126  0.9352  0.8096 -1.2628
13816SOL     OW42257   3.230   7.016   2.660 -0.0461  0.0464 -0.2723
13816SOL    HW142258   3.321   7.005   2.632  0.2592 -1.4698  1.1527
13816SOL    HW242259   3.191   6.930   2.646 -1.5450  0.9201 -1.7143
13817SOL     OW42260   2.699   6.277   7.453  0.5128 -0.3359 -0.0854
13817SOL    HW142261   2.774   6.223   7.427  0.5107 -0.8022  0.8532
13817SOL    HW242262   2.624   6.236   7.411  0.8277  0.4390 -1.4682
13818SOL     OW42263   5.025   5.953   0.146 -0.1215 -0.1688 -0.2904
13818SOL    HW142264   4.965   6.028   0.147  1.1197  0.9010  1.6006
13818SOL    HW242265   5.017   5.915   0.233  0.9402 -0.8262 -0.4580
13819SOL     OW42266   2.489   7.096   6.820 -0.1800 -0.5102 -0.2040
13819SOL    HW142267   2.509   7.013   6.863  1.0831 -1.1100 -1.8776
13819SOL    HW242268   2.413   7.078   6.766  0.5223 -0.7997 -1.1186
13820SOL     OW42269   4.432   7.024   2.869  0.5696 -0.4243  0.4367
13820SOL    HW142270   4.466   7.090   2.808 -0.0928 -1.2226 -0.8567
13820SOL    HW242271   4.402   6.953   2.812  1.5319 -1.9824  1.7786
13821SOL     OW42272   2.531   5.223   3.733 -1.0374  0.0245  0.4237
13821SOL    HW142273   2.546   5.197   3.824  0.4296 -0.1738  0.1438
13821SOL    HW242274   2.573   5.309   3.725 -3.2168  1.1598  0.5291
13822SOL     OW42275   5.123   4.653   6.410  0.2595  0.6378  0.1595
13822SOL    HW142276   5.045   4.601   6.429  0.6808 -1.1167 -2.3687
13822SOL    HW242277   5.089   4.740   6.390 -1.1662 -0.1826 -1.2516
13823SOL     OW42278   4.386   1.166   3.689 -0.0442 -0.2626 -0.0861
13823SOL    HW142279   4.310   1.142   3.742  0.2299  1.6027  1.2441
13823SOL    HW242280   4.350   1.222   3.620  0.2341  1.9931  1.5006
13824SOL     OW42281   1.410   3.910   4.531 -0.2062 -0.0327  0.6842
13824SOL    HW142282   1.455   3.934   4.450 -0.0394  0.5364  0.9475
13824SOL    HW242283   1.443   3.822   4.551  0.4813  0.2227  0.6669
13825SOL     OW42284   5.823   1.532   4.051  0.0176 -0.6535 -0.3065
13825SOL    HW142285   5.865   1.453   4.017 -2.6071 -1.6631 -1.4607
13825SOL    HW242286   5.866   1.604   4.005  0.1694 -1.6500 -1.7949
13826SOL     OW42287   4.567   1.957   4.713  0.6080 -0.0604  0.1488
13826SOL    HW142288   4.549   1.884   4.655 -0.9694 -1.5241  2.3417
13826SOL    HW242289   4.636   1.925   4.772  0.7495  0.6548  0.3891
13827SOL     OW42290   1.603   7.445   3.663  0.1114 -0.1425  0.1226
13827SOL    HW142291   1.607   7.486   3.749  1.7534  0.2791 -0.1173
13827SOL    HW242292   1.575   7.516   3.604  2.0387  0.4627 -0.1439
13828SOL     OW42293   5.438   1.928   0.436 -0.2216  0.4032  0.2597
13828SOL    HW142294   5.524   1.958   0.467 -0.2100  0.5475  0.0908
13828SOL    HW242295   5.376   1.973   0.494 -0.3565  3.2022 -1.8557
13829SOL     OW42296   4.247   4.733   1.184 -0.2145 -0.1740  0.5460
13829SOL    HW142297   4.281   4.686   1.260 -0.8198 -0.4646  0.6483
13829SOL    HW242298   4.266   4.677   1.109  1.7977  0.8346  0.2576
13830SOL     OW42299   0.275   6.020   5.142 -0.0928  0.0705 -0.3250
13830SOL    HW142300   0.286   6.021   5.237  0.0660 -0.0039 -0.3420
13830SOL    HW242301   0.247   6.109   5.121  2.2839  0.8490 -0.4786
13831SOL     OW42302   6.199   1.296   6.309 -0.5683  0.2862  0.3721
13831SOL    HW142303   6.129   1.233   6.323  1.1217 -1.9897 -0.8838
13831SOL    HW242304   6.256   1.287   6.385 -1.3925  1.8964  1.2318
13832SOL     OW42305   4.394   0.287   0.251 -0.0161  0.1914 -0.2211
13832SOL    HW142306   4.483   0.319   0.239 -0.3110  0.4513 -1.9872
13832SOL    HW242307   4.374   0.239   0.171 -1.4666  0.1552  0.1250
13833SOL     OW42308   4.128   6.816   5.937  0.1103 -0.0709  0.6458
13833SOL    HW142309   4.167   6.851   6.017  1.0018 -0.1473  0.2575
13833SOL    HW242310   4.034   6.824   5.951  0.2521  2.2545  0.6831
13834SOL     OW42311   3.431   5.572   6.585 -0.0217  0.3665 -0.3447
13834SOL    HW142312   3.350   5.606   6.623 -0.6222 -1.7730  0.3980
13834SOL    HW242313   3.476   5.530   6.659  0.3905 -0.9422 -1.3086
13835SOL     OW42314   3.321   5.404   7.406 -0.2859 -0.5386  0.3139
13835SOL    HW142315   3.398   5.358   7.371 -0.8182 -1.5185  0.3834
13835SOL    HW242316   3.357   5.481   7.449  0.5951 -0.5913 -0.2941
13836SOL     OW42317   7.782   0.905   2.744  0.5849 -0.5512 -0.5681
13836SOL    HW142318   7.741   0.821   2.764 -0.7729 -0.4348 -2.5233
13836SOL    HW242319   7.755   0.963   2.815  0.9334 -1.5829  0.4130
13837SOL     OW42320   3.028   5.863   5.610 -0.0311 -0.4200  0.2399
13837SOL    HW142321   3.020   5.942   5.663 -0.1738  1.1020 -1.9453
13837SOL    HW242322   2.945   5.818   5.621 -0.7922  0.8461 -0.1656
13838SOL     OW42323   0.562   5.147   7.089  0.2084  0.3257  0.1818
13838SOL    HW142324   0.475   5.159   7.127  0.2432 -0.6545  0.6074
13838SOL    HW242325   0.611   5.098   7.155  0.6639 -0.3083 -0.5957
13839SOL     OW42326   5.683   7.987   1.803 -0.6890  0.4461 -0.5052
13839SOL    HW142327   5.633   8.025   1.876 -1.3032  0.7511 -1.0742
13839SOL    HW242328   5.746   7.929   1.845 -1.1120  0.5314  0.2645
13840SOL     OW42329   2.911   6.007   3.997  0.0207 -0.7552 -0.3746
13840SOL    HW142330   2.924   5.912   4.002 -1.3921 -0.8882  1.7504
13840SOL    HW242331   2.980   6.043   4.053  0.2614 -0.5196 -0.8113
13841SOL     OW42332   4.285   1.945   0.103  0.5818 -0.3291  0.1567
13841SOL    HW142333   4.268   2.032   0.141 -0.9939  0.2333 -1.6667
13841SOL    HW242334   4.224   1.887   0.148 -0.5984  0.1525 -0.7544
13842SOL     OW42335   0.712   1.717   6.922  0.2231 -0.2384 -0.3628
13842SOL    HW142336   0.720   1.621   6.914 -0.0361 -0.1503 -2.1080
13842SOL    HW242337   0.785   1.750   6.869 -2.4504  0.5011 -3.9586
13843SOL     OW42338   7.434   3.664   2.760  0.0433  0.0696 -0.0326
13843SOL    HW142339   7.394   3.600   2.818 -1.2212  1.0546  0.2235
13843SOL    HW242340   7.431   3.747   2.808 -0.5604  0.8051 -1.2677
13844SOL     OW42341   0.962   5.533   2.057 -0.4740 -0.5479 -0.0079
13844SOL    HW142342   0.966   5.622   2.021  2.2854 -0.5810 -0.0243
13844SOL    HW242343   0.982   5.543   2.150 -1.8780 -1.0152  0.3638
13845SOL     OW42344   1.807   5.169   1.878 -0.1368  0.1533  0.6592
13845SOL    HW142345   1.898   5.186   1.854  0.2217 -0.2767  1.6631
13845SOL    HW242346   1.781   5.096   1.822  0.8355 -1.1458  1.8374
13846SOL     OW42347   5.412   2.311   2.348 -0.4215  0.4604 -0.0066
13846SOL    HW142348   5.429   2.260   2.269 -0.0386  1.0184 -0.2931
13846SOL    HW242349   5.346   2.260   2.396 -0.4531 -0.0212 -0.5490
13847SOL     OW42350   5.953   2.557   2.491  0.5229 -0.2578 -0.8101
13847SOL    HW142351   5.921   2.552   2.581 -0.8294  0.1619 -1.2459
13847SOL    HW242352   5.876   2.578   2.439  1.6410  1.5743 -1.8340
13848SOL     OW42353   5.287   0.544   4.619  0.1003 -0.5040 -0.0453
13848SOL    HW142354   5.349   0.521   4.688 -0.7068  1.0898  1.2941
13848SOL    HW242355   5.221   0.598   4.663 -1.6570 -1.2425 -1.6303
13849SOL     OW42356   2.920   3.192   6.608  0.0049 -0.1782  0.7209
13849SOL    HW142357   2.852   3.168   6.545 -0.0953  0.5014  0.5557
13849SOL    HW242358   2.974   3.113   6.616  1.1949  0.2710 -1.7574
13850SOL     OW42359   6.138   7.930   7.811 -0.1602  0.2057  0.2675
13850SOL    HW142360   6.181   7.973   7.738  0.6397  0.2975  0.7766
13850SOL    HW242361   6.190   7.852   7.827  0.2196  0.6464  1.2964
13851SOL     OW42362   0.784   5.763   6.558  0.2730  0.0412 -0.0335
13851SOL    HW142363   0.769   5.683   6.506 -1.5466  0.4194 -0.1711
13851SOL    HW242364   0.878   5.776   6.555  0.4103 -0.9696 -1.7256
13852SOL     OW42365   4.924   7.692   2.013  0.1370 -0.3441 -0.6596
13852SOL    HW142366   4.838   7.678   1.973  0.3399 -1.5423 -0.7125
13852SOL    HW242367   4.985   7.695   1.940  0.4101 -1.7675 -0.5262
13853SOL     OW42368   6.211   1.874   2.318  0.2848 -0.0698 -0.3034
13853SOL    HW142369   6.120   1.899   2.331 -0.3359 -1.6145 -1.4149
13853SOL    HW242370   6.231   1.897   2.228  1.1023  0.5027  0.0040
13854SOL     OW42371   2.114   5.793   5.456  0.2981  0.1226  0.0604
13854SOL    HW142372   2.080   5.852   5.389  1.3092  0.3670 -0.2533
13854SOL    HW242373   2.055   5.718   5.454  0.3663  0.0884 -1.1629
13855SOL     OW42374   0.959   6.692   3.709 -0.3895 -0.0533 -0.0017
13855SOL    HW142375   0.868   6.698   3.679 -0.1195  0.4362 -0.7379
13855SOL    HW242376   0.953   6.688   3.804 -1.1393  0.8799 -0.0009
13856SOL     OW42377   6.442   4.922   2.520 -0.4128  0.0610  0.1277
13856SOL    HW142378   6.359   4.884   2.491  0.1281 -1.3674  0.3723
13856SOL    HW242379   6.417   4.998   2.573 -1.4919  0.8441 -1.4345
13857SOL     OW42380   4.183   4.598   0.449  0.1339  0.0259 -0.0248
13857SOL    HW142381   4.248   4.618   0.517  0.1702  1.5229 -0.4664
13857SOL    HW242382   4.168   4.682   0.405 -0.1099 -0.8437 -1.6778
13858SOL     OW42383   4.202   5.993   1.417 -0.0667  0.0504  0.4461
13858SOL    HW142384   4.296   5.980   1.431  0.1068  1.5036  0.7124
13858SOL    HW242385   4.195   6.013   1.324 -0.1192 -0.0394  0.4303
13859SOL     OW42386   4.759   7.294   6.993 -0.2084 -0.0181 -0.5550
13859SOL    HW142387   4.784   7.325   7.080 -1.2416  0.7918 -0.5424
13859SOL    HW242388   4.684   7.236   7.008 -0.9416  0.8008 -0.9709
13860SOL     OW42389   0.027   3.912   6.408  0.0156 -0.4655 -0.1747
13860SOL    HW142390   0.019   3.959   6.491  1.0254  0.2787 -0.4790
13860SOL    HW242391  -0.010   3.970   6.343 -0.7974 -1.0591 -0.2557
13861SOL     OW42392   1.679   1.883   3.268  1.0017  0.4856 -0.3098
13861SOL    HW142393   1.691   1.958   3.326  1.6614  0.6863 -0.6895
13861SOL    HW242394   1.713   1.912   3.183  0.3246  0.0976 -0.7214
13862SOL     OW42395   1.206   3.154   6.760  0.3865 -0.1466  0.2377
13862SOL    HW142396   1.255   3.213   6.817  3.3260 -1.0781 -1.0739
13862SOL    HW242397   1.251   3.070   6.769 -1.9653 -1.5017  0.0107
13863SOL     OW42398   5.443   0.955   6.086 -0.5359 -0.0483  0.1087
13863SOL    HW142399   5.433   0.880   6.028  0.7018 -0.4746  0.3990
13863SOL    HW242400   5.454   0.916   6.173 -0.2013  0.4773  0.3072
13864SOL     OW42401   5.825   7.871   0.644 -0.0344 -0.1179 -0.3847
13864SOL    HW142402   5.763   7.828   0.584  0.1694  0.4604 -1.0252
13864SOL    HW242403   5.906   7.876   0.594 -0.3831  2.1250 -0.8256
13865SOL     OW42404   2.577   1.716   7.871  0.4399 -0.3204  0.1750
13865SOL    HW142405   2.586   1.668   7.789  1.2970 -1.4845  0.9062
13865SOL    HW242406   2.482   1.729   7.881  0.2631 -1.0040 -0.5237
13866SOL     OW42407   1.582   1.195   0.393 -0.0873 -1.3867 -0.0089
13866SOL    HW142408   1.577   1.271   0.450  0.3825 -1.7801  0.5684
13866SOL    HW242409   1.564   1.230   0.305  0.6786 -0.5125  0.1620
13867SOL     OW42410   3.220   4.470   0.146  0.1621  0.1222 -0.7193
13867SOL    HW142411   3.196   4.547   0.198 -0.8986 -2.1289  2.4649
13867SOL    HW242412   3.288   4.502   0.086  1.0012  3.1762  1.5704
13868SOL     OW42413   5.539   4.283   4.340 -0.1986  0.4228 -0.2681
13868SOL    HW142414   5.571   4.260   4.253 -1.6090  1.7162 -1.1915
13868SOL    HW242415   5.578   4.218   4.398 -0.6395 -1.6093 -2.1057
13869SOL     OW42416   7.839   3.797   5.139  0.1444 -0.6384 -0.2002
13869SOL    HW142417   7.867   3.741   5.067 -0.9909 -0.5393 -0.7386
13869SOL    HW242418   7.875   3.883   5.117  1.0859 -0.9389  0.1406
13870SOL     OW42419   2.204   2.809   1.188 -1.0877 -0.3540 -0.2998
13870SOL    HW142420   2.178   2.902   1.192 -0.9405 -0.3593  1.8197
13870SOL    HW242421   2.208   2.781   1.279  0.5984 -1.9899 -0.8069
13871SOL     OW42422   7.520   6.232   2.382 -0.1417  0.0861  0.2477
13871SOL    HW142423   7.527   6.326   2.364  0.3126  0.0762  0.3664
13871SOL    HW242424   7.582   6.216   2.453 -0.2300 -0.3022  0.2395
13872SOL     OW42425   6.088   6.953   2.996  0.1135 -0.0978 -0.3183
13872SOL    HW142426   6.128   6.887   3.053 -1.0715 -0.1433  0.4874
13872SOL    HW242427   6.048   6.903   2.925  0.0811 -0.1626 -0.2539
13873SOL     OW42428   7.253   1.283   6.924 -0.2452 -0.1481 -0.4246
13873SOL    HW142429   7.234   1.192   6.901  0.9099 -0.6637  0.5530
13873SOL    HW242430   7.346   1.293   6.907 -0.1468  0.5326  0.4421
13874SOL     OW42431   5.460   3.630   6.440  0.1394  0.3161  0.3668
13874SOL    HW142432   5.382   3.574   6.438 -0.5101  1.1227  1.5922
13874SOL    HW242433   5.533   3.569   6.446 -0.4933 -0.4346  0.7276
13875SOL     OW42434   0.192   5.782   5.793  0.1702 -0.2057 -0.6590
13875SOL    HW142435   0.102   5.773   5.824  0.3024 -0.8197 -0.4429
13875SOL    HW242436   0.183   5.811   5.702 -0.2471 -0.5216 -0.7209
13876SOL     OW42437   1.386   2.028   1.652  0.3594  0.1401 -0.3206
13876SOL    HW142438   1.397   2.109   1.702  0.7005  0.6793 -1.2425
13876SOL    HW242439   1.383   2.057   1.561 -0.6175 -0.7895 -0.5978
13877SOL     OW42440   1.223   4.366   1.353  0.4908  0.1519  0.6654
13877SOL    HW142441   1.255   4.289   1.308  2.5217  0.0821  2.0882
13877SOL    HW242442   1.139   4.386   1.311  0.9348 -1.5360 -1.1483
13878SOL     OW42443   4.277   6.521   2.750  0.2264  0.6691 -0.1846
13878SOL    HW142444   4.214   6.578   2.707  1.3477  1.7704 -0.4315
13878SOL    HW242445   4.247   6.516   2.841 -1.0715 -0.1141 -0.6241
13879SOL     OW42446   2.835   5.764   6.794 -0.2349  0.1078  0.0884
13879SOL    HW142447   2.745   5.784   6.768 -0.5692 -0.8740  0.4097
13879SOL    HW242448   2.829   5.676   6.832  0.6090  0.6195  1.4638
13880SOL     OW42449   5.954   4.420   2.709 -0.7072  0.1270 -0.4772
13880SOL    HW142450   6.028   4.436   2.650 -2.6382  2.9750 -2.3847
13880SOL    HW242451   5.995   4.400   2.793  2.1734 -1.4239 -2.0685
13881SOL     OW42452   1.231   4.251   6.193  0.7702  0.3504 -0.6617
13881SOL    HW142453   1.162   4.250   6.127  0.9963  1.7614 -0.9546
13881SOL    HW242454   1.265   4.161   6.194 -1.5212 -0.5570  0.0163
13882SOL     OW42455   0.008   4.270   5.220 -0.0386  0.3669 -0.0115
13882SOL    HW142456   0.024   4.363   5.202  1.3096 -0.1829 -1.9719
13882SOL    HW242457   0.061   4.251   5.297 -1.2194  1.4465  1.1132
13883SOL     OW42458   0.602   0.940   3.448 -0.1642 -0.6617  0.5349
13883SOL    HW142459   0.539   1.008   3.424  0.4894  0.3309  1.5670
13883SOL    HW242460   0.649   0.922   3.366 -0.8164 -0.3882  0.0881
13884SOL     OW42461   2.179   4.715   2.078  0.0874  0.2057  0.0143
13884SOL    HW142462   2.244   4.667   2.131 -0.1629  1.0360  1.1040
13884SOL    HW242463   2.095   4.678   2.104  0.1061 -1.1104 -1.6525
13885SOL     OW42464   3.273   6.248   0.259  0.5403 -0.2613 -0.0375
13885SOL    HW142465   3.329   6.286   0.327  0.7291 -2.2746  1.0134
13885SOL    HW242466   3.324   6.256   0.179  0.8013  1.1145  0.2299
13886SOL     OW42467   2.820   2.043   0.971 -0.4965 -0.1830 -0.0120
13886SOL    HW142468   2.909   2.075   0.958 -0.6009 -0.3334 -1.1702
13886SOL    HW242469   2.811   1.970   0.910 -1.2131 -0.5755  0.5407
13887SOL     OW42470   1.878   0.546   6.096 -0.3255  0.6313 -0.3165
13887SOL    HW142471   1.838   0.483   6.156 -0.0141 -0.1632 -0.9358
13887SOL    HW242472   1.965   0.510   6.077  0.1135  1.5738 -0.1824
13888SOL     OW42473   0.805   3.613   3.110  0.0907 -0.0556  0.4465
13888SOL    HW142474   0.789   3.701   3.143 -1.0348  0.3432 -1.0648
13888SOL    HW242475   0.798   3.621   3.015  0.5471 -1.6685  0.2436
13889SOL     OW42476   6.308   4.753   0.130  0.3611  0.3833 -0.0796
13889SOL    HW142477   6.318   4.752   0.225  0.1882 -0.8476 -0.0567
13889SOL    HW242478   6.392   4.722   0.097 -0.3958 -1.7371 -0.1968
13890SOL     OW42479   2.956   0.677   3.335 -0.2725  0.2738 -0.0313
13890SOL    HW142480   2.860   0.675   3.341 -0.2906  1.1151  0.0838
13890SOL    HW242481   2.985   0.690   3.425 -0.0899  1.0105 -0.1904
13891SOL     OW42482   0.942   3.658   2.589 -0.1172 -0.6868  0.2853
13891SOL    HW142483   0.947   3.731   2.526 -0.5903 -0.6760  0.2599
13891SOL    HW242484   1.012   3.676   2.652 -0.1861 -0.2481  0.2376
13892SOL     OW42485   3.285   1.531   6.462  0.2067 -0.1816  0.2898
13892SOL    HW142486   3.361   1.519   6.404 -0.5165 -0.7294 -0.5714
13892SOL    HW242487   3.271   1.444   6.500 -1.2129 -0.6131 -1.1251
13893SOL     OW42488   5.922   0.834   4.813  0.0298 -0.2483 -0.1397
13893SOL    HW142489   5.928   0.816   4.907 -0.8000 -0.9637 -0.2021
13893SOL    HW242490   5.862   0.909   4.807  3.8143  3.1124  0.1457
13894SOL     OW42491   0.481   6.684   3.431 -0.7204 -0.0842  0.1089
13894SOL    HW142492   0.556   6.701   3.375 -0.4030  0.2631  0.6285
13894SOL    HW242493   0.426   6.762   3.422  0.7225  1.3661  2.4714
13895SOL     OW42494   2.456   3.343   1.615 -0.1397 -0.1954  0.1153
13895SOL    HW142495   2.433   3.363   1.525 -1.0040  1.8364  0.7307
13895SOL    HW242496   2.405   3.405   1.667  1.1801 -0.5664  1.9441
13896SOL     OW42497   7.234   0.970   5.680 -0.1091  0.3762  0.5719
13896SOL    HW142498   7.194   0.937   5.761 -1.5898  0.7096  0.0046
13896SOL    HW242499   7.204   0.910   5.612 -0.0865  0.9549  0.0455
13897SOL     OW42500   4.142   7.792   5.685 -0.2143 -0.6795  0.0468
13897SOL    HW142501   4.138   7.784   5.780  0.9137 -2.5104 -0.0103
13897SOL    HW242502   4.150   7.886   5.669 -0.0747 -0.3743  1.7738
13898SOL     OW42503   2.133   0.404   5.157  0.4628  0.7368  0.1585
13898SOL    HW142504   2.132   0.471   5.088 -1.3263  0.0933 -0.5029
13898SOL    HW242505   2.147   0.322   5.110  0.1910  0.3924  0.6820
13899SOL     OW42506   0.403   0.573   7.548  0.3932  0.3738 -0.1722
13899SOL    HW142507   0.487   0.618   7.551  0.0951  0.8824  1.2872
13899SOL    HW242508   0.423   0.487   7.510  1.7172  0.1708  0.9061
13900SOL     OW42509   2.381   5.207   5.752 -0.0286 -0.0091  0.6940
13900SOL    HW142510   2.475   5.222   5.737  0.0082 -1.7500 -1.1776
13900SOL    HW242511   2.343   5.295   5.748  1.6025  0.8933  2.6778
13901SOL     OW42512   3.819   7.498   6.100  0.1729 -0.3107 -0.2502
13901SOL    HW142513   3.871   7.542   6.032 -1.5784 -0.2262 -1.6053
13901SOL    HW242514   3.790   7.569   6.158 -0.4585 -0.0155 -0.9162
13902SOL     OW42515   7.612   7.901   7.640  0.2219  0.1453 -0.2181
13902SOL    HW142516   7.558   7.979   7.655 -0.1002 -0.0012 -0.5847
13902SOL    HW242517   7.678   7.929   7.576  0.0136  0.0815 -0.4648
13903SOL     OW42518   3.615   0.140   1.477  0.4421  0.0188  0.2069
13903SOL    HW142519   3.635   0.233   1.463 -1.1634  0.4902  0.7791
13903SOL    HW242520   3.592   0.134   1.570 -1.0964 -0.6046 -0.1872
13904SOL     OW42521   3.818   3.690   5.145 -0.1495  0.3858  0.6553
13904SOL    HW142522   3.894   3.697   5.203  1.1002 -3.2966 -0.2965
13904SOL    HW242523   3.747   3.658   5.202 -0.0181  0.4476  0.8558
13905SOL     OW42524   5.666   7.698   0.292  0.4719 -0.4633 -0.2490
13905SOL    HW142525   5.759   7.676   0.286  0.4104 -0.4276 -1.7099
13905SOL    HW242526   5.652   7.761   0.221 -0.2561  1.0737  1.2062
13906SOL     OW42527   7.276   7.559   1.407  0.1994  0.4111  0.0194
13906SOL    HW142528   7.291   7.472   1.444  0.9154  0.4680 -0.1196
13906SOL    HW242529   7.363   7.596   1.398  0.0113  0.5685 -1.2998
13907SOL     OW42530   7.898   5.370   6.293  0.6491 -0.6772  0.5887
13907SOL    HW142531   7.904   5.410   6.380 -0.0555 -0.3912  0.5154
13907SOL    HW242532   7.807   5.387   6.265  1.4161  1.0506 -1.0875
13908SOL     OW42533   2.273   4.922   1.617 -0.0274 -0.7373 -0.3869
13908SOL    HW142534   2.216   4.913   1.540 -0.9777  1.3074 -0.0053
13908SOL    HW242535   2.216   4.903   1.692 -0.1477  0.9236 -0.0210
13909SOL     OW42536   7.321   4.435   6.290  0.1119 -0.4375 -0.0291
13909SOL    HW142537   7.351   4.524   6.277  3.0635 -1.2115  0.6633
13909SOL    HW242538   7.324   4.395   6.203  1.8387 -0.6605  0.1052
13910SOL     OW42539   4.153   2.036   3.050 -0.3435 -0.1206  0.0634
13910SOL    HW142540   4.206   1.964   3.085  1.5567  0.5094 -1.3669
13910SOL    HW242541   4.121   2.081   3.128  2.0407  0.0123  1.0530
13911SOL     OW42542   3.307   7.267   3.976  0.1150  0.0099  0.3048
13911SOL    HW142543   3.266   7.181   3.980 -0.8291  0.4076 -0.3969
13911SOL    HW242544   3.326   7.289   4.068 -1.0205 -0.3024  0.6292
13912SOL     OW42545   0.526   6.035   5.940  0.0334  0.3534  0.1516
13912SOL    HW142546   0.440   6.066   5.912 -0.1186  0.2827  0.5218
13912SOL    HW242547   0.527   6.052   6.035 -0.1431 -0.9342  0.4098
13913SOL     OW42548   6.144   1.669   1.928 -0.5613  0.2160  0.6510
13913SOL    HW142549   6.122   1.588   1.882 -0.2824 -0.2599  1.3286
13913SOL    HW242550   6.163   1.641   2.018 -0.7582  1.0764  0.9727
13914SOL     OW42551   7.891   7.419   4.651 -0.1071  0.2826 -0.5063
13914SOL    HW142552   7.985   7.434   4.650 -0.1513  0.6218  0.0502
13914SOL    HW242553   7.866   7.415   4.559  0.7280 -1.6413 -0.6975
13915SOL     OW42554   3.868   2.187   6.967 -1.0822 -0.3802  0.4064
13915SOL    HW142555   3.874   2.282   6.966 -4.5454 -0.0078  1.0420
13915SOL    HW242556   3.923   2.160   7.040 -0.4395  1.1799  0.5388
13916SOL     OW42557   0.233   1.893   5.743  0.0314 -0.6958 -0.3479
13916SOL    HW142558   0.258   1.823   5.803  0.1324 -0.9148 -0.6412
13916SOL    HW242559   0.278   1.871   5.661  2.6273  1.3474  0.3999
13917SOL     OW42560   4.789   3.319   5.196 -0.1109  0.4569  0.1332
13917SOL    HW142561   4.869   3.357   5.233  0.7201 -1.0842 -0.0088
13917SOL    HW242562   4.719   3.378   5.224  1.0963  1.9536  0.0851
13918SOL     OW42563   1.699   3.589   1.226 -0.0447  0.2443  0.0436
13918SOL    HW142564   1.667   3.640   1.151  2.0094  2.2515  0.4222
13918SOL    HW242565   1.669   3.500   1.209 -0.9266  0.9246 -2.3895
13919SOL     OW42566   3.770   6.119   7.389  0.1616 -0.4235 -0.3042
13919SOL    HW142567   3.700   6.176   7.419  1.7667  1.0525  0.8239
13919SOL    HW242568   3.734   6.076   7.311 -1.5993  1.0681 -0.3841
13920SOL     OW42569   6.840   6.761   6.759  0.2348  0.6505 -0.1751
13920SOL    HW142570   6.811   6.768   6.668  0.0559 -2.2213 -0.4174
13920SOL    HW242571   6.930   6.795   6.759  0.8004 -0.7464 -1.7787
13921SOL     OW42572   4.659   4.721   6.061 -0.1105 -0.0162  0.2859
13921SOL    HW142573   4.588   4.659   6.075 -0.9676  0.5101 -1.3991
13921SOL    HW242574   4.654   4.781   6.135 -1.0744 -0.3108  0.4709
13922SOL     OW42575   5.528   5.143   1.235  0.5762 -0.1515  0.3828
13922SOL    HW142576   5.540   5.056   1.273  0.3233 -0.7522 -0.8762
13922SOL    HW242577   5.494   5.127   1.147 -1.5326  1.2593  0.8372
13923SOL     OW42578   1.487   5.708   3.568 -0.1028  0.9244 -0.7288
13923SOL    HW142579   1.462   5.649   3.496 -0.6167  1.5256 -1.0463
13923SOL    HW242580   1.560   5.663   3.611 -1.9643 -1.1125  0.5082
13924SOL     OW42581   2.670   7.821   3.239 -0.0164  0.5517 -0.3261
13924SOL    HW142582   2.576   7.802   3.236  0.2449 -0.9108 -0.2366
13924SOL    HW242583   2.711   7.736   3.257  1.3852  0.9741 -1.3175
13925SOL     OW42584   7.976   5.838   5.165 -0.3651  0.3238  0.4657
13925SOL    HW142585   7.923   5.896   5.111 -0.2148 -0.6535 -0.7613
13925SOL    HW242586   7.913   5.792   5.221 -1.0291 -1.6612 -1.7615
13926SOL     OW42587   5.644   2.667   1.589 -0.1736  0.1081 -0.2926
13926SOL    HW142588   5.704   2.666   1.663 -0.9021 -0.8784  0.3185
13926SOL    HW242589   5.558   2.651   1.628 -1.0352  2.5797 -1.0083
13927SOL     OW42590   6.829   6.891   3.346  0.3851 -0.0022 -0.7402
13927SOL    HW142591   6.792   6.967   3.301  0.4241 -0.8770 -2.2970
13927SOL    HW242592   6.889   6.852   3.283  0.9084 -0.9382  0.2976
13928SOL     OW42593   7.788   4.402   7.523 -0.1681  0.4371 -0.3226
13928SOL    HW142594   7.828   4.396   7.436 -0.4554  0.1670 -0.4405
13928SOL    HW242595   7.844   4.348   7.579 -1.2341 -1.2901 -0.8221
13929SOL     OW42596   2.287   0.423   2.711 -0.0456  0.0392  0.1238
13929SOL    HW142597   2.370   0.376   2.718 -0.7617 -1.3160  0.0741
13929SOL    HW242598   2.286   0.482   2.786  1.3341  0.7445 -0.3744
13930SOL     OW42599   3.912   2.168   3.554 -0.3612  0.0934 -0.4448
13930SOL    HW142600   3.831   2.184   3.602  1.0748 -0.0630  2.1598
13930SOL    HW242601   3.937   2.255   3.522 -1.5972  0.1152 -1.4833
13931SOL     OW42602   4.559   2.308   1.304 -0.0636  0.3990 -0.0462
13931SOL    HW142603   4.511   2.232   1.273  0.1052  0.1947  0.1912
13931SOL    HW242604   4.496   2.380   1.302 -0.0580  0.3860 -0.8510
13932SOL     OW42605   3.815   4.394   1.688  0.3602 -0.3858  0.2435
13932SOL    HW142606   3.879   4.337   1.731  0.1247 -1.5467 -0.8755
13932SOL    HW242607   3.773   4.338   1.622 -1.1355  0.6079  0.2906
13933SOL     OW42608   7.481   7.149   6.742 -0.2297 -0.4373  0.5334
13933SOL    HW142609   7.566   7.181   6.773  0.6179 -1.0317 -1.0368
13933SOL    HW242610   7.424   7.225   6.744  0.6351  0.2253  0.6247
13934SOL     OW42611   5.402   7.952   1.513  0.0047 -0.0753  0.1162
13934SOL    HW142612   5.369   7.977   1.600  0.3470 -1.4603  0.6706
13934SOL    HW242613   5.448   7.870   1.528  1.3892  0.4409 -1.1222
13935SOL     OW42614   0.627   7.740   7.843 -0.4293  0.3123 -1.0613
13935SOL    HW142615   0.535   7.711   7.845  0.2729 -2.1691  0.4272
13935SOL    HW242616   0.657   7.719   7.755 -0.9867  0.0957 -1.2065
13936SOL     OW42617   5.480   1.176   4.703 -0.4370 -0.1259 -0.1228
13936SOL    HW142618   5.431   1.133   4.774  1.3245 -1.9709  0.0666
13936SOL    HW242619   5.440   1.263   4.697 -1.8393 -0.5299  1.9058
13937SOL     OW42620   6.426   6.352   5.752 -0.2222  0.2119 -0.3732
13937SOL    HW142621   6.498   6.405   5.717  1.2242 -0.8539  0.8337
13937SOL    HW242622   6.371   6.414   5.799  1.1752  0.7667  0.6152
13938SOL     OW42623   5.253   2.633   0.439 -0.2971  0.0001  0.0144
13938SOL    HW142624   5.320   2.622   0.507  1.5846  3.1615 -1.1186
13938SOL    HW242625   5.179   2.672   0.485 -0.0585 -0.2794  0.6594
13939SOL     OW42626   6.910   4.275   7.887  0.2679 -0.6210 -0.1916
13939SOL    HW142627   6.947   4.281   7.799  1.8862  0.2424  0.5100
13939SOL    HW242628   6.982   4.244   7.941 -0.3170  0.1409  1.0637
13940SOL     OW42629   1.166   4.302   3.761  0.0203  0.1384  0.3554
13940SOL    HW142630   1.250   4.334   3.794  1.2743 -2.6128  0.0873
13940SOL    HW242631   1.101   4.360   3.802  1.7651 -0.0152  3.7662
13941SOL     OW42632   1.636   0.233   4.517 -0.3299  0.2351  0.6115
13941SOL    HW142633   1.581   0.291   4.464 -1.1282 -0.1054  1.0557
13941SOL    HW242634   1.580   0.158   4.537  0.2344 -0.0299  1.2385
13942SOL     OW42635   3.393   6.579   7.573  0.3564 -0.1164 -0.0544
13942SOL    HW142636   3.321   6.575   7.636 -0.5596  0.1467 -1.0598
13942SOL    HW242637   3.378   6.659   7.523  2.0504  0.6033  0.5031
13943SOL     OW42638   6.277   1.365   4.250  0.3678 -0.2511 -0.2654
13943SOL    HW142639   6.265   1.433   4.185  1.4396  0.8107  0.6015
13943SOL    HW242640   6.371   1.345   4.248  0.0186 -2.0656 -0.8229
13944SOL     OW42641   6.215   7.955   0.847  0.1084 -0.0703  0.3545
13944SOL    HW142642   6.287   7.984   0.792  0.6996 -0.6066  0.8411
13944SOL    HW242643   6.147   7.928   0.785  0.7522 -0.6368 -0.1219
13945SOL     OW42644   1.308   2.122   0.161  0.1907  0.1334  0.4741
13945SOL    HW142645   1.228   2.106   0.211 -1.6387  2.6742 -1.3778
13945SOL    HW242646   1.278   2.152   0.075  3.1694 -2.8532 -1.8764
13946SOL     OW42647   4.631   7.759   4.495 -0.3453  0.1149  0.7281
13946SOL    HW142648   4.691   7.833   4.484  1.2808 -0.8421  2.5242
13946SOL    HW242649   4.573   7.764   4.419  0.9474  2.0699 -0.2263
13947SOL     OW42650   6.352   2.053   3.348 -0.0884 -0.3676  0.1913
13947SOL    HW142651   6.332   2.140   3.315  1.7112  0.8919  2.1068
13947SOL    HW242652   6.268   2.006   3.347 -1.7279  2.2897  1.6110
13948SOL     OW42653   7.741   1.802   5.735 -0.2629 -0.2112 -0.2071
13948SOL    HW142654   7.765   1.846   5.654  1.3849 -0.8442 -0.1038
13948SOL    HW242655   7.701   1.720   5.707 -0.2652 -0.1454 -0.3958
13949SOL     OW42656   0.421   0.058   4.990 -0.0549  0.3213 -0.1648
13949SOL    HW142657   0.420  -0.036   4.972  1.2413 -0.1805  1.9514
13949SOL    HW242658   0.369   0.097   4.920 -3.4912 -2.2907  0.6788
13950SOL     OW42659   2.796   4.899   2.410 -0.5112 -0.1866 -0.0489
13950SOL    HW142660   2.714   4.906   2.460 -1.1319  0.1668 -1.0772
13950SOL    HW242661   2.808   4.986   2.373 -0.0032 -0.4127 -0.4228
13951SOL     OW42662   6.100   1.237   4.835 -0.2762  0.1388 -0.6807
13951SOL    HW142663   6.087   1.165   4.896  0.4949 -0.3928 -1.1349
13951SOL    HW242664   6.120   1.195   4.752  0.0190  0.8757 -0.9904
13952SOL     OW42665   7.737   4.243   5.329 -0.5098  0.1798  0.9951
13952SOL    HW142666   7.772   4.213   5.413  1.3390  1.1132  0.6264
13952SOL    HW242667   7.815   4.269   5.279 -1.7004  1.4742 -0.2814
13953SOL     OW42668   0.539   3.822   5.332 -0.2610 -0.3702  0.2539
13953SOL    HW142669   0.456   3.860   5.303 -0.4923 -1.7060 -0.9526
13953SOL    HW242670   0.604   3.859   5.272 -0.2116 -0.4762  0.2421
13954SOL     OW42671   5.761   4.645   5.508  0.7599 -0.1449  0.0173
13954SOL    HW142672   5.666   4.636   5.515  0.8121 -2.5421 -0.9862
13954SOL    HW242673   5.775   4.687   5.423  0.6031  0.7554  0.4308
13955SOL     OW42674   7.246   4.542   3.860  1.3575 -0.0573 -0.1735
13955SOL    HW142675   7.252   4.454   3.897  0.2128  0.1987  0.6850
13955SOL    HW242676   7.205   4.530   3.775  0.4577 -0.2789  0.2853
13956SOL     OW42677   2.850   1.117   7.105 -0.1411  0.5686  0.0472
13956SOL    HW142678   2.878   1.164   7.184 -1.1528  1.8426 -0.2975
13956SOL    HW242679   2.889   1.166   7.033  0.2488 -0.2050 -0.2751
13957SOL     OW42680   5.301   3.310   4.576 -0.2616  0.5016 -0.0606
13957SOL    HW142681   5.340   3.353   4.500 -0.1627 -0.2050 -0.4204
13957SOL    HW242682   5.360   3.237   4.595 -0.1588  0.8030  0.8422
13958SOL     OW42683   3.692   3.174   7.377 -0.2162  0.2071  0.1232
13958SOL    HW142684   3.678   3.235   7.304  0.9203 -0.2633 -0.5211
13958SOL    HW242685   3.608   3.129   7.387 -0.9782  1.6242  0.3947
13959SOL     OW42686   0.055   3.690   4.310  0.1630 -0.1570 -0.2515
13959SOL    HW142687   0.044   3.773   4.358  1.3075  0.0802 -0.3759
13959SOL    HW242688   0.018   3.707   4.224 -1.7829 -0.5387  0.4662
13960SOL     OW42689   0.062   1.633   5.638 -0.3942  0.0445 -0.3790
13960SOL    HW142690   0.026   1.634   5.727 -2.0441  0.1560 -1.0207
13960SOL    HW242691   0.150   1.597   5.649 -1.6842 -3.0625  0.9240
13961SOL     OW42692   5.746   1.021   4.826  0.8746  0.6453 -0.4904
13961SOL    HW142693   5.734   1.109   4.862  0.0300  0.5536 -0.5165
13961SOL    HW242694   5.664   0.976   4.848  2.7227 -1.4535  3.1338
13962SOL     OW42695   7.649   7.239   3.638  0.2710  0.0594 -0.2908
13962SOL    HW142696   7.626   7.292   3.561 -0.9826 -0.5487 -0.3627
13962SOL    HW242697   7.693   7.162   3.601 -1.2373 -0.7236 -0.5086
13963SOL     OW42698   4.066   0.968   6.861  0.8870 -0.4423 -0.0702
13963SOL    HW142699   4.084   1.030   6.932 -1.1574 -0.5633  0.6360
13963SOL    HW242700   4.049   0.885   6.905 -2.6053 -0.0398 -0.3931
13964SOL     OW42701   1.258   2.612   5.418  0.4195  0.3127  0.3676
13964SOL    HW142702   1.236   2.701   5.391 -0.9186  0.5184  2.0283
13964SOL    HW242703   1.181   2.560   5.394  0.2791  0.0252  1.4224
13965SOL     OW42704   7.527   2.967   6.338  0.5761 -0.6372  0.0525
13965SOL    HW142705   7.534   2.957   6.433  1.8480  2.2974  0.3935
13965SOL    HW242706   7.474   3.046   6.326  3.8619  1.5811 -1.4026
13966SOL     OW42707   7.957   5.949   1.079 -1.0019  0.3028 -0.2855
13966SOL    HW142708   7.982   5.962   0.987  2.5711 -0.2810  0.4753
13966SOL    HW242709   7.865   5.923   1.075 -1.5283  2.1375 -3.5197
13967SOL     OW42710   7.553   6.769   3.854  0.1503  0.5467 -0.5900
13967SOL    HW142711   7.591   6.767   3.942 -2.0680 -2.9012  0.4811
13967SOL    HW242712   7.460   6.786   3.868 -0.2815 -0.2823 -2.2458
13968SOL     OW42713   6.497   7.549   4.629  0.1916 -0.5879 -0.1932
13968SOL    HW142714   6.558   7.478   4.647  0.3360 -0.9520 -1.9885
13968SOL    HW242715   6.516   7.575   4.539 -1.1037  0.4857 -0.1839
13969SOL     OW42716   4.493   6.072   3.660 -0.1845 -0.0374  0.0946
13969SOL    HW142717   4.428   6.021   3.612  1.4855 -1.4227 -0.8129
13969SOL    HW242718   4.568   6.013   3.669  1.1352  1.6379  0.6653
13970SOL     OW42719   6.168   0.721   3.408 -0.7672  0.3257  0.2302
13970SOL    HW142720   6.229   0.665   3.361  0.7847  1.6863  0.5465
13970SOL    HW242721   6.087   0.716   3.357  0.5015  0.8598 -2.0003
13971SOL     OW42722   0.669   0.523   3.443  0.2453  0.0627  0.2357
13971SOL    HW142723   0.667   0.498   3.351 -0.5566  0.6216  0.0978
13971SOL    HW242724   0.584   0.498   3.477 -0.1753  1.5715  0.3563
13972SOL     OW42725   1.043   2.876   3.812  0.0326  0.4658 -0.2643
13972SOL    HW142726   1.050   2.970   3.827  1.5735  0.5635 -1.4031
13972SOL    HW242727   0.960   2.865   3.765 -0.1578  1.2467 -0.1156
13973SOL     OW42728   2.795   7.941   4.416  0.1060 -0.1218 -0.2181
13973SOL    HW142729   2.773   7.957   4.324 -0.2170  0.2099 -0.0870
13973SOL    HW242730   2.879   7.986   4.428 -1.4078  2.7811  0.4885
13974SOL     OW42731   5.441   1.133   7.357 -0.3837  0.5300  0.2950
13974SOL    HW142732   5.418   1.043   7.377 -1.3223  1.1774  2.4588
13974SOL    HW242733   5.495   1.128   7.279 -1.7144 -1.7525 -0.5487
13975SOL     OW42734   4.495   5.377   7.309  0.7183 -0.1370  0.0093
13975SOL    HW142735   4.411   5.393   7.351 -0.4432  2.4784 -2.9364
13975SOL    HW242736   4.543   5.459   7.318  1.1108 -0.0734 -2.1021
13976SOL     OW42737   0.845   6.458   2.838 -0.6193  0.8702 -0.2328
13976SOL    HW142738   0.845   6.362   2.839 -0.0827  0.8054  2.8691
13976SOL    HW242739   0.930   6.482   2.801  0.4742  0.0318  1.6060
13977SOL     OW42740   7.255   1.833   1.376 -0.9423  0.4999 -0.5024
13977SOL    HW142741   7.288   1.771   1.441 -1.9883  1.1216  0.6676
13977SOL    HW242742   7.311   1.909   1.386 -1.3728  0.7614  0.0125
13978SOL     OW42743   4.248   1.582   7.468 -0.3967  0.0357  0.5677
13978SOL    HW142744   4.311   1.626   7.525 -1.2445  0.9039  0.8585
13978SOL    HW242745   4.167   1.580   7.519 -1.0916  0.5450 -0.4825
13979SOL     OW42746   5.781   1.686   2.696  0.5135  0.3229  0.0823
13979SOL    HW142747   5.821   1.605   2.663 -1.5209  0.1460 -2.2226
13979SOL    HW242748   5.687   1.666   2.701  0.1852  1.9833  1.3011
13980SOL     OW42749   4.654   0.452   5.705  0.4560  0.1998 -0.5996
13980SOL    HW142750   4.717   0.435   5.776  1.3617 -0.3136 -1.5062
13980SOL    HW242751   4.571   0.468   5.751  1.3018  1.2715  0.6371
13981SOL     OW42752   3.039   0.511   1.421 -0.5528  0.3212  0.1011
13981SOL    HW142753   3.122   0.466   1.439 -0.7315  0.7145  2.0537
13981SOL    HW242754   2.992   0.451   1.363  0.4697 -0.6190  0.2080
13982SOL     OW42755   7.169   0.552   2.029 -0.0765 -0.3389 -0.0033
13982SOL    HW142756   7.151   0.545   1.936 -0.2883  1.3832 -0.1379
13982SOL    HW242757   7.260   0.582   2.034 -0.2593  0.1933  0.3003
13983SOL     OW42758   7.701   5.889   0.376  0.5248  0.5171 -0.2021
13983SOL    HW142759   7.783   5.852   0.411  0.2104  0.6581  0.7028
13983SOL    HW242760   7.637   5.819   0.386  0.3625  0.6642 -0.2069
13984SOL     OW42761   2.681   5.842   0.520 -0.3594  0.3574  0.0040
13984SOL    HW142762   2.627   5.880   0.450 -0.2302 -0.6227 -0.6503
13984SOL    HW242763   2.638   5.870   0.601 -1.2890  0.4033 -0.4905
13985SOL     OW42764   1.681   1.851   2.763 -0.3099 -0.3655 -1.0435
13985SOL    HW142765   1.752   1.799   2.725 -1.2456 -0.5125 -2.6936
13985SOL    HW242766   1.714   1.941   2.762  1.0163 -0.7696  1.0989
13986SOL     OW42767   6.202   0.460   6.542  0.0699  0.1101 -0.2296
13986SOL    HW142768   6.119   0.414   6.533 -0.0360  0.0895  0.7811
13986SOL    HW242769   6.181   0.552   6.525  0.6112 -0.3109 -4.1914
13987SOL     OW42770   4.487   3.075   3.600 -0.2468  0.0195  0.4776
13987SOL    HW142771   4.392   3.077   3.586 -0.3834  0.9142  1.4042
13987SOL    HW242772   4.524   3.077   3.512 -1.0656  2.1115  0.1284
13988SOL     OW42773   0.998   1.561   5.227 -0.0302  0.0053 -0.0860
13988SOL    HW142774   0.984   1.468   5.248 -0.3944  0.0319 -0.2013
13988SOL    HW242775   1.091   1.575   5.242 -0.4367  0.3053  2.6882
13989SOL     OW42776   2.476   6.051   3.546 -0.0280  0.4184 -0.1347
13989SOL    HW142777   2.397   6.034   3.495 -1.8332  0.0074  2.5499
13989SOL    HW242778   2.548   6.021   3.491 -1.8607 -0.5803 -2.1144
13990SOL     OW42779   3.510   7.041   3.112  0.1995  0.1035 -0.0425
13990SOL    HW142780   3.490   6.971   3.174 -0.6694 -0.8470 -1.3381
13990SOL    HW242781   3.597   7.019   3.078  0.5442  0.4611  0.5730
13991SOL     OW42782   1.436   4.678   6.849 -0.3017  0.3491 -0.6068
13991SOL    HW142783   1.527   4.658   6.829  0.5623  2.6897  0.6162
13991SOL    HW242784   1.396   4.699   6.765 -0.0296 -1.6370 -1.2834
13992SOL     OW42785   4.127   7.622   7.494  0.1304 -0.2884 -0.9571
13992SOL    HW142786   4.093   7.535   7.472 -0.1536 -0.2127 -0.8136
13992SOL    HW242787   4.163   7.655   7.412 -0.0920 -0.3896 -1.0949
13993SOL     OW42788   3.258   6.706   1.901  0.4310  0.3924 -0.3740
13993SOL    HW142789   3.294   6.741   1.820 -0.6640 -1.1441 -1.5877
13993SOL    HW242790   3.306   6.624   1.915  0.6138  0.6477  0.5397
13994SOL     OW42791   5.502   0.494   5.478  0.6137  0.7338  0.0327
13994SOL    HW142792   5.567   0.501   5.408  0.3407  0.9273 -0.2031
13994SOL    HW242793   5.424   0.536   5.443  0.2599  0.2249  0.1936
13995SOL     OW42794   0.641   0.570   7.902  0.1078  0.2643 -0.6714
13995SOL    HW142795   0.610   0.660   7.908  0.0379  0.1440  2.1569
13995SOL    HW242796   0.736   0.576   7.901  0.1069  0.3946 -0.2787
13996SOL     OW42797   0.211   3.384   1.870 -0.6736 -0.0376 -0.0462
13996SOL    HW142798   0.283   3.408   1.928 -0.4634 -0.2120 -0.2382
13996SOL    HW242799   0.234   3.298   1.836  0.0034  0.7301 -1.6553
13997SOL     OW42800   6.804   1.446   0.276 -0.2204 -0.3162 -0.7637
13997SOL    HW142801   6.743   1.383   0.316 -2.1843  1.0305 -1.4568
13997SOL    HW242802   6.888   1.429   0.319 -1.0526 -2.2844  0.2375
13998SOL     OW42803   5.965   2.855   7.787  0.0777  0.2852 -0.3151
13998SOL    HW142804   5.949   2.910   7.710 -1.0547  0.0324 -0.2859
13998SOL    HW242805   5.998   2.773   7.751  1.3399  0.8138 -0.3907
13999SOL     OW42806   3.864   1.751   6.724  0.6049 -0.3838  0.2344
13999SOL    HW142807   3.835   1.747   6.815 -1.3962 -2.1728 -0.3981
13999SOL    HW242808   3.886   1.843   6.709 -2.4838  0.6663  1.5285
14000SOL     OW42809   5.380   3.446   7.163  0.4872 -0.7576  0.4868
14000SOL    HW142810   5.357   3.426   7.254  1.7416 -1.1696  0.7401
14000SOL    HW242811   5.473   3.469   7.167 -0.0643  1.9330 -0.3162
14001SOL     OW42812   7.401   1.265   3.560 -0.4707 -0.3221  0.0620
14001SOL    HW142813   7.418   1.185   3.610 -0.9441  1.0736  2.6295
14001SOL    HW242814   7.311   1.289   3.583 -0.0677  1.3772 -0.0012
14002SOL     OW42815   5.592   5.527   6.416 -0.3605  0.2324  0.0692
14002SOL    HW142816   5.646   5.448   6.408 -1.8055 -0.9263  1.1752
14002SOL    HW242817   5.651   5.592   6.454  0.3872 -0.8471  0.8294
14003SOL     OW42818   1.185   7.842   1.144 -0.4186  0.4817 -0.7264
14003SOL    HW142819   1.203   7.927   1.183 -1.1351  1.4605 -2.4378
14003SOL    HW242820   1.189   7.857   1.050 -0.2187 -1.4638 -1.0790
14004SOL     OW42821   3.642   3.050   5.514 -1.1116 -0.5120 -0.1303
14004SOL    HW142822   3.648   3.006   5.428  1.4649  1.5660 -1.1699
14004SOL    HW242823   3.685   2.989   5.574 -1.2510 -1.1760 -0.6791
14005SOL     OW42824   0.679   5.309   4.720  0.3554  0.1329 -0.1815
14005SOL    HW142825   0.701   5.402   4.726  0.3025  0.2178 -1.0899
14005SOL    HW242826   0.762   5.265   4.703  0.7016 -0.2371  2.1090
14006SOL     OW42827   2.402   2.660   7.270 -0.3734 -0.1446  0.1726
14006SOL    HW142828   2.407   2.740   7.323  2.6529 -0.1159 -0.0262
14006SOL    HW242829   2.445   2.593   7.324  0.4151 -0.7364 -1.1517
14007SOL     OW42830   5.764   6.399   0.227 -0.2909  0.3859 -0.3312
14007SOL    HW142831   5.859   6.404   0.215 -0.1679  1.1001  0.7425
14007SOL    HW242832   5.731   6.481   0.192 -0.2812  1.0037  1.0541
14008SOL     OW42833   0.735   4.401   5.791  0.5069  0.4530 -0.0068
14008SOL    HW142834   0.694   4.350   5.721  0.6594  1.1118 -0.5859
14008SOL    HW242835   0.666   4.413   5.856 -0.4181  2.0361 -1.2238
14009SOL     OW42836   5.629   0.987   5.718 -0.0463 -0.1878  0.0793
14009SOL    HW142837   5.688   0.958   5.787 -0.6179 -0.8865  0.2815
14009SOL    HW242838   5.647   0.929   5.645 -0.4069 -0.3366  0.1061
14010SOL     OW42839   3.609   2.989   6.940  0.0615 -0.7751 -0.1656
14010SOL    HW142840   3.648   2.969   6.855 -0.1996  2.2803 -1.1536
14010SOL    HW242841   3.518   2.961   6.933 -0.1214  0.0186 -1.1705
14011SOL     OW42842   5.850   4.428   7.373  0.0018 -0.0124  0.2069
14011SOL    HW142843   5.890   4.358   7.425  2.4052  0.1825 -1.2139
14011SOL    HW242844   5.852   4.504   7.430 -1.2858 -0.7019  1.2432
14012SOL     OW42845   0.877   4.180   7.457 -0.7103  0.0793  0.1466
14012SOL    HW142846   0.869   4.087   7.434 -0.9377  0.2261 -0.3858
14012SOL    HW242847   0.883   4.181   7.552  2.0867 -0.6740  0.0540
14013SOL     OW42848   0.651   3.015   3.296 -0.0752 -0.1192  0.5418
14013SOL    HW142849   0.710   3.088   3.278  0.0580  0.0259  1.5278
14013SOL    HW242850   0.660   2.957   3.220  0.8885  0.1895  0.4145
14014SOL     OW42851   1.435   1.869   5.308  0.2433  0.2827  0.3040
14014SOL    HW142852   1.404   1.912   5.228  1.7073  0.6287 -0.1059
14014SOL    HW242853   1.426   1.935   5.376  2.6582  1.3870 -0.3595
14015SOL     OW42854   6.687   3.641   6.472  0.1647  0.1479 -0.5402
14015SOL    HW142855   6.670   3.723   6.426 -0.3134  0.6169  0.4377
14015SOL    HW242856   6.778   3.622   6.453  0.0122  0.3866 -1.5764
14016SOL     OW42857   7.908   5.436   7.886  0.6624 -0.2493 -0.1378
14016SOL    HW142858   7.918   5.526   7.856 -2.0123  0.5966  1.1815
14016SOL    HW242859   7.983   5.421   7.944  0.7651  1.3780  0.1792
14017SOL     OW42860   6.307   5.361   6.414  0.1309 -0.4971 -0.3546
14017SOL    HW142861   6.218   5.367   6.449 -0.0213 -0.4896 -0.7385
14017SOL    HW242862   6.341   5.450   6.422 -0.3017 -0.2386 -1.2562
14018SOL     OW42863   3.290   3.597   2.158 -0.6367 -0.2354  0.0375
14018SOL    HW142864   3.257   3.523   2.108 -0.0053 -0.3139 -0.2740
14018SOL    HW242865   3.218   3.621   2.217 -1.2504 -0.3668 -0.6554
14019SOL     OW42866   3.483   6.194   1.800  0.0569  0.2847  0.3164
14019SOL    HW142867   3.572   6.229   1.801  0.7329 -1.3057  2.4922
14019SOL    HW242868   3.441   6.233   1.876 -0.9838  0.6097 -0.4008
14020SOL     OW42869   4.513   6.930   0.832 -1.0049  0.0207  0.0461
14020SOL    HW142870   4.494   7.019   0.862  1.6302  0.5630  0.3610
14020SOL    HW242871   4.538   6.940   0.740 -1.0749 -0.4558 -0.0270
14021SOL     OW42872   6.201   5.918   3.582  0.6922  0.1269  0.4531
14021SOL    HW142873   6.143   5.846   3.558 -0.3218  1.0760 -0.0629
14021SOL    HW242874   6.151   5.968   3.647  0.8850  1.0015 -0.0492
14022SOL     OW42875   5.899   5.201   2.446 -0.1948 -0.7917 -0.0517
14022SOL    HW142876   5.824   5.164   2.493  1.3524 -1.3345  2.1052
14022SOL    HW242877   5.899   5.294   2.469  0.3978 -1.0019  0.8227
14023SOL     OW42878   1.682   6.053   1.160 -0.7441 -0.1053  0.1632
14023SOL    HW142879   1.622   6.006   1.101 -2.5117  2.0670  0.1051
14023SOL    HW242880   1.768   6.046   1.117 -1.8948  1.0921 -2.5838
14024SOL     OW42881   7.114   4.272   0.555  0.5001 -0.2341 -0.0024
14024SOL    HW142882   7.119   4.362   0.585 -0.9795 -0.3422  0.6571
14024SOL    HW242883   7.122   4.219   0.634 -0.0808 -0.6288 -0.1974
14025SOL     OW42884   0.570   1.785   6.442  0.0488  0.3875 -0.5650
14025SOL    HW142885   0.542   1.717   6.381 -0.5525  0.1447 -0.0192
14025SOL    HW242886   0.619   1.846   6.387  0.0085 -0.1247 -1.1885
14026SOL     OW42887   2.424   4.770   1.331 -0.0421  0.1030 -0.5517
14026SOL    HW142888   2.519   4.763   1.316 -0.1593 -1.8482 -0.6183
14026SOL    HW242889   2.405   4.703   1.396 -1.4826  0.0061 -1.0380
14027SOL     OW42890   0.797   1.917   3.845 -0.0683  0.2594 -0.6483
14027SOL    HW142891   0.845   1.837   3.822  0.4824  0.4399 -0.1640
14027SOL    HW242892   0.781   1.960   3.762 -0.3376 -0.3356 -0.9127
14028SOL     OW42893   7.273   3.009   0.269  0.4329  0.2818 -0.1081
14028SOL    HW142894   7.271   3.094   0.224 -0.4364  0.0880 -0.4667
14028SOL    HW242895   7.181   2.982   0.273  0.5508  0.0371  1.3240
14029SOL     OW42896   2.715   6.703   5.404 -0.1067 -0.4633  0.7568
14029SOL    HW142897   2.716   6.608   5.398  0.3439 -0.5500  1.8885
14029SOL    HW242898   2.734   6.733   5.315 -0.9901 -1.4043  0.2334
14030SOL     OW42899   7.822   4.743   7.254 -0.0841 -0.4208 -0.0382
14030SOL    HW142900   7.748   4.683   7.252 -0.4308  0.0037  0.0035
14030SOL    HW242901   7.811   4.797   7.175  0.8243 -1.1249 -0.6646
14031SOL     OW42902   4.640   6.030   6.501 -0.2780 -0.0033 -0.1963
14031SOL    HW142903   4.659   6.123   6.488 -0.1806 -0.2217 -1.8314
14031SOL    HW242904   4.708   5.984   6.453  0.1203 -0.9621  1.2319
14032SOL     OW42905   3.693   6.138   2.109 -0.5605  0.0246  0.1174
14032SOL    HW142906   3.738   6.055   2.093 -0.0339  0.0200  1.4534
14032SOL    HW242907   3.628   6.144   2.040  1.0433 -0.2920 -1.4912
14033SOL     OW42908   6.774   5.629   4.880 -0.2667  0.6474 -0.3136
14033SOL    HW142909   6.864   5.621   4.850 -0.6680  2.0468 -2.0463
14033SOL    HW242910   6.765   5.722   4.902 -1.2565  0.5035 -0.0741
14034SOL     OW42911   4.982   6.629   4.633  0.1303 -0.1793 -0.4789
14034SOL    HW142912   4.975   6.584   4.717  1.5312 -1.1439 -0.8326
14034SOL    HW242913   4.912   6.592   4.580 -0.6888  0.3500  0.2113
14035SOL     OW42914   2.257   7.078   3.107  0.2974  0.0514  0.7938
14035SOL    HW142915   2.179   7.092   3.160 -1.1116 -0.2299 -1.0905
14035SOL    HW242916   2.291   7.166   3.089  1.4152  0.1136  2.9439
14036SOL     OW42917   5.550   6.856   1.036 -0.2346 -0.4157  0.3226
14036SOL    HW142918   5.559   6.948   1.060  0.6610 -0.5240  0.4579
14036SOL    HW242919   5.510   6.814   1.112 -0.0035 -0.2561  0.5344
14037SOL     OW42920   2.013   3.654   6.910  0.3322 -0.3543 -0.2606
14037SOL    HW142921   2.035   3.618   6.824  1.7368  0.2493 -0.1765
14037SOL    HW242922   1.917   3.656   6.911  0.2441  1.8246 -2.7539
14038SOL     OW42923   3.379   0.595   2.365  0.1167  0.1708  0.3703
14038SOL    HW142924   3.466   0.571   2.331  0.1804 -0.4486  0.9456
14038SOL    HW242925   3.388   0.587   2.460 -1.1357 -1.9381  0.3692
14039SOL     OW42926   2.565   6.157   0.565 -0.6124  0.1605 -0.2437
14039SOL    HW142927   2.564   6.096   0.492  1.4794  1.2892 -1.2916
14039SOL    HW242928   2.480   6.200   0.561 -0.1337  1.0207 -2.7797
14040SOL     OW42929   0.514   7.568   4.419 -0.0847  0.1698 -0.2311
14040SOL    HW142930   0.482   7.564   4.329 -0.1844 -0.5107 -0.1680
14040SOL    HW242931   0.609   7.557   4.412 -0.0538  0.4509 -0.2761
14041SOL     OW42932   7.810   6.297   2.613  0.2722  0.1481  0.6388
14041SOL    HW142933   7.837   6.276   2.523  3.2750  0.7825  1.2806
14041SOL    HW242934   7.820   6.392   2.619  0.3133  0.0843  1.7030
14042SOL     OW42935   6.165   0.212   0.873  0.9820 -0.1999  0.8841
14042SOL    HW142936   6.158   0.117   0.874 -3.0881 -0.0848  0.2753
14042SOL    HW242937   6.182   0.236   0.964  2.8960 -1.4621  0.9066
14043SOL     OW42938   3.956   7.077   3.196  0.1211  0.1472 -0.5177
14043SOL    HW142939   3.898   7.148   3.222 -0.3661  0.6963 -2.8701
14043SOL    HW242940   3.901   7.018   3.145  0.6603 -1.6580  0.8912
14044SOL     OW42941   1.260   7.953   2.730 -0.1224 -0.1169  0.3106
14044SOL    HW142942   1.273   7.939   2.824 -0.1029 -0.7240  0.2185
14044SOL    HW242943   1.334   8.009   2.704 -1.4983  2.2440  1.1493
14045SOL     OW42944   6.336   5.362   1.378  0.2972  0.5243  0.1534
14045SOL    HW142945   6.326   5.352   1.283 -1.0462  1.7521  0.1403
14045SOL    HW242946   6.415   5.312   1.399 -1.0880 -2.5088 -1.1365
14046SOL     OW42947   1.989   0.265   7.769  0.1535 -0.0072  0.1984
14046SOL    HW142948   2.014   0.313   7.690  0.8602  1.3171  1.1985
14046SOL    HW242949   2.049   0.190   7.770  1.2802  0.8639  0.3330
14047SOL     OW42950   2.293   0.263   3.059  0.6431 -0.0027  0.2825
14047SOL    HW142951   2.279   0.351   3.096 -1.4508 -0.5369  0.9431
14047SOL    HW242952   2.220   0.251   2.999  0.6828 -1.4324  0.4871
14048SOL     OW42953   2.934   3.915   6.347 -0.8246 -0.2754 -0.1915
14048SOL    HW142954   3.003   3.919   6.280 -0.1258 -2.1719  0.3483
14048SOL    HW242955   2.895   4.003   6.347  1.4578  0.8183 -0.6544
14049SOL     OW42956   3.098   5.706   1.172 -0.2944  0.0430  0.0645
14049SOL    HW142957   3.112   5.706   1.078  1.2926 -0.3822  0.2663
14049SOL    HW242958   3.072   5.617   1.193 -2.8595  0.6594 -0.2135
14050SOL     OW42959   5.600   0.577   5.939  0.1246 -0.3256  0.4067
14050SOL    HW142960   5.538   0.648   5.954  0.1996 -0.6271  2.4095
14050SOL    HW242961   5.565   0.529   5.864 -1.9863 -0.3854  1.3694
14051SOL     OW42962   3.760   0.379   1.722 -0.3939 -0.4125 -0.2153
14051SOL    HW142963   3.811   0.305   1.754 -0.3674 -0.3271 -0.0583
14051SOL    HW242964   3.825   0.445   1.698 -0.4220 -0.3897 -0.2299
14052SOL     OW42965   6.621   6.581   0.550  0.3725 -0.5070 -0.5316
14052SOL    HW142966   6.592   6.583   0.459  0.9134 -1.3671 -0.7367
14052SOL    HW242967   6.679   6.657   0.558 -0.8375  0.4295 -0.4867
14053SOL     OW42968   0.442   6.582   6.257  0.1109  0.1187  0.6350
14053SOL    HW142969   0.454   6.584   6.162 -2.3579 -1.1710  0.1958
14053SOL    HW242970   0.401   6.667   6.277 -0.3481 -0.0287  0.3498
14054SOL     OW42971   1.576   6.037   2.258 -0.1658 -0.4820 -0.2665
14054SOL    HW142972   1.583   6.098   2.185  0.6064 -0.2222  0.0093
14054SOL    HW242973   1.598   6.089   2.335 -0.4331 -0.8818  0.0876
14055SOL     OW42974   0.521   6.830   7.011 -0.6397  0.2479 -0.0515
14055SOL    HW142975   0.433   6.803   6.985 -0.5523 -0.6098  0.5109
14055SOL    HW242976   0.506   6.907   7.067 -0.9476  0.7944 -0.8643
14056SOL     OW42977   6.559   6.175   4.725  0.6819  0.0416 -0.1214
14056SOL    HW142978   6.519   6.185   4.811  0.0482  1.3967 -0.5490
14056SOL    HW242979   6.519   6.243   4.671 -0.4325 -2.0208 -2.0738
14057SOL     OW42980   5.140   0.908   7.975 -0.8096  0.1142 -0.1510
14057SOL    HW142981   5.084   0.929   8.050 -1.5823 -4.1696  0.7076
14057SOL    HW242982   5.090   0.939   7.899 -4.2132 -2.8343  0.6174
14058SOL     OW42983   7.691   6.054   5.991  0.2357  0.3760 -0.0433
14058SOL    HW142984   7.683   6.121   6.059  0.5468 -1.1847  1.5829
14058SOL    HW242985   7.756   5.993   6.024  1.6486  0.4038 -2.5093
14059SOL     OW42986   1.116   6.943   3.078  0.4857  0.3262  0.4566
14059SOL    HW142987   1.039   6.998   3.070  0.3903  0.0715 -0.5878
14059SOL    HW242988   1.153   6.940   2.989  0.5946 -1.1263  0.5218
14060SOL     OW42989   2.969   5.463   0.699  0.4174  0.5078  0.7871
14060SOL    HW142990   3.057   5.458   0.734  0.9104 -1.1105 -0.5469
14060SOL    HW242991   2.980   5.453   0.604 -1.2537 -0.7172  0.6781
14061SOL     OW42992   4.562   1.802   0.378  0.0658  0.4891 -0.0769
14061SOL    HW142993   4.643   1.852   0.372  1.8735 -2.3919 -2.8840
14061SOL    HW242994   4.585   1.725   0.430 -0.3986 -0.9249 -1.8339
14062SOL     OW42995   2.014   7.810   0.803  0.4129  0.5422 -0.3285
14062SOL    HW142996   2.036   7.815   0.710 -1.5459 -0.0622 -0.8856
14062SOL    HW242997   1.997   7.900   0.829 -1.8999  0.4955 -1.3930
14063SOL     OW42998   4.026   4.169   4.203  0.3145  0.0088 -0.4297
14063SOL    HW142999   4.078   4.172   4.123  0.8309 -0.7053 -0.1303
14063SOL    HW243000   4.053   4.247   4.251 -1.1148  1.2820 -1.6081
14064SOL     OW43001   7.108   5.230   6.635  0.2814  0.0936  0.2171
14064SOL    HW143002   7.036   5.258   6.579 -0.0483  0.8136  0.9689
14064SOL    HW243003   7.186   5.269   6.596 -0.1468  2.0577  1.1604
14065SOL     OW43004   1.164   1.291   7.609  0.2831 -0.3094 -0.2905
14065SOL    HW143005   1.140   1.300   7.516 -3.1705 -0.4525  0.4672
14065SOL    HW243006   1.144   1.377   7.647 -0.3064 -0.8552  0.6668
14066SOL     OW43007   5.890   0.158   0.156 -0.5980 -0.3543 -0.4303
14066SOL    HW143008   5.935   0.171   0.240 -0.3014  0.5481 -0.7216
14066SOL    HW243009   5.961   0.137   0.095 -0.7205 -0.1682 -0.6329
14067SOL     OW43010   2.485   0.471   6.712 -0.3764 -0.2380 -0.6087
14067SOL    HW143011   2.469   0.476   6.618 -0.4970  1.8330 -0.5325
14067SOL    HW243012   2.530   0.388   6.725 -0.8883 -0.8340 -2.4051
14068SOL     OW43013   7.107   4.942   7.464  0.0278 -0.3515  0.1614
14068SOL    HW143014   7.155   4.860   7.456  1.0750  0.2911 -0.2820
14068SOL    HW243015   7.021   4.923   7.426  0.8194 -0.7833 -1.4625
14069SOL     OW43016   4.792   6.957   0.389  0.0470  0.1223 -0.4821
14069SOL    HW143017   4.723   6.945   0.454 -1.4413  1.9162 -1.6096
14069SOL    HW243018   4.821   6.868   0.367 -0.7744 -0.5854  1.1838
14070SOL     OW43019   0.658   0.875   3.872  0.2269  0.0370  0.0890
14070SOL    HW143020   0.563   0.870   3.883  0.1385 -0.4666 -0.8064
14070SOL    HW243021   0.672   0.956   3.821  0.3508  0.5398  0.9085
14071SOL     OW43022   4.559   5.497   3.560  0.3840  0.1805 -0.0636
14071SOL    HW143023   4.538   5.557   3.632  1.1488 -0.5423  0.7765
14071SOL    HW243024   4.562   5.554   3.483  0.6909  1.1723  0.6524
14072SOL     OW43025   7.762   1.552   6.987  0.2696  0.1973 -0.0255
14072SOL    HW143026   7.728   1.625   6.935 -1.3429 -1.5529 -1.5707
14072SOL    HW243027   7.683   1.506   7.018  1.2206 -1.4961 -0.0035
14073SOL     OW43028   0.139   0.986   4.235  0.3435  0.0217 -0.1742
14073SOL    HW143029   0.175   1.060   4.186 -1.0986  0.7175 -0.2377
14073SOL    HW243030   0.106   0.927   4.168 -0.5734  0.4218 -0.0903
14074SOL     OW43031   6.589   7.172   0.247 -0.4499  0.4728  0.3092
14074SOL    HW143032   6.623   7.091   0.210 -0.7328  0.8986 -0.9510
14074SOL    HW243033   6.550   7.146   0.330 -0.7568 -0.7259 -0.1871
14075SOL     OW43034   6.934   1.350   6.280  0.1072 -0.5011  0.0082
14075SOL    HW143035   6.846   1.313   6.283  0.6652 -1.8002  0.7278
14075SOL    HW243036   6.970   1.319   6.197  0.6810 -1.8542  0.7468
14076SOL     OW43037   5.571   5.259   6.197 -0.3059  0.4938  0.8332
14076SOL    HW143038   5.518   5.318   6.145 -0.6302 -0.6322 -0.1749
14076SOL    HW243039   5.508   5.205   6.244 -0.0625 -0.2260  0.3545
14077SOL     OW43040   2.454   4.208   5.995 -0.3347  0.4825 -0.0897
14077SOL    HW143041   2.454   4.237   6.086  0.7261 -0.4974  0.2397
14077SOL    HW243042   2.365   4.176   5.980 -1.0864  2.4359 -0.0141
14078SOL     OW43043   7.872   7.849   1.135  0.4943  0.6209 -0.6121
14078SOL    HW143044   7.796   7.803   1.169  0.9856  0.5874  0.4863
14078SOL    HW243045   7.938   7.781   1.123  0.7185  0.8066 -0.4505
14079SOL     OW43046   7.275   2.078   3.791  0.5478 -0.4148 -0.0360
14079SOL    HW143047   7.246   2.002   3.741 -0.3012  1.0120 -1.8267
14079SOL    HW243048   7.194   2.124   3.814  1.0851  0.5035  0.0822
14080SOL     OW43049   3.926   0.588   1.601 -0.2596 -0.1059 -0.4322
14080SOL    HW143050   3.949   0.646   1.674 -0.8945  0.1285 -0.4164
14080SOL    HW243051   4.011   0.555   1.570 -0.0423 -1.5842  1.5154
14081SOL     OW43052   3.984   1.599   1.538 -0.3188 -0.3736 -0.8613
14081SOL    HW143053   4.056   1.554   1.582 -0.2856 -0.2440 -0.7824
14081SOL    HW243054   3.920   1.615   1.607  1.1915  2.9494 -0.0256
14082SOL     OW43055   2.457   4.254   2.651  0.2870  0.1756 -0.1652
14082SOL    HW143056   2.370   4.218   2.668 -0.1561  1.1889 -0.1861
14082SOL    HW243057   2.508   4.180   2.620  0.0055 -0.8797  1.7282
14083SOL     OW43058   7.594   4.188   1.248  0.2076 -0.2883  0.1838
14083SOL    HW143059   7.632   4.137   1.177  0.1472  0.0935 -0.1283
14083SOL    HW243060   7.499   4.173   1.241  0.2336 -0.6171  0.4757
14084SOL     OW43061   4.689   4.599   7.230  0.6591  0.4583 -0.4823
14084SOL    HW143062   4.689   4.688   7.264 -2.8811  0.3524  0.1297
14084SOL    HW243063   4.700   4.610   7.136  2.3866  1.3153 -0.2309
14085SOL     OW43064   2.845   7.039   4.990  0.1387  0.2014 -0.5019
14085SOL    HW143065   2.828   6.987   4.911  0.2995  1.2604 -1.2455
14085SOL    HW243066   2.905   7.108   4.961  0.1408  0.6483  0.5328
14086SOL     OW43067   3.857   4.675   1.124  0.1100  0.3420  0.1050
14086SOL    HW143068   3.774   4.673   1.078 -0.1539 -0.9443  0.5996
14086SOL    HW243069   3.923   4.684   1.055 -0.3772  0.3579 -0.3629
14087SOL     OW43070   3.570   2.423   3.960 -0.4197 -0.6120 -0.4721
14087SOL    HW143071   3.663   2.402   3.952 -0.3557 -0.6905  0.3738
14087SOL    HW243072   3.538   2.426   3.870  0.9964  2.2263 -0.9920
14088SOL     OW43073   3.635   3.964   3.433  0.2074 -0.4879  0.2877
14088SOL    HW143074   3.686   3.887   3.406  0.5934 -0.2843  0.4297
14088SOL    HW243075   3.590   3.991   3.353  1.8414  0.4906 -0.3691
14089SOL     OW43076   4.006   5.180   0.413 -0.3068  0.0119 -0.2748
14089SOL    HW143077   4.081   5.129   0.443  0.5497  1.2861 -0.1653
14089SOL    HW243078   4.042   5.239   0.347 -1.4419 -0.1383 -1.0570
14090SOL     OW43079   1.489   4.999   5.660 -0.2184  0.0849  0.0468
14090SOL    HW143080   1.564   4.940   5.661 -1.1059 -1.1035 -0.7559
14090SOL    HW243081   1.468   5.009   5.567 -0.9166  0.5791  0.2469
14091SOL     OW43082   6.295   1.176   6.555 -0.5581 -0.3700 -0.3168
14091SOL    HW143083   6.385   1.144   6.564  0.5500  2.3487 -0.9148
14091SOL    HW243084   6.280   1.226   6.634 -1.4293 -0.5044 -0.3951
14092SOL     OW43085   6.627   7.774   3.977  0.1676  0.3812  0.3494
14092SOL    HW143086   6.621   7.740   4.066 -1.9020 -2.1237 -0.6061
14092SOL    HW243087   6.551   7.832   3.968 -0.1696 -0.1132 -0.0394
14093SOL     OW43088   3.170   1.650   4.376  0.1477  0.0937 -0.3946
14093SOL    HW143089   3.088   1.669   4.331 -0.7536 -0.7005  0.8769
14093SOL    HW243090   3.184   1.724   4.435  0.9138  0.7384 -1.3457
14094SOL     OW43091   7.502   7.739   0.905 -0.0740  0.7172  0.2562
14094SOL    HW143092   7.451   7.809   0.944 -0.2660  1.0325 -0.5479
14094SOL    HW243093   7.464   7.659   0.940 -0.6782  0.9719  0.1960
14095SOL     OW43094   2.201   2.438   6.591 -0.1209  0.1715 -0.3453
14095SOL    HW143095   2.278   2.450   6.646 -0.4310  1.0942 -0.0836
14095SOL    HW243096   2.188   2.343   6.588  0.8295  0.0261 -0.1314
14096SOL     OW43097   3.303   7.379   6.221 -0.2062  0.1172 -0.2692
14096SOL    HW143098   3.304   7.370   6.316  0.8194 -0.5036 -0.3319
14096SOL    HW243099   3.211   7.368   6.197 -0.4287 -0.0063  0.6188
14097SOL     OW43100   0.245   3.108   1.774 -0.5293 -0.5616 -0.3938
14097SOL    HW143101   0.194   3.084   1.851 -1.0172 -0.5837 -0.7191
14097SOL    HW243102   0.316   3.044   1.771  2.2242  1.9743  2.5794
14098SOL     OW43103   4.662   4.177   2.134 -0.4119  0.0512  0.2997
14098SOL    HW143104   4.745   4.226   2.137 -0.9145  0.9134  0.5148
14098SOL    HW243105   4.686   4.088   2.160  0.3633  0.4081  0.8697
14099SOL     OW43106   1.446   5.330   6.827  0.4950 -0.0663 -0.4180
14099SOL    HW143107   1.459   5.287   6.911  1.0388  0.7743 -0.0616
14099SOL    HW243108   1.365   5.380   6.838  0.3239 -0.3128 -0.5475
14100SOL     OW43109   7.462   2.212   7.079 -0.5875 -0.2292 -0.3214
14100SOL    HW143110   7.440   2.250   7.163 -0.9022  0.0788 -0.5427
14100SOL    HW243111   7.379   2.178   7.045 -0.7213  0.8769 -1.1282
14101SOL     OW43112   6.613   5.420   2.223  0.4113 -0.1685  0.7963
14101SOL    HW143113   6.551   5.491   2.210 -0.9683 -1.4994 -0.1859
14101SOL    HW243114   6.568   5.358   2.280 -0.7585 -2.8335 -2.6621
14102SOL     OW43115   7.694   1.069   2.948  0.0792  0.1487 -0.6649
14102SOL    HW143116   7.746   1.009   3.001 -0.2733 -1.0640 -1.6425
14102SOL    HW243117   7.608   1.070   2.989 -0.3556 -1.2182 -1.4860
14103SOL     OW43118   3.880   6.800   2.683 -0.0346  0.1576 -0.4611
14103SOL    HW143119   3.844   6.884   2.710  0.3817  0.6530 -1.3861
14103SOL    HW243120   3.874   6.801   2.588  0.3222 -0.7045 -0.5017
14104SOL     OW43121   6.189   7.128   1.816  0.9113  0.4818  0.0796
14104SOL    HW143122   6.230   7.146   1.901 -0.0550  0.7129  0.5229
14104SOL    HW243123   6.124   7.198   1.806 -1.3921 -1.4147  0.7896
14105SOL     OW43124   6.994   4.026   1.788  0.3680  0.7591 -0.1883
14105SOL    HW143125   6.990   3.991   1.877  0.7494  1.4566  0.1120
14105SOL    HW243126   7.012   4.119   1.800  1.4398  0.6691 -1.0268
14106SOL     OW43127   3.834   3.003   0.146  0.0658  0.0169 -0.6098
14106SOL    HW143128   3.812   3.071   0.209 -0.6095 -0.0337 -0.7811
14106SOL    HW243129   3.756   2.995   0.091  0.9657  0.7094 -2.0467
14107SOL     OW43130   0.847   3.218   5.404  0.0583 -0.4828 -0.1477
14107SOL    HW143131   0.934   3.184   5.427 -0.3252 -2.0670 -0.8776
14107SOL    HW243132   0.864   3.306   5.369  1.0623  0.3613  2.2444
14108SOL     OW43133   6.386   2.224   5.981  0.0114  0.2194 -0.3996
14108SOL    HW143134   6.339   2.296   6.022  2.0966  1.3774  0.1354
14108SOL    HW243135   6.396   2.159   6.050  0.0308  0.3935 -0.2393
14109SOL     OW43136   1.936   3.404   0.244  0.0072  0.1460  0.2636
14109SOL    HW143137   2.031   3.396   0.237 -0.1401 -1.0537 -0.6717
14109SOL    HW243138   1.908   3.430   0.157 -0.4919  1.1006  0.6902
14110SOL     OW43139   7.714   5.434   0.772  0.3875 -0.0253 -0.3328
14110SOL    HW143140   7.639   5.484   0.805  1.2283  2.1463 -1.4855
14110SOL    HW243141   7.678   5.376   0.705 -0.4655 -0.1104  0.1938
14111SOL     OW43142   2.032   6.614   5.728 -0.4047 -0.2143 -0.3314
14111SOL    HW143143   1.945   6.644   5.701  0.2956  1.3595 -0.9840
14111SOL    HW243144   2.084   6.619   5.648  1.2618  2.7285  0.7817
14112SOL     OW43145   6.330   7.537   6.058 -0.3636 -0.1280  0.0146
14112SOL    HW143146   6.289   7.578   5.981  1.6740 -0.6986 -1.4764
14112SOL    HW243147   6.316   7.443   6.046 -0.0783 -0.2174  0.3498
14113SOL     OW43148   4.651   0.422   0.190  0.0648 -0.4074  0.1744
14113SOL    HW143149   4.739   0.405   0.155  0.2499  1.9274 -0.7067
14113SOL    HW243150   4.634   0.513   0.166 -1.7030 -0.1180  2.2627
14114SOL     OW43151   5.453   2.305   1.044  0.4591 -0.3647  0.0928
14114SOL    HW143152   5.540   2.341   1.026  0.5936 -0.4642  0.5203
14114SOL    HW243153   5.415   2.364   1.108 -0.9495  1.3262 -2.1477
14115SOL     OW43154   0.976   0.845   7.584 -1.2600 -0.0383 -0.2758
14115SOL    HW143155   1.031   0.907   7.631 -0.9190  0.2695 -1.0562
14115SOL    HW243156   0.892   0.849   7.629  0.0517 -2.6423  2.7612
14116SOL     OW43157   3.315   7.729   4.721  0.2406  0.0553  0.3484
14116SOL    HW143158   3.284   7.703   4.635 -2.0114  0.2205  1.0337
14116SOL    HW243159   3.389   7.672   4.739 -1.0893 -2.0434 -0.4832
14117SOL     OW43160   5.973   1.919   3.116  1.4230 -0.0043 -0.0237
14117SOL    HW143161   5.891   1.968   3.122  2.1223  1.2404 -0.3261
14117SOL    HW243162   6.025   1.966   3.051  1.0752 -2.7613 -2.5141
14118SOL     OW43163   5.423   4.150   3.803 -0.1680  0.7263  0.0052
14118SOL    HW143164   5.379   4.217   3.855  0.8428  0.0608  1.8268
14118SOL    HW243165   5.380   4.153   3.718 -0.2325  3.6123  0.0295
14119SOL     OW43166   7.984   7.471   4.298  0.5610 -0.3136 -0.3573
14119SOL    HW143167   8.066   7.482   4.346 -0.2148  0.2442  0.8906
14119SOL    HW243168   7.957   7.381   4.316  0.1150 -0.0133  0.5513
14120SOL     OW43169   3.508   6.477   1.438 -0.0364 -0.0464  0.4842
14120SOL    HW143170   3.507   6.529   1.357  0.9578 -1.9649 -0.8179
14120SOL    HW243171   3.596   6.440   1.442 -0.6769 -1.5387  1.4276
14121SOL     OW43172   2.280   0.370   7.671  0.1496 -0.3467  0.4050
14121SOL    HW143173   2.214   0.366   7.601  0.7536 -0.2211 -0.1822
14121SOL    HW243174   2.330   0.289   7.660  1.0096  0.2383 -0.0801
14122SOL     OW43175   0.836   1.318   1.593 -0.5267  0.3817  0.4164
14122SOL    HW143176   0.820   1.409   1.567 -0.0852  0.0128 -1.2782
14122SOL    HW243177   0.827   1.318   1.688  0.2652  2.3663  0.5361
14123SOL     OW43178   2.871   7.734   3.659 -0.3503  0.0788 -0.1916
14123SOL    HW143179   2.788   7.762   3.697  0.9407  0.4744  2.5883
14123SOL    HW243180   2.924   7.814   3.655  0.0966 -0.2530 -1.4193
14124SOL     OW43181   1.313   2.925   0.052 -0.6696 -0.7504 -0.0616
14124SOL    HW143182   1.334   2.832   0.045 -1.5283 -1.0827  1.3476
14124SOL    HW243183   1.270   2.946  -0.031 -1.2467 -1.8358 -0.0596
14125SOL     OW43184   2.374   7.872   2.629 -0.4266 -0.1827 -1.0051
14125SOL    HW143185   2.362   7.783   2.661 -0.1842 -0.3628 -1.4092
14125SOL    HW243186   2.348   7.927   2.702  1.1591 -0.5788 -0.0876
14126SOL     OW43187   0.178   7.804   5.772 -0.0951 -0.4075 -0.3463
14126SOL    HW143188   0.260   7.853   5.779 -0.2056 -0.2261 -0.3192
14126SOL    HW243189   0.170   7.757   5.855 -1.0519  1.1869  0.5133
14127SOL     OW43190   0.407   6.521   1.574 -0.3521 -0.1503  0.1619
14127SOL    HW143191   0.351   6.598   1.564 -1.4919 -0.9842 -0.2215
14127SOL    HW243192   0.345   6.448   1.582  0.6938 -1.1928 -0.8687
14128SOL     OW43193   2.140   5.149   6.041 -0.0509  0.1904  0.2008
14128SOL    HW143194   2.049   5.144   6.071 -0.1332  1.4824  0.1884
14128SOL    HW243195   2.138   5.208   5.966  1.0262  1.5926  1.2080
14129SOL     OW43196   7.141   7.114   7.666  0.2314 -0.1190  0.2129
14129SOL    HW143197   7.224   7.108   7.618 -0.0323 -1.3383 -0.1228
14129SOL    HW243198   7.131   7.028   7.707 -1.0749 -0.1300 -0.0921
14130SOL     OW43199   7.769   6.120   2.040 -0.3145 -0.3856 -0.2146
14130SOL    HW143200   7.847   6.130   2.094  0.8566  1.2901 -2.0793
14130SOL    HW243201   7.698   6.152   2.095  0.6767  0.4138  0.6569
14131SOL     OW43202   6.825   3.551   0.930 -0.2322  0.0812 -0.8233
14131SOL    HW143203   6.766   3.586   0.863 -1.1530 -0.1087 -0.1346
14131SOL    HW243204   6.849   3.628   0.982 -1.0405 -0.0559 -0.2311
14132SOL     OW43205   3.605   3.912   4.866 -0.2558  0.1923  0.4894
14132SOL    HW143206   3.685   3.913   4.918  0.3606 -1.2270 -0.3453
14132SOL    HW243207   3.534   3.911   4.930  0.4608 -0.5563  1.2910
14133SOL     OW43208   0.656   0.729   5.197 -0.0445  0.6617  0.0743
14133SOL    HW143209   0.735   0.765   5.239 -0.1213  1.2684 -0.2880
14133SOL    HW243210   0.688   0.656   5.144  0.1986  0.5617  0.3560
14134SOL     OW43211   1.865   6.596   0.286  0.4616 -0.0213 -0.1663
14134SOL    HW143212   1.949   6.567   0.252  0.7825  1.6963 -0.9379
14134SOL    HW243213   1.805   6.525   0.266  1.1736 -0.1445 -2.0475
14135SOL     OW43214   3.305   1.994   0.501  0.2709  0.4305 -0.6636
14135SOL    HW143215   3.220   2.018   0.466 -0.0914 -0.0818 -0.1466
14135SOL    HW243216   3.323   2.061   0.567  0.4267  0.7272 -1.0005
14136SOL     OW43217   1.148   0.267   4.511 -0.5502 -0.8534 -0.0436
14136SOL    HW143218   1.195   0.350   4.521 -1.1555 -0.6593  1.3824
14136SOL    HW243219   1.056   0.291   4.512 -0.7972 -1.6861  2.3019
14137SOL     OW43220   0.635   2.398   1.261 -0.2659  0.4180  0.1344
14137SOL    HW143221   0.592   2.417   1.178 -2.3588 -3.3039  0.1422
14137SOL    HW243222   0.723   2.370   1.235 -0.3160  0.9307 -0.6393
14138SOL     OW43223   7.833   7.035   1.864  0.0825 -0.0304  0.2727
14138SOL    HW143224   7.839   6.961   1.803 -1.7278  0.9517 -1.1921
14138SOL    HW243225   7.768   7.094   1.825 -1.2893  0.6150  3.2190
14139SOL     OW43226   7.738   4.360   2.838  0.2882 -0.0860  0.4874
14139SOL    HW143227   7.831   4.374   2.859  0.1832 -1.6969  2.2628
14139SOL    HW243228   7.696   4.443   2.861  0.9618 -0.1168  1.9770
14140SOL     OW43229   0.447   5.193   2.801 -0.0029 -0.2465 -0.0552
14140SOL    HW143230   0.467   5.286   2.808 -0.2441 -0.2957  1.8595
14140SOL    HW243231   0.432   5.164   2.891 -0.8787 -1.9386 -0.6817
14141SOL     OW43232   2.621   3.992   6.170  0.2055 -0.3273  0.0983
14141SOL    HW143233   2.584   4.070   6.212  0.2305 -1.5408  2.6212
14141SOL    HW243234   2.679   4.026   6.102  0.0826  1.8613  0.9954
14142SOL     OW43235   5.712   5.242   1.801  1.0908  0.5812 -0.4325
14142SOL    HW143236   5.663   5.197   1.870  1.2932  0.9061 -0.0699
14142SOL    HW243237   5.733   5.327   1.839  3.7159 -0.2691  0.2566
14143SOL     OW43238   1.255   7.867   7.429  0.5173 -0.0413 -0.6406
14143SOL    HW143239   1.343   7.891   7.458  0.2776 -0.1084  0.1746
14143SOL    HW243240   1.234   7.789   7.481  0.2307 -0.4199 -1.3060
14144SOL     OW43241   6.711   4.975   1.146 -0.3722  0.4995  0.7739
14144SOL    HW143242   6.760   5.057   1.146  2.1730 -0.9057  2.1882
14144SOL    HW243243   6.758   4.919   1.207 -1.9102 -2.1056 -0.2767
14145SOL     OW43244   7.681   6.336   6.048 -0.0699  0.2305 -0.3074
14145SOL    HW143245   7.657   6.405   5.986 -2.9175 -0.6635 -0.3625
14145SOL    HW243246   7.768   6.361   6.079 -0.1623  2.7621 -1.7801
14146SOL     OW43247   0.933   5.969   2.700  0.3936  0.3067  0.1773
14146SOL    HW143248   0.946   5.989   2.607 -2.1456 -0.8914 -0.5402
14146SOL    HW243249   1.020   5.945   2.732  1.1118 -0.6569 -2.2655
14147SOL     OW43250   6.126   2.205   5.350 -0.1979 -0.8584 -0.2398
14147SOL    HW143251   6.082   2.125   5.378  0.1754 -0.7016  0.8461
14147SOL    HW243252   6.216   2.178   5.332 -0.9862 -1.5151 -4.0209
14148SOL     OW43253   4.510   0.107   2.596  0.8224  0.0354 -0.6569
14148SOL    HW143254   4.513   0.119   2.690  1.3282  0.2073 -0.6926
14148SOL    HW243255   4.560   0.181   2.560  1.4503 -0.5504 -1.0144
14149SOL     OW43256   5.134   6.373   5.968  0.9753 -0.3816  0.3625
14149SOL    HW143257   5.137   6.358   5.873  0.4171 -0.7722  0.4024
14149SOL    HW243258   5.197   6.443   5.983  0.3016  0.4283 -0.4453
14150SOL     OW43259   2.097   3.790   2.839  0.2649  0.0075 -0.0200
14150SOL    HW143260   2.191   3.781   2.822  0.1331 -0.7847 -0.3557
14150SOL    HW243261   2.092   3.846   2.917  1.0115  0.1213 -0.0506
14151SOL     OW43262   7.956   3.411   4.769 -0.3710  0.6450  0.0266
14151SOL    HW143263   7.924   3.356   4.698  0.1205  0.4358 -0.0387
14151SOL    HW243264   8.016   3.354   4.818 -0.0230  1.0547  0.0830
14152SOL     OW43265   2.580   4.597   5.915 -0.4208 -0.0406 -0.3601
14152SOL    HW143266   2.612   4.677   5.957 -0.6946  0.0087 -0.2438
14152SOL    HW243267   2.659   4.546   5.898 -0.2296  0.3382 -0.6073
14153SOL     OW43268   2.306   5.270   7.902  0.1964  0.6027 -0.4853
14153SOL    HW143269   2.308   5.362   7.875  0.5740  0.8199  0.2591
14153SOL    HW243270   2.362   5.266   7.979  0.4950 -0.3374 -0.7407
14154SOL     OW43271   4.179   0.600   2.016 -0.0596 -0.3287 -0.2498
14154SOL    HW143272   4.267   0.599   2.054 -0.2404  0.7284  0.2404
14154SOL    HW243273   4.159   0.509   1.997  1.2076 -0.5653 -0.5233
14155SOL     OW43274   6.440   1.699   6.316 -0.4347 -0.2324 -0.3211
14155SOL    HW143275   6.358   1.708   6.269 -0.6808  1.0017  0.3176
14155SOL    HW243276   6.433   1.614   6.360 -1.7535  0.2368  0.4325
14156SOL     OW43277   1.421   3.861   2.441 -0.1649  0.2591  0.0404
14156SOL    HW143278   1.457   3.792   2.385 -0.8537 -0.1447  0.0840
14156SOL    HW243279   1.464   3.941   2.411  1.3870 -0.3146  0.6368
14157SOL     OW43280   7.194   1.801   5.531 -0.1298  0.0988 -0.3340
14157SOL    HW143281   7.188   1.890   5.566 -0.6959  0.1946 -0.6739
14157SOL    HW243282   7.282   1.798   5.491  0.0428  0.3790  0.0167
14158SOL     OW43283   6.587   1.038   4.312  0.7613  0.2146  0.5879
14158SOL    HW143284   6.539   1.051   4.394  0.0765 -0.4453  0.3120
14158SOL    HW243285   6.658   1.102   4.315  0.5134  0.4667  1.5148
14159SOL     OW43286   5.197   4.779   4.325 -0.4696  0.2056  0.4638
14159SOL    HW143287   5.244   4.798   4.244  0.7875  1.4350  1.4475
14159SOL    HW243288   5.217   4.687   4.343 -0.5021  0.0085 -0.4333
14160SOL     OW43289   1.100   5.496   3.079  0.2643  0.3934 -0.1985
14160SOL    HW143290   1.195   5.496   3.066  0.3527  1.3468  0.3072
14160SOL    HW243291   1.064   5.474   2.993  0.9397  0.2431 -0.4527
14161SOL     OW43292   5.351   6.515   0.955  0.3747 -0.4208  0.7184
14161SOL    HW143293   5.372   6.425   0.981 -1.5213 -1.0622  0.2043
14161SOL    HW243294   5.374   6.568   1.031  0.3541 -1.5175  1.5176
14162SOL     OW43295   4.854   4.434   5.003 -0.4064  0.3655  0.9830
14162SOL    HW143296   4.816   4.451   5.089 -0.6091  1.5267  0.6843
14162SOL    HW243297   4.809   4.355   4.972  0.5920 -0.8400  2.4590
14163SOL     OW43298   7.859   2.530   2.661  0.5449 -0.1361  0.2334
14163SOL    HW143299   7.897   2.579   2.734 -0.5028  0.2015  0.5574
14163SOL    HW243300   7.798   2.469   2.702 -0.5775  0.5328 -0.3947
14164SOL     OW43301   5.441   2.141   0.822  0.2035  0.1560 -0.3128
14164SOL    HW143302   5.466   2.053   0.851 -0.9443 -0.1106 -0.0979
14164SOL    HW243303   5.447   2.195   0.900  2.1845  0.5980 -0.6973
14165SOL     OW43304   2.823   3.971   7.556  0.5007  0.3498 -0.2159
14165SOL    HW143305   2.767   3.973   7.479 -0.6825 -0.5580  0.5931
14165SOL    HW243306   2.852   4.062   7.567 -3.3163  1.5911  1.1073
14166SOL     OW43307   0.712   3.795   7.257  0.3375 -0.1331  0.6635
14166SOL    HW143308   0.763   3.821   7.181 -0.6387  0.7840  0.2865
14166SOL    HW243309   0.756   3.718   7.291  0.1569 -1.2757 -1.5228
14167SOL     OW43310   1.371   4.206   2.211 -0.0519  0.1482  0.4370
14167SOL    HW143311   1.441   4.141   2.199 -0.4742 -0.7750  2.5693
14167SOL    HW243312   1.299   4.157   2.252 -0.8059  1.7269  1.1032
14168SOL     OW43313   7.828   6.353   1.682 -0.1228 -0.0865  0.4539
14168SOL    HW143314   7.860   6.410   1.611  0.2215  0.9838  1.4453
14168SOL    HW243315   7.899   6.291   1.695  1.6803  2.2333  2.5912
14169SOL     OW43316   3.243   2.452   1.500 -0.5689  0.3274 -0.3330
14169SOL    HW143317   3.281   2.374   1.541 -0.6876  0.4303 -0.0249
14169SOL    HW243318   3.158   2.463   1.543 -0.3200  0.9400  0.0210
14170SOL     OW43319   3.776   1.517   7.985  0.4157 -0.5188 -0.3332
14170SOL    HW143320   3.815   1.596   7.947 -1.0358  0.3808 -0.0549
14170SOL    HW243321   3.800   1.521   8.078 -1.9876  1.2138  0.3252
14171SOL     OW43322   3.013   1.911   1.366  0.2961 -0.0484 -0.1473
14171SOL    HW143323   3.043   1.925   1.276  0.3739  2.0498  0.1485
14171SOL    HW243324   3.033   1.993   1.411 -0.7291 -0.6545  1.5215
14172SOL     OW43325   6.239   2.430   3.768 -0.4550  0.5702 -0.6673
14172SOL    HW143326   6.146   2.417   3.756 -0.6595  2.3268 -1.3534
14172SOL    HW243327   6.274   2.443   3.680  0.1895  1.2556 -0.3312
14173SOL     OW43328   2.910   5.905   7.175  0.3089 -0.9476 -0.1065
14173SOL    HW143329   2.853   5.976   7.145  0.4255 -0.7418  0.1544
14173SOL    HW243330   2.987   5.949   7.210  0.9364 -1.2527 -1.0711
14174SOL     OW43331   0.901   4.319   1.204  0.5890 -0.2863  0.4473
14174SOL    HW143332   0.897   4.267   1.124  0.2694  1.3418 -0.6419
14174SOL    HW243333   0.812   4.318   1.238  0.3311  0.4342 -0.1802
14175SOL     OW43334   6.111   7.875   3.840 -0.0828 -0.0674 -0.0025
14175SOL    HW143335   6.163   7.796   3.854  0.7112  0.5072  0.3986
14175SOL    HW243336   6.023   7.843   3.822  0.3306 -1.0556 -0.3549
14176SOL     OW43337   7.088   4.483   6.463  0.1346  0.1660 -0.3278
14176SOL    HW143338   7.148   4.455   6.394  0.4693  0.2818 -0.0853
14176SOL    HW243339   7.032   4.549   6.422  0.0675 -0.0600 -0.5983
14177SOL     OW43340   6.407   2.596   0.791  0.1854  0.2982  0.1780
14177SOL    HW143341   6.375   2.513   0.755  0.0343  1.0725 -1.5648
14177SOL    HW243342   6.368   2.601   0.878  1.3002 -2.0812  0.8735
14178SOL     OW43343   5.748   6.622   6.678 -0.4534 -0.5014 -0.2188
14178SOL    HW143344   5.791   6.539   6.699  0.3860 -0.0849 -0.2191
14178SOL    HW243345   5.702   6.605   6.596 -0.7987 -1.1354  0.0978
14179SOL     OW43346   3.903   0.383   2.174 -0.7687  0.3554 -0.3518
14179SOL    HW143347   3.886   0.477   2.175  0.0598  0.5292  1.2032
14179SOL    HW243348   3.957   0.369   2.096  1.3650  1.6702  0.7579
14180SOL     OW43349   5.133   4.561   1.625 -1.0373 -0.3189  0.0184
14180SOL    HW143350   5.213   4.602   1.658 -0.2362 -0.5673 -1.4971
14180SOL    HW243351   5.109   4.496   1.691  1.4746 -2.0197 -0.6281
14181SOL     OW43352   4.244   4.907   5.455 -0.1330 -0.7047 -0.3540
14181SOL    HW143353   4.160   4.874   5.485 -0.0540 -0.4942  0.1140
14181SOL    HW243354   4.225   4.952   5.373 -0.6371  0.1465  0.2188
14182SOL     OW43355   3.140   2.804   1.711 -0.4953 -0.2992  0.0931
14182SOL    HW143356   3.125   2.713   1.736  0.8451 -0.6504 -0.3007
14182SOL    HW243357   3.166   2.800   1.619  1.2191  0.2826  0.5095
14183SOL     OW43358   5.644   3.235   5.499  0.0334 -0.6367  0.2817
14183SOL    HW143359   5.655   3.306   5.562  1.7909 -0.0109 -0.6421
14183SOL    HW243360   5.587   3.271   5.431 -0.9310 -0.9174  0.9317
14184SOL     OW43361   3.298   0.130   3.706 -0.2735 -0.0342 -0.6232
14184SOL    HW143362   3.274   0.166   3.792  3.6259 -0.1660  0.7013
14184SOL    HW243363   3.331   0.205   3.657  0.9566 -0.5290 -0.5873
14185SOL     OW43364   7.580   6.155   6.240  0.2235  0.6305 -0.2512
14185SOL    HW143365   7.536   6.180   6.322 -0.7902 -1.3261 -0.1183
14185SOL    HW243366   7.511   6.160   6.174 -0.2328 -2.1861 -0.1029
14186SOL     OW43367   1.371   6.623   2.085  0.4567  0.7311 -0.3319
14186SOL    HW143368   1.428   6.663   2.019  0.8556 -1.2547 -1.2752
14186SOL    HW243369   1.283   6.637   2.050  0.3467  3.0225  0.6855
14187SOL     OW43370   5.189   0.048   6.791  0.2772  0.1671  0.4854
14187SOL    HW143371   5.104   0.070   6.752  0.2555  2.6711  1.8034
14187SOL    HW243372   5.173  -0.037   6.834 -0.5412 -1.1201 -2.1202
14188SOL     OW43373   0.038   4.708   0.385 -0.4517  0.0462 -0.2197
14188SOL    HW143374  -0.041   4.659   0.410 -1.9437  2.8532  1.1222
14188SOL    HW243375   0.063   4.754   0.465  2.1163 -0.1312 -0.8519
14189SOL     OW43376   0.244   3.126   4.583  0.2310  0.4073 -0.1223
14189SOL    HW143377   0.164   3.172   4.556  0.8116  0.8467 -1.1425
14189SOL    HW243378   0.308   3.196   4.596  0.9227 -0.0533 -0.9819
14190SOL     OW43379   4.256   5.264   0.152 -0.0096  0.5596 -0.1630
14190SOL    HW143380   4.332   5.316   0.127  0.6421 -0.5815 -0.6462
14190SOL    HW243381   4.270   5.179   0.110 -1.4157  0.2324 -0.0343
14191SOL     OW43382   1.677   7.164   1.405 -0.0840 -0.1697  0.3023
14191SOL    HW143383   1.628   7.163   1.487  1.1194  0.6582  1.0765
14191SOL    HW243384   1.687   7.071   1.382 -2.3359 -0.3543 -0.1343
14192SOL     OW43385   6.837   3.903   5.322  0.0366 -0.1205 -0.1352
14192SOL    HW143386   6.895   3.975   5.300  1.5252 -1.8858 -2.5502
14192SOL    HW243387   6.779   3.895   5.246 -0.2053 -1.3317  0.1548
14193SOL     OW43388   0.506   6.763   0.184 -0.2311 -0.0694 -0.2336
14193SOL    HW143389   0.557   6.712   0.121  0.7162 -0.3686  0.7607
14193SOL    HW243390   0.449   6.699   0.226 -0.5788  0.0658 -0.4918
14194SOL     OW43391   1.683   0.074   7.343  0.6653  0.0477  0.2690
14194SOL    HW143392   1.674   0.165   7.314 -0.1924 -0.1475 -0.1101
14194SOL    HW243393   1.716   0.080   7.433  1.7776  0.6960 -0.1676
14195SOL     OW43394   7.123   0.693   3.507 -0.4784  0.6734  0.8325
14195SOL    HW143395   7.166   0.624   3.559  0.1594  0.6069  0.2328
14195SOL    HW243396   7.109   0.652   3.422 -0.9212  1.0021  0.7456
14196SOL     OW43397   0.528   3.500   0.032 -0.7508  0.5103  0.7006
14196SOL    HW143398   0.566   3.525  -0.052 -0.2203 -0.3786  0.6515
14196SOL    HW243399   0.595   3.444   0.073 -1.2678  0.3934  1.4211
14197SOL     OW43400   3.263   7.043   3.719  0.4134  0.4758 -0.1260
14197SOL    HW143401   3.252   7.136   3.704 -2.1494 -0.0015 -1.8830
14197SOL    HW243402   3.230   7.028   3.808  1.7918  1.3196  0.5617
14198SOL     OW43403   0.332   0.950   7.579  0.3247 -0.2841 -0.1275
14198SOL    HW143404   0.273   1.024   7.566 -1.2477 -0.9901  2.4384
14198SOL    HW243405   0.361   0.927   7.490 -1.5024  1.4878 -1.2608
14199SOL     OW43406   1.089   1.036   4.423  0.2389  0.5911  0.3772
14199SOL    HW143407   1.100   0.968   4.490 -1.2578  0.3312  0.3958
14199SOL    HW243408   1.000   1.067   4.435 -0.6581 -0.5406 -2.4484
14200SOL     OW43409   3.323   2.199   0.711  0.7233 -0.0614  0.3623
14200SOL    HW143410   3.347   2.287   0.681  1.0825 -0.5800 -0.9452
14200SOL    HW243411   3.391   2.176   0.774 -0.8503  1.6332  2.8339
14201SOL     OW43412   2.129   4.009   5.335  0.0926 -0.9059 -0.5726
14201SOL    HW143413   2.156   4.092   5.297  0.5557 -0.9545 -0.3523
14201SOL    HW243414   2.165   4.009   5.424  0.8322 -1.7033 -0.8555
14202SOL     OW43415   6.181   3.221   4.712 -0.1621  0.3254 -0.3440
14202SOL    HW143416   6.179   3.125   4.721  0.1759  0.2513 -1.0193
14202SOL    HW243417   6.194   3.236   4.619 -0.0585  1.0360 -0.2184
14203SOL     OW43418   3.931   3.412   1.531 -0.4460 -0.4229  0.4222
14203SOL    HW143419   3.854   3.468   1.538 -0.2986 -0.2488  0.6696
14203SOL    HW243420   3.949   3.384   1.620  0.3645  0.3456  0.5116
14204SOL     OW43421   5.964   1.261   3.983 -0.4527 -0.5326  0.3554
14204SOL    HW143422   6.038   1.229   3.931 -0.2969  0.2055  0.1220
14204SOL    HW243423   5.995   1.257   4.074 -0.5634 -1.3799  0.3683
14205SOL     OW43424   1.296   7.579   2.650 -0.3201  0.4838 -0.1361
14205SOL    HW143425   1.300   7.674   2.645 -1.6213  0.4849 -2.5892
14205SOL    HW243426   1.252   7.552   2.569 -1.7551 -2.0955  1.3630
14206SOL     OW43427   0.336   3.974   4.194 -0.0596  0.0951  0.2748
14206SOL    HW143428   0.330   3.956   4.100  0.8292 -0.1125  0.2399
14206SOL    HW243429   0.431   3.975   4.211 -0.2054 -1.7633  1.5172
14207SOL     OW43430   1.787   3.871   3.379 -0.3212 -0.0838 -0.1048
14207SOL    HW143431   1.747   3.945   3.334  0.3665 -1.1223 -2.6293
14207SOL    HW243432   1.718   3.837   3.436 -1.6132  0.6927 -1.1591
14208SOL     OW43433   2.591   1.207   6.042  0.1455  0.3045 -0.0474
14208SOL    HW143434   2.570   1.128   6.091  0.3930  0.2608 -0.0094
14208SOL    HW243435   2.670   1.241   6.085  0.8803 -0.2053 -0.9720
14209SOL     OW43436   3.686   1.564   0.921  0.2851  0.1266 -0.2108
14209SOL    HW143437   3.712   1.636   0.864  1.4332 -1.0973 -1.3037
14209SOL    HW243438   3.623   1.513   0.869 -0.9522  0.6108  0.7603
14210SOL     OW43439   5.154   3.058   1.557  0.0240 -0.3965  0.0118
14210SOL    HW143440   5.235   3.006   1.555 -0.4800 -1.2165  0.3219
14210SOL    HW243441   5.183   3.148   1.563  0.9153 -0.7136  0.5732
14211SOL     OW43442   6.947   6.831   4.126 -0.8050  0.1761  0.2806
14211SOL    HW143443   6.957   6.911   4.075  1.7030  0.3911  0.9484
14211SOL    HW243444   6.942   6.761   4.060  2.4313  0.4384 -0.4176
14212SOL     OW43445   6.678   1.050   0.914  0.4633 -0.1181  0.1358
14212SOL    HW143446   6.589   1.085   0.918  1.1630  1.7558  0.5138
14212SOL    HW243447   6.717   1.093   0.838  1.3699 -0.0285  0.6314
14213SOL     OW43448   6.868   5.410   1.576 -0.1047 -0.3123 -0.6042
14213SOL    HW143449   6.808   5.336   1.569 -2.0047  1.1819 -0.9814
14213SOL    HW243450   6.827   5.468   1.641  1.4194  0.3400 -0.1705
14214SOL     OW43451   3.579   6.098   1.222  0.5521 -0.0365  0.3822
14214SOL    HW143452   3.649   6.066   1.164 -1.3173 -2.8512 -0.5610
14214SOL    HW243453   3.614   6.086   1.310  1.7405 -0.1354 -0.0794
14215SOL     OW43454   4.234   6.419   3.683  0.4376 -0.6519 -0.0837
14215SOL    HW143455   4.189   6.448   3.604  0.0017  0.8453  0.6822
14215SOL    HW243456   4.252   6.499   3.732  4.7184 -0.9982 -0.7087
14216SOL     OW43457   5.874   3.270   7.527  0.0695 -0.0942  0.0822
14216SOL    HW143458   5.884   3.218   7.447  0.1743 -1.4644  0.9428
14216SOL    HW243459   5.963   3.284   7.558  0.1467  1.8810 -0.8781
14217SOL     OW43460   6.802   1.533   7.860 -0.3625 -0.4477 -0.0597
14217SOL    HW143461   6.790   1.475   7.936  0.1492 -0.2100  0.2068
14217SOL    HW243462   6.719   1.581   7.854 -0.9786 -1.5262 -0.5719
14218SOL     OW43463   4.297   2.550   4.310  0.3023  0.6353 -0.2069
14218SOL    HW143464   4.202   2.559   4.308  0.1587 -0.1808  1.2541
14218SOL    HW243465   4.316   2.516   4.398  1.8163 -0.5220 -0.9223
14219SOL     OW43466   2.842   1.477   3.548  0.1612  0.0126  0.5306
14219SOL    HW143467   2.861   1.567   3.521  0.1360 -0.4656 -1.1751
14219SOL    HW243468   2.914   1.425   3.512  0.0061 -0.7057  1.2236
14220SOL     OW43469   4.901   2.359   6.516  0.4340  0.1412 -0.3725
14220SOL    HW143470   4.975   2.331   6.570  0.4960 -2.9668 -1.8923
14220SOL    HW243471   4.842   2.284   6.514 -1.1332  1.3114 -2.0419
14221SOL     OW43472   3.773   3.491   0.318  0.3299 -0.4198  0.0049
14221SOL    HW143473   3.774   3.493   0.414  1.0190 -1.4546  0.0366
14221SOL    HW243474   3.702   3.550   0.294  0.9201  0.8002  1.1118
14222SOL     OW43475   1.324   2.655   0.071 -0.2316 -0.1846 -0.1118
14222SOL    HW143476   1.372   2.618   0.145 -0.8486  0.4662  0.6312
14222SOL    HW243477   1.349   2.601  -0.003  0.2882 -0.9441  0.6007
14223SOL     OW43478   4.242   3.300   7.157 -0.6100  0.1040  0.2148
14223SOL    HW143479   4.159   3.255   7.143 -0.7187  0.6985 -1.3404
14223SOL    HW243480   4.274   3.267   7.241 -1.4740 -1.5934 -0.0750
14224SOL     OW43481   6.515   4.373   0.277 -0.7529 -0.8461  0.3057
14224SOL    HW143482   6.437   4.398   0.227 -0.6346 -0.5707  0.2524
14224SOL    HW243483   6.514   4.277   0.278 -1.1990 -0.8403  0.4768
14225SOL     OW43484   7.292   1.983   7.325  0.0625 -0.1319 -0.3656
14225SOL    HW143485   7.387   1.980   7.315  0.1752  1.1155  0.1265
14225SOL    HW243486   7.274   2.074   7.349 -1.0645 -0.7552  1.3328
14226SOL     OW43487   3.338   2.590   7.971  0.4586  0.1882  0.2882
14226SOL    HW143488   3.337   2.502   7.932 -0.5433  0.0020  0.6751
14226SOL    HW243489   3.421   2.628   7.944  0.6259 -0.6453 -0.4230
14227SOL     OW43490   6.307   7.620   4.366 -0.2513  0.1650  0.5305
14227SOL    HW143491   6.215   7.593   4.370 -0.5533  1.0552 -0.1459
14227SOL    HW243492   6.307   7.709   4.401 -0.2742  1.6010 -2.7882
14228SOL     OW43493   5.029   6.227   2.910  0.1262  0.0671  0.2903
14228SOL    HW143494   5.103   6.284   2.925  0.5479 -0.6475  1.0064
14228SOL    HW243495   4.953   6.285   2.912  0.7168  0.9651 -1.4947
14229SOL     OW43496   2.137   6.735   0.408  0.0234  0.0367 -0.0789
14229SOL    HW143497   2.146   6.816   0.458  1.9460  0.5543 -1.1424
14229SOL    HW243498   2.046   6.734   0.379 -0.1981  1.4960  0.4906
14230SOL     OW43499   0.171   0.690   2.741 -0.6284 -0.7119 -0.1634
14230SOL    HW143500   0.132   0.613   2.781  0.2074 -1.9044 -1.5696
14230SOL    HW243501   0.126   0.699   2.657 -0.9540  0.5462  0.1249
14231SOL     OW43502   0.361   1.812   5.493 -0.1829  0.2387 -0.7051
14231SOL    HW143503   0.366   1.717   5.504  1.4711  0.2305 -1.3412
14231SOL    HW243504   0.439   1.835   5.442  0.3872  2.1441  0.9051
14232SOL     OW43505   7.325   3.394   3.135  0.0713  0.1267  0.0296
14232SOL    HW143506   7.241   3.426   3.104  0.1226 -0.1160 -0.3684
14232SOL    HW243507   7.304   3.313   3.182  0.3127 -1.2880 -2.1727
14233SOL     OW43508   0.857   0.721   3.086 -0.1988 -0.2922 -0.4591
14233SOL    HW143509   0.872   0.627   3.093 -1.1709 -0.5516 -1.6206
14233SOL    HW243510   0.939   0.756   3.053 -0.0924 -0.8403 -0.7898
14234SOL     OW43511   0.757   5.030   3.620 -0.1286  0.2554 -0.8230
14234SOL    HW143512   0.694   5.081   3.671 -0.8292 -0.9265 -0.4640
14234SOL    HW243513   0.820   4.998   3.685  0.1526  0.4509 -1.0012
14235SOL     OW43514   1.245   3.529   4.724 -0.3610  0.0466  0.0811
14235SOL    HW143515   1.313   3.473   4.687 -0.1867 -0.6058  1.3666
14235SOL    HW243516   1.163   3.482   4.706 -0.3790  0.2652 -0.4294
14236SOL     OW43517   1.771   7.389   3.942 -0.0617 -0.2222  0.5625
14236SOL    HW143518   1.830   7.379   4.017 -0.1335 -0.3635  0.6006
14236SOL    HW243519   1.746   7.300   3.919  1.7969 -0.3563 -1.1319
14237SOL     OW43520   2.374   1.392   6.610 -0.4459  0.3381  0.0555
14237SOL    HW143521   2.371   1.297   6.601  0.3340  0.1518  1.4049
14237SOL    HW243522   2.312   1.425   6.545  1.4155 -0.9294 -2.5526
14238SOL     OW43523   5.094   7.353   3.663 -0.1345 -0.1183  0.6646
14238SOL    HW143524   5.028   7.306   3.715  0.3788 -0.0626  1.3851
14238SOL    HW243525   5.070   7.336   3.572 -1.0931 -0.1677  0.9145
14239SOL     OW43526   1.201   1.841   1.275 -0.6139  0.2399 -0.2588
14239SOL    HW143527   1.155   1.849   1.359 -0.3029  0.6396 -0.1272
14239SOL    HW243528   1.274   1.783   1.293 -0.7791 -0.0013 -0.3533
14240SOL     OW43529   4.525   0.303   5.018  0.4621 -0.2303  0.9555
14240SOL    HW143530   4.491   0.214   5.033 -0.0789  0.0363  1.3622
14240SOL    HW243531   4.497   0.352   5.095  0.5650  0.3527  0.6250
14241SOL     OW43532   3.008   1.433   2.798  0.7459 -0.0197  0.2584
14241SOL    HW143533   2.986   1.524   2.820  0.5185  0.7243 -2.5743
14241SOL    HW243534   3.088   1.415   2.847 -0.2209  1.0154  2.3519
14242SOL     OW43535   7.190   4.161   0.314  0.6153  0.1894  0.1726
14242SOL    HW143536   7.277   4.124   0.323  0.2528 -0.5679  0.7193
14242SOL    HW243537   7.169   4.196   0.401  0.4950  0.6460 -0.0346
14243SOL     OW43538   1.816   2.604   3.990 -0.0776  0.5120 -0.5048
14243SOL    HW143539   1.830   2.595   4.084 -0.0181  1.4063 -0.4154
14243SOL    HW243540   1.887   2.555   3.950  0.4627  0.9272 -0.0735
14244SOL     OW43541   7.778   1.376   3.030  0.0811  0.1120 -0.4478
14244SOL    HW143542   7.869   1.386   3.059 -0.3128 -0.0891  0.9513
14244SOL    HW243543   7.771   1.284   3.004 -0.3867 -0.6747  2.1413
14245SOL     OW43544   7.270   5.553   3.121  0.1155  0.2585  0.3776
14245SOL    HW143545   7.309   5.639   3.142 -0.0356  0.9715 -1.9678
14245SOL    HW243546   7.324   5.520   3.050 -0.3139 -1.2759  0.7386
14246SOL     OW43547   2.703   2.906   7.710  0.4024  0.0543 -0.0927
14246SOL    HW143548   2.665   2.981   7.756  1.5862  0.2537  0.6055
14246SOL    HW243549   2.797   2.914   7.724  0.6622 -0.7989 -1.1924
14247SOL     OW43550   1.289   5.910   7.883 -0.1173  0.2980 -0.0748
14247SOL    HW143551   1.300   5.815   7.891  0.7909  0.3033 -1.0379
14247SOL    HW243552   1.248   5.936   7.966 -0.1942 -0.8981  0.2892
14248SOL     OW43553   4.409   7.857   0.549  0.3536 -0.4884 -0.2275
14248SOL    HW143554   4.400   7.805   0.470  1.5414 -1.7343  0.4169
14248SOL    HW243555   4.323   7.896   0.562  0.4216  0.6923 -2.7348
14249SOL     OW43556   7.828   7.856   2.511 -0.2906 -0.1460 -0.6096
14249SOL    HW143557   7.801   7.844   2.420 -0.5980 -2.2497 -0.2808
14249SOL    HW243558   7.912   7.810   2.518 -1.0550 -1.4437  0.5238
14250SOL     OW43559   4.094   2.048   7.161  0.0584 -0.2450  0.1385
14250SOL    HW143560   4.032   2.016   7.227  0.7597 -0.3659  0.7425
14250SOL    HW243561   4.138   1.970   7.129 -0.9311 -0.2974 -1.1637
14251SOL     OW43562   4.398   2.090   1.487 -0.1656  0.1761  0.1364
14251SOL    HW143563   4.337   2.016   1.495 -0.5473 -0.1003 -3.5950
14251SOL    HW243564   4.384   2.122   1.398  1.2664  3.6748  1.0267
14252SOL     OW43565   1.501   5.448   5.650 -0.0507 -0.2545  0.2563
14252SOL    HW143566   1.524   5.519   5.591 -0.8795  0.5175  0.8357
14252SOL    HW243567   1.413   5.421   5.621 -0.5364  0.2486  1.2395
14253SOL     OW43568   4.787   3.573   0.717 -0.5716  0.4109 -0.0280
14253SOL    HW143569   4.769   3.577   0.811 -0.1076 -0.8220  0.1248
14253SOL    HW243570   4.878   3.603   0.709  0.3162 -2.0148  0.2563
14254SOL     OW43571   0.792   2.398   7.905 -0.0513  0.1722  0.0548
14254SOL    HW143572   0.718   2.377   7.962 -1.7778  1.3687 -1.5590
14254SOL    HW243573   0.847   2.321   7.906 -1.3082 -0.7563  1.4014
14255SOL     OW43574   2.812   2.745   3.868  0.6662  0.5734 -0.2980
14255SOL    HW143575   2.819   2.784   3.955 -1.7041 -1.7501  1.0990
14255SOL    HW243576   2.738   2.789   3.828  1.5641  1.4252 -1.0526
14256SOL     OW43577   2.761   5.282   0.011 -0.5494 -0.1541  0.5295
14256SOL    HW143578   2.767   5.223  -0.064 -4.1364 -0.6827  0.4721
14256SOL    HW243579   2.789   5.367  -0.022  0.8072 -0.9690 -0.5154
14257SOL     OW43580   6.128   4.119   4.444  0.0781  0.1683  0.0043
14257SOL    HW143581   6.070   4.082   4.377  0.7151 -1.3000  0.2334
14257SOL    HW243582   6.075   4.189   4.485 -1.2996 -0.6961 -0.2274
14258SOL     OW43583   3.011   5.348   6.721  0.2223  0.0766 -0.6302
14258SOL    HW143584   3.003   5.395   6.804  0.1041 -0.9862 -0.0354
14258SOL    HW243585   3.103   5.358   6.697  0.9547 -1.9079  1.0421
14259SOL     OW43586   5.751   6.781   2.380 -0.2881  0.0013 -0.6178
14259SOL    HW143587   5.709   6.712   2.431  1.2431 -1.5570 -1.3566
14259SOL    HW243588   5.802   6.832   2.444  1.9701 -2.1966 -0.5220
14260SOL     OW43589   6.367   2.261   7.796 -0.4728 -0.3140  0.4617
14260SOL    HW143590   6.402   2.201   7.730 -0.6716  1.5748 -1.4616
14260SOL    HW243591   6.281   2.225   7.817  0.2001 -1.7603  0.8371
14261SOL     OW43592   6.619   1.628   0.607  0.0060 -0.0859 -0.3504
14261SOL    HW143593   6.571   1.711   0.607  0.7302  0.3409 -0.5525
14261SOL    HW243594   6.631   1.607   0.699 -1.0972 -0.5068 -0.2989
14262SOL     OW43595   3.906   5.869   1.243 -0.2899 -0.3322  0.0671
14262SOL    HW143596   3.817   5.852   1.213  0.0460 -0.0120 -1.1577
14262SOL    HW243597   3.915   5.964   1.241 -0.4464 -0.2490  1.8131
14263SOL     OW43598   6.468   2.742   5.681 -0.3155 -0.0412  0.1761
14263SOL    HW143599   6.509   2.711   5.762  2.5249  0.2939 -1.0070
14263SOL    HW243600   6.489   2.835   5.678 -0.3103 -0.0704 -0.9805
14264SOL     OW43601   0.230   6.682   3.840  0.0174  0.4146  0.1486
14264SOL    HW143602   0.226   6.649   3.750  1.3675 -1.4994  0.7340
14264SOL    HW243603   0.276   6.766   3.833  0.3748  0.1453 -0.9133
14265SOL     OW43604   6.970   4.443   1.479 -0.1081 -0.0907  0.2033
14265SOL    HW143605   6.966   4.516   1.540 -1.6304  0.2961 -0.3298
14265SOL    HW243606   7.042   4.465   1.420 -0.1746  0.6793  0.4013
14266SOL     OW43607   6.444   4.797   6.696 -0.1072  0.1867  0.4932
14266SOL    HW143608   6.405   4.777   6.611 -0.5678  0.3043  0.6776
14266SOL    HW243609   6.535   4.769   6.687 -0.5096 -1.1743  0.4469
14267SOL     OW43610   4.814   4.424   7.472 -0.0942 -0.0713  0.1839
14267SOL    HW143611   4.801   4.399   7.380  1.9256 -0.9467  0.0721
14267SOL    HW243612   4.800   4.342   7.520 -0.0054  0.1194  0.5322
14268SOL     OW43613   4.463   6.609   6.566  0.6347 -1.0261  0.2273
14268SOL    HW143614   4.406   6.652   6.629  1.7383  0.5192  0.2315
14268SOL    HW243615   4.545   6.595   6.614  1.0027 -1.1353 -0.4245
14269SOL     OW43616   2.074   5.396   2.969 -0.7768  0.4407 -0.1908
14269SOL    HW143617   2.002   5.363   3.022  0.1959 -1.5703 -0.0108
14269SOL    HW243618   2.136   5.433   3.032 -0.1975 -0.8131  0.0168
14270SOL     OW43619   1.511   0.103   7.754 -0.0612 -0.4127  0.0786
14270SOL    HW143620   1.499   0.015   7.719 -0.1425 -0.8949  1.2714
14270SOL    HW243621   1.567   0.091   7.830  0.6003  0.6806 -0.2107
14271SOL     OW43622   4.264   0.931   7.537  0.0960  0.2254  0.6786
14271SOL    HW143623   4.243   0.888   7.620  0.5543 -2.1638 -0.3655
14271SOL    HW243624   4.358   0.949   7.542 -0.1610  1.5457  1.2619
14272SOL     OW43625   1.898   2.556   3.501  0.0952 -0.2821 -0.1742
14272SOL    HW143626   1.966   2.572   3.567  0.0515 -2.9257  0.6195
14272SOL    HW243627   1.854   2.640   3.491  1.3844  0.6883  1.7190
14273SOL     OW43628   6.429   7.738   4.812  0.7682  0.0704 -0.1960
14273SOL    HW143629   6.369   7.695   4.872  1.8782 -0.0941  0.8326
14273SOL    HW243630   6.443   7.674   4.742 -0.8929  0.4423 -0.9110
14274SOL     OW43631   6.650   1.406   1.581 -0.2119  0.0178 -0.0646
14274SOL    HW143632   6.622   1.453   1.660  0.4422 -0.7249  0.6312
14274SOL    HW243633   6.740   1.379   1.601  0.4879  1.0293 -1.6217
14275SOL     OW43634   2.603   0.389   0.764 -0.3917 -0.1380 -0.8184
14275SOL    HW143635   2.696   0.368   0.754 -0.4950 -0.5079 -1.0485
14275SOL    HW243636   2.558   0.319   0.716 -0.8184 -0.4365  0.0107
14276SOL     OW43637   2.137   2.621   3.621  0.4010  0.0272  0.4175
14276SOL    HW143638   2.194   2.639   3.546  1.2451  0.4602  1.1426
14276SOL    HW243639   2.119   2.707   3.658 -1.3708 -0.0176 -0.2223
14277SOL     OW43640   1.302   7.026   7.292 -0.6102  0.2741  0.0013
14277SOL    HW143641   1.276   7.095   7.231 -0.1276 -0.1983 -0.7501
14277SOL    HW243642   1.327   7.073   7.372  0.7478  1.0786 -0.8595
14278SOL     OW43643   5.502   0.473   1.683 -0.6062 -0.2564 -0.3304
14278SOL    HW143644   5.434   0.407   1.693 -1.1659 -0.0301 -2.2197
14278SOL    HW243645   5.579   0.424   1.654 -0.5830 -0.2476 -0.2850
14279SOL     OW43646   4.052   1.740   2.047  0.7034  0.7567 -0.2185
14279SOL    HW143647   4.025   1.745   1.955  1.6888 -2.3207 -0.8033
14279SOL    HW243648   3.972   1.715   2.094  0.5693  0.5748 -0.5396
14280SOL     OW43649   3.763   4.796   5.217  0.1708  0.2599  0.1218
14280SOL    HW143650   3.761   4.863   5.286 -1.0239  0.6157 -0.2343
14280SOL    HW243651   3.819   4.834   5.149  0.1860  0.5291  0.2811
14281SOL     OW43652   2.331   1.723   2.843 -0.3253  0.4380  0.2087
14281SOL    HW143653   2.241   1.712   2.874 -0.2640 -2.4143 -0.3543
14281SOL    HW243654   2.337   1.667   2.765  2.1805 -0.2846  0.8270
14282SOL     OW43655   3.257   5.350   5.138  0.0317 -0.3443  0.2028
14282SOL    HW143656   3.343   5.326   5.102 -0.2983 -2.5495  0.7021
14282SOL    HW243657   3.208   5.383   5.063  1.5025  1.7092  0.0486
14283SOL     OW43658   5.517   1.865   6.558 -0.5944  0.3243 -0.6994
14283SOL    HW143659   5.427   1.839   6.537 -0.4079 -0.0496 -1.0599
14283SOL    HW243660   5.510   1.914   6.640 -1.1304  0.3269 -0.7439
14284SOL     OW43661   1.804   7.084   6.292 -0.6755  0.1086 -0.1915
14284SOL    HW143662   1.752   7.164   6.282 -2.0773 -0.5450  1.2542
14284SOL    HW243663   1.860   7.101   6.368 -0.0623  0.1564 -0.6481
14285SOL     OW43664   0.676   2.694   5.716  0.1385 -0.5403  0.2245
14285SOL    HW143665   0.719   2.713   5.799 -0.8478 -0.6059  0.7583
14285SOL    HW243666   0.730   2.626   5.676  0.0138 -1.2868  1.3028
14286SOL     OW43667   7.924   1.297   4.192 -0.1294  0.3125  0.0157
14286SOL    HW143668   7.965   1.230   4.246  1.1473  0.2483 -0.9703
14286SOL    HW243669   7.864   1.343   4.251 -0.4081 -1.1415  0.9121
14287SOL     OW43670   4.460   0.087   1.972  0.1909 -0.4900 -0.3261
14287SOL    HW143671   4.429   0.155   1.912 -0.6492 -1.3629 -0.8852
14287SOL    HW243672   4.473   0.010   1.918 -2.0114 -1.7427  0.8032
14288SOL     OW43673   7.576   5.541   3.770  0.2798  0.4895  0.0745
14288SOL    HW143674   7.491   5.583   3.761 -0.4240 -0.9895 -0.4513
14288SOL    HW243675   7.558   5.460   3.817  1.3311 -0.0266 -0.3731
14289SOL     OW43676   5.301   0.925   1.714 -0.3187 -0.2634  0.4145
14289SOL    HW143677   5.218   0.879   1.717  0.1646 -1.1336  1.2628
14289SOL    HW243678   5.279   1.017   1.732 -1.1515 -0.3728 -0.0142
14290SOL     OW43679   3.394   7.955   0.595 -0.0453 -0.0416 -0.4425
14290SOL    HW143680   3.353   7.926   0.514 -0.4876 -0.9363  0.0924
14290SOL    HW243681   3.364   7.893   0.661 -0.1103  0.9795  0.5093
14291SOL     OW43682   6.864   2.023   6.684 -0.0071  0.1140  0.3565
14291SOL    HW143683   6.917   2.039   6.605 -0.2121 -2.2717 -0.3219
14291SOL    HW243684   6.785   2.075   6.670 -1.0041 -1.8435 -2.1114
14292SOL     OW43685   4.751   0.688   7.522 -0.6345 -0.4151 -0.6743
14292SOL    HW143686   4.812   0.669   7.594 -2.1157 -1.6705  0.3136
14292SOL    HW243687   4.803   0.738   7.459  0.1313  2.9894  2.3447
14293SOL     OW43688   6.280   2.137   2.737 -0.0250 -0.2074 -0.1667
14293SOL    HW143689   6.364   2.116   2.777  0.7669  0.7856 -1.2162
14293SOL    HW243690   6.293   2.225   2.701 -1.7475  0.2491  0.2634
14294SOL     OW43691   3.302   7.699   5.497 -0.2926 -0.4285  0.0480
14294SOL    HW143692   3.255   7.716   5.578 -0.5686  3.0120 -0.6783
14294SOL    HW243693   3.235   7.700   5.429  0.1840 -0.9932 -0.4393
14295SOL     OW43694   0.743   3.864   4.441 -0.1923  0.1552 -0.0503
14295SOL    HW143695   0.657   3.834   4.472 -0.9232  1.2164 -0.9537
14295SOL    HW243696   0.775   3.793   4.386 -0.8369  0.0396 -0.2926
14296SOL     OW43697   2.898   0.003   3.977 -0.6614  0.2395 -0.4638
14296SOL    HW143698   2.857   0.027   3.894 -0.5352 -1.0320 -0.9164
14296SOL    HW243699   2.984  -0.031   3.953 -0.0046  1.2345  0.3317
14297SOL     OW43700   5.986   1.331   0.819 -0.2320 -0.4150 -0.8591
14297SOL    HW143701   6.018   1.420   0.803 -0.4414  0.0435  1.0650
14297SOL    HW243702   5.897   1.331   0.784 -0.8194  0.6602  0.5630
14298SOL     OW43703   1.701   1.715   5.785  0.0875  0.5801  0.1148
14298SOL    HW143704   1.616   1.675   5.799  0.3363 -0.0687 -0.2270
14298SOL    HW243705   1.682   1.798   5.742 -0.4066  0.6941  0.5485
14299SOL     OW43706   3.142   4.512   3.749  0.3197  0.3552  0.0065
14299SOL    HW143707   3.233   4.506   3.718  0.8054 -0.0348  1.4345
14299SOL    HW243708   3.099   4.436   3.710  1.2671 -0.9226  1.3482
14300SOL     OW43709   2.829   6.581   2.426 -0.1311 -0.6707  0.5995
14300SOL    HW143710   2.850   6.640   2.354  0.0615 -0.8588  0.5022
14300SOL    HW243711   2.911   6.568   2.472 -0.4759  0.3733  1.5573
14301SOL     OW43712   5.091   0.262   0.819 -0.0968  0.5350 -0.2750
14301SOL    HW143713   5.066   0.332   0.879 -0.5472 -0.1328  0.3372
14301SOL    HW243714   5.110   0.306   0.736 -1.6290  1.2434 -0.2810
14302SOL     OW43715   7.416   3.620   3.932  0.0856  0.7668 -0.5976
14302SOL    HW143716   7.407   3.676   3.856 -0.1525  1.2347 -0.2309
14302SOL    HW243717   7.501   3.642   3.969 -0.5554  1.8354  0.2882
14303SOL     OW43718   0.626   5.667   1.837  0.2480 -0.4276  0.3253
14303SOL    HW143719   0.624   5.717   1.755  1.2278  1.5935  1.4667
14303SOL    HW243720   0.541   5.623   1.840 -0.1955  0.2321 -1.2957
14304SOL     OW43721   5.703   2.057   6.096  0.4178 -0.0193  0.2156
14304SOL    HW143722   5.701   1.981   6.155 -0.1965 -0.0934  0.1002
14304SOL    HW243723   5.720   2.019   6.009  2.3942  0.1718  0.4564
14305SOL     OW43724   6.430   7.466   6.625 -0.2237 -0.2185  0.1529
14305SOL    HW143725   6.491   7.529   6.664  0.5564 -0.8902  0.0446
14305SOL    HW243726   6.413   7.403   6.695 -1.7170  0.5828  0.5525
14306SOL     OW43727   0.452   4.666   7.657  0.1715 -0.0972  0.4557
14306SOL    HW143728   0.419   4.716   7.731 -1.3347 -1.1209  0.5031
14306SOL    HW243729   0.459   4.730   7.586  0.2945  0.6001  1.0913
14307SOL     OW43730   3.588   1.445   1.680 -1.1175 -0.1776  0.1430
14307SOL    HW143731   3.634   1.370   1.719 -3.2275 -1.5676  0.1579
14307SOL    HW243732   3.607   1.439   1.586 -3.1411 -2.2938 -0.2418
14308SOL     OW43733   7.405   4.997   5.006  0.0028 -0.4424  0.1055
14308SOL    HW143734   7.366   5.084   4.995  2.1955  0.5294 -0.5746
14308SOL    HW243735   7.412   4.986   5.101 -0.9850 -0.2474  0.2195
14309SOL     OW43736   7.502   1.438   3.016  0.2093 -0.4269  0.7440
14309SOL    HW143737   7.481   1.433   2.923  1.1083 -1.7040  0.5857
14309SOL    HW243738   7.591   1.404   3.023  0.4514  0.3839  1.9767
14310SOL     OW43739   3.129   6.395   3.800 -0.6111 -0.2092  0.4286
14310SOL    HW143740   3.057   6.445   3.761 -0.7634  0.2429  1.2687
14310SOL    HW243741   3.201   6.457   3.804  0.6523 -1.3047 -2.6321
14311SOL     OW43742   3.752   4.929   4.776  0.1449 -0.2567 -0.3407
14311SOL    HW143743   3.658   4.949   4.770 -0.2602 -1.8480  0.3753
14311SOL    HW243744   3.793   5.014   4.791 -1.2504  0.3799  0.0628
14312SOL     OW43745   3.764   5.030   5.421  0.2430  0.3432 -0.1829
14312SOL    HW143746   3.759   5.032   5.517 -1.4837  0.7421 -0.2507
14312SOL    HW243747   3.851   5.066   5.401 -0.0510  1.9623  1.1983
14313SOL     OW43748   5.211   5.927   1.024 -0.1936 -0.0701 -0.3569
14313SOL    HW143749   5.227   5.978   0.945 -0.5015 -0.6233 -0.7908
14313SOL    HW243750   5.261   5.970   1.092  0.3674  0.2051 -0.9406
14314SOL     OW43751   4.112   4.698   2.080 -0.1757 -0.2229  0.2577
14314SOL    HW143752   4.036   4.731   2.127 -0.2454  0.2295 -0.1619
14314SOL    HW243753   4.122   4.607   2.109 -0.8949 -0.2960  0.2824
14315SOL     OW43754   6.648   5.339   7.874 -0.4757 -0.2031 -0.2115
14315SOL    HW143755   6.584   5.383   7.930  1.0118  1.9658 -0.0746
14315SOL    HW243756   6.648   5.391   7.793  1.3918  0.1761 -0.0178
14316SOL     OW43757   3.751   7.387   2.282  0.5096 -0.4381 -0.3464
14316SOL    HW143758   3.713   7.471   2.253  1.6806  0.4928  0.7204
14316SOL    HW243759   3.677   7.340   2.319  0.0104  0.5614 -0.0195
14317SOL     OW43760   2.712   5.868   1.785  0.0728  0.3400 -0.0574
14317SOL    HW143761   2.704   5.773   1.771  0.3696  0.2253  0.5394
14317SOL    HW243762   2.644   5.906   1.729 -1.2153 -0.3105  1.0123
14318SOL     OW43763   4.902   7.755   7.159  0.1522 -0.1488 -0.5486
14318SOL    HW143764   4.822   7.774   7.207  0.5390 -0.4008  0.2060
14318SOL    HW243765   4.907   7.660   7.156 -0.8766 -0.2013 -2.8200
14319SOL     OW43766   2.450   1.928   7.627  0.3118  0.2290  0.2648
14319SOL    HW143767   2.449   2.022   7.643  0.9275  0.3853 -0.5620
14319SOL    HW243768   2.391   1.892   7.693  1.8903  0.9548  2.1810
14320SOL     OW43769   5.139   2.081   7.231  0.4783  0.2780  0.1991
14320SOL    HW143770   5.125   2.165   7.186  1.7419 -0.3758 -1.5252
14320SOL    HW243771   5.057   2.064   7.276 -0.0393  2.1109  0.0430
14321SOL     OW43772   6.018   1.912   6.545  0.0338  0.3765  0.9309
14321SOL    HW143773   6.001   1.821   6.569 -0.5323  0.7928  2.2283
14321SOL    HW243774   6.107   1.911   6.512 -0.8935 -1.1153 -1.8318
14322SOL     OW43775   2.085   3.568   7.177  0.4074  0.0112  0.1216
14322SOL    HW143776   2.000   3.591   7.216  1.5032  1.7070  1.6627
14322SOL    HW243777   2.069   3.570   7.083 -1.3854 -0.3049  0.3788
14323SOL     OW43778   5.880   1.666   2.282  0.1174 -0.2190 -0.0686
14323SOL    HW143779   5.790   1.652   2.312 -0.0654  0.6891 -0.1575
14323SOL    HW243780   5.907   1.582   2.246  0.0664 -1.1545  1.9298
14324SOL     OW43781   3.279   4.683   1.820 -0.0214 -0.2987 -0.3321
14324SOL    HW143782   3.330   4.648   1.894  0.6964  0.5669 -0.3972
14324SOL    HW243783   3.235   4.760   1.856  1.2596  0.8186 -1.0817
14325SOL     OW43784   7.113   4.913   0.324  0.5460  0.0218 -0.0804
14325SOL    HW143785   7.198   4.923   0.367  0.0687 -0.3444  0.9785
14325SOL    HW243786   7.050   4.944   0.388 -0.0088  2.8162 -1.7735
14326SOL     OW43787   3.402   1.426   7.721 -0.3421  0.1156 -0.3213
14326SOL    HW143788   3.474   1.414   7.783  0.1756  1.2687 -0.6713
14326SOL    HW243789   3.440   1.477   7.650 -1.0900 -0.6845 -1.3175
14327SOL     OW43790   4.494   7.121   1.762 -0.1893 -0.0500  0.4731
14327SOL    HW143791   4.466   7.037   1.798  0.7553 -0.3600  0.5039
14327SOL    HW243792   4.413   7.167   1.742 -0.8796 -2.4019 -2.9891
14328SOL     OW43793   0.804   1.024   4.434 -0.2569 -0.1861 -0.0519
14328SOL    HW143794   0.838   0.966   4.366  1.0811  0.1949  0.2775
14328SOL    HW243795   0.712   1.037   4.409  0.6823  1.6619 -3.0507
14329SOL     OW43796   6.416   2.321   0.240  0.1261  0.4984  0.4598
14329SOL    HW143797   6.376   2.379   0.305  0.7116 -2.3997  3.6706
14329SOL    HW243798   6.343   2.269   0.206  0.1761  0.2416  0.7475
14330SOL     OW43799   1.654   0.596   7.624 -0.3967  0.2068  0.1283
14330SOL    HW143800   1.655   0.522   7.685 -1.4337 -0.0857 -0.1982
14330SOL    HW243801   1.733   0.645   7.646 -0.5651 -0.0780  1.4800
14331SOL     OW43802   1.575   7.887   7.982  0.1644  0.2168 -0.2934
14331SOL    HW143803   1.573   7.809   8.038 -2.3536  0.1774 -0.3301
14331SOL    HW243804   1.615   7.857   7.901  0.6571 -0.6181  0.2396
14332SOL     OW43805   4.237   6.803   4.480 -0.0196  0.0324  0.1924
14332SOL    HW143806   4.249   6.833   4.570  2.7780  0.3999 -0.2256
14332SOL    HW243807   4.169   6.860   4.445  0.7539  1.6961  1.2833
14333SOL     OW43808   5.959   5.839   0.681  0.1331 -0.2772 -0.4860
14333SOL    HW143809   5.895   5.907   0.663  0.5550  0.2715  0.0456
14333SOL    HW243810   6.016   5.838   0.605  1.4282  1.4761  0.3863
14334SOL     OW43811   0.716   6.176   0.058  0.0780  0.0339  0.7267
14334SOL    HW143812   0.650   6.243   0.039  0.1408 -0.3915 -1.2002
14334SOL    HW243813   0.749   6.199   0.145 -3.6549 -0.5820  2.5291
14335SOL     OW43814   1.842   7.376   2.116  0.1552  0.5699  0.0197
14335SOL    HW143815   1.849   7.370   2.211  1.0452  1.1761  0.0080
14335SOL    HW243816   1.908   7.315   2.083 -1.3737 -0.9962 -0.2440
14336SOL     OW43817   5.859   2.303   4.089  0.0424 -0.5738 -0.6270
14336SOL    HW143818   5.765   2.317   4.101 -0.1093 -1.7747 -0.2936
14336SOL    HW243819   5.889   2.380   4.041 -1.1555 -0.2893 -0.9470
14337SOL     OW43820   4.871   3.415   5.787  0.0715 -0.9113 -0.2416
14337SOL    HW143821   4.830   3.447   5.867  1.0481 -1.5763  0.5634
14337SOL    HW243822   4.918   3.336   5.815  0.7772 -0.9144 -1.3779
14338SOL     OW43823   7.034   2.674   1.421  0.2500  0.2395  0.2764
14338SOL    HW143824   6.993   2.727   1.353  1.2382 -0.1855 -0.6633
14338SOL    HW243825   7.021   2.724   1.502 -1.3124  0.5412 -0.1347
14339SOL     OW43826   4.163   7.366   6.566  0.1973  0.2596 -0.4165
14339SOL    HW143827   4.103   7.346   6.494  1.1745  1.2496 -1.5460
14339SOL    HW243828   4.250   7.369   6.525  1.0701 -1.2019  1.1868
14340SOL     OW43829   4.569   7.088   7.042  0.1212  0.5287  0.0718
14340SOL    HW143830   4.532   7.096   7.130  0.2275  0.6531  0.1065
14340SOL    HW243831   4.567   6.994   7.023  1.2041  0.3541  0.6903
14341SOL     OW43832   4.075   2.412   1.171 -0.2671  0.4635  0.2451
14341SOL    HW143833   3.996   2.453   1.136 -0.5529 -0.0561  0.2582
14341SOL    HW243834   4.144   2.433   1.108 -1.1534 -2.0499 -1.7412
14342SOL     OW43835   3.575   5.465   0.962  0.6574 -0.0859  0.5046
14342SOL    HW143836   3.590   5.464   0.867 -0.3154 -0.0815  0.3451
14342SOL    HW243837   3.663   5.458   1.000  0.9191 -2.2723 -0.3900
14343SOL     OW43838   3.730   4.822   0.262 -0.2171 -0.2489 -0.2357
14343SOL    HW143839   3.802   4.843   0.321 -0.8606  2.2703 -0.2270
14343SOL    HW243840   3.771   4.813   0.176  0.3158 -0.6498  0.0557
14344SOL     OW43841   1.098   4.618   4.800 -0.2826 -0.2633  0.1876
14344SOL    HW143842   1.176   4.663   4.830 -0.4953 -0.7927  1.6440
14344SOL    HW243843   1.052   4.682   4.746  1.0218  0.1298 -0.4940
14345SOL     OW43844   3.301   1.981   1.577 -0.2623  0.1356  0.0290
14345SOL    HW143845   3.336   2.026   1.499 -0.3594 -0.2838 -0.2592
14345SOL    HW243846   3.284   2.052   1.639 -1.5466  0.6571 -0.8545
14346SOL     OW43847   6.181   7.452   2.642 -0.2492  0.8296 -0.2800
14346SOL    HW143848   6.247   7.436   2.575 -2.0335 -3.1805 -1.4012
14346SOL    HW243849   6.106   7.489   2.596 -0.6771  0.1691 -0.1467
14347SOL     OW43850   4.858   2.990   6.014  0.4043  0.0334  0.3220
14347SOL    HW143851   4.804   2.927   6.062  0.4463  1.7092  2.7918
14347SOL    HW243852   4.797   3.034   5.955  0.0272 -1.0376 -0.1294
14348SOL     OW43853   4.907   0.351   4.390  0.0214  0.3339  0.1927
14348SOL    HW143854   4.827   0.319   4.431  0.9350 -4.2008 -1.0162
14348SOL    HW243855   4.971   0.351   4.461 -0.3595  1.1834  0.5514
14349SOL     OW43856   2.929   2.775   1.997 -0.2201  0.0963  0.1790
14349SOL    HW143857   2.968   2.858   2.026  0.2873  0.1011 -0.4905
14349SOL    HW243858   2.835   2.786   2.013 -0.2127  0.9850 -0.3144
14350SOL     OW43859   0.743   4.776   2.062 -0.2057  0.1685  0.1048
14350SOL    HW143860   0.780   4.773   2.150 -1.1443  1.6319  0.5724
14350SOL    HW243861   0.677   4.706   2.062  0.7140 -0.7321  0.0941
14351SOL     OW43862   5.145   7.398   3.269  0.2555  0.4638  0.0973
14351SOL    HW143863   5.109   7.309   3.272  1.0288  0.1502  2.3076
14351SOL    HW243864   5.105   7.442   3.344  2.4263  0.8803  1.0932
14352SOL     OW43865   5.657   3.741   4.344  0.2414 -0.1539 -0.6770
14352SOL    HW143866   5.657   3.773   4.254  0.2476  1.4981 -0.1347
14352SOL    HW243867   5.575   3.693   4.354  0.5456 -0.9069 -1.7357
14353SOL     OW43868   3.323   1.515   2.968  0.7364 -0.2582  0.4845
14353SOL    HW143869   3.272   1.594   2.987 -0.4597 -1.2277  1.4889
14353SOL    HW243870   3.412   1.538   2.993  0.0013  0.0314  3.0883
14354SOL     OW43871   3.971   3.182   4.239 -0.2436  0.7154 -0.0917
14354SOL    HW143872   4.015   3.267   4.247 -0.2282  0.9596 -2.2591
14354SOL    HW243873   4.023   3.133   4.175 -1.0158 -0.4319  0.1165
14355SOL     OW43874   5.421   5.049   4.553 -0.1037 -0.2578 -0.7545
14355SOL    HW143875   5.390   4.960   4.571  2.9270 -1.4696 -0.9297
14355SOL    HW243876   5.396   5.066   4.463 -1.8553 -0.3535 -0.3236
14356SOL     OW43877   1.612   0.310   6.500 -0.0223  0.2625  0.2781
14356SOL    HW143878   1.605   0.215   6.493 -0.7469  0.3625 -0.4357
14356SOL    HW243879   1.659   0.325   6.582  0.8795 -0.7291 -0.0374
14357SOL     OW43880   4.647   7.019   2.646 -0.1416  0.4892 -0.1467
14357SOL    HW143881   4.653   6.925   2.627  0.9776  0.6907 -0.8599
14357SOL    HW243882   4.708   7.032   2.719 -0.0921  0.7027 -0.2260
14358SOL     OW43883   2.398   4.858   3.923 -0.2108  0.0252 -0.2147
14358SOL    HW143884   2.451   4.779   3.926  0.4856  0.5000  0.4241
14358SOL    HW243885   2.454   4.922   3.878 -0.0950  0.6238  0.7417
14359SOL     OW43886   0.423   0.164   0.342 -0.1159  0.6494  0.4487
14359SOL    HW143887   0.512   0.186   0.312 -0.1536  0.0771 -0.1237
14359SOL    HW243888   0.369   0.173   0.263 -0.4166  0.1945  0.5969
14360SOL     OW43889   7.505   7.119   2.896  0.5001  0.7219 -0.1024
14360SOL    HW143890   7.466   7.192   2.943  0.1300  0.4252  0.0498
14360SOL    HW243891   7.536   7.158   2.814  0.7922  1.1568  0.2082
14361SOL     OW43892   5.596   3.086   6.872 -0.0869 -0.3019  0.1284
14361SOL    HW143893   5.532   3.157   6.875  1.1975  1.1092 -2.2847
14361SOL    HW243894   5.544   3.006   6.873 -1.8015  0.7553 -0.3068
14362SOL     OW43895   4.401   7.103   2.446 -0.7018 -0.1425 -0.2680
14362SOL    HW143896   4.413   7.195   2.470 -0.4340  0.3728 -2.1962
14362SOL    HW243897   4.487   7.063   2.462 -0.9603 -0.2079  1.0723
14363SOL     OW43898   2.743   6.130   0.781 -0.7073 -0.0808 -0.1795
14363SOL    HW143899   2.666   6.132   0.838 -1.5638  1.9366 -1.2894
14363SOL    HW243900   2.709   6.148   0.694  1.0070  0.8215 -0.7176
14364SOL     OW43901   7.537   0.647   0.216 -0.3810  0.2853 -0.7448
14364SOL    HW143902   7.590   0.576   0.178 -0.0601  1.1079 -1.9147
14364SOL    HW243903   7.448   0.613   0.217  0.0403 -0.8559  0.5704
14365SOL     OW43904   3.055   6.143   4.717 -0.5070  0.1630 -0.0482
14365SOL    HW143905   2.991   6.118   4.784  0.7075 -1.2273  0.6623
14365SOL    HW243906   3.003   6.185   4.649 -1.9183  0.7116  1.3062
14366SOL     OW43907   7.641   1.471   2.502  0.0504 -0.6107 -0.1733
14366SOL    HW143908   7.568   1.524   2.535  1.7138  1.3806  0.4955
14366SOL    HW243909   7.678   1.523   2.431  1.2403 -1.2646 -0.0533
14367SOL     OW43910   0.145   4.234   6.113 -0.1832 -0.2921  0.3531
14367SOL    HW143911   0.059   4.206   6.145 -0.3064 -0.4231 -0.0794
14367SOL    HW243912   0.146   4.329   6.124 -1.4266  0.0818 -2.0200
14368SOL     OW43913   6.655   7.969   3.012  0.1320  0.0702  0.3420
14368SOL    HW143914   6.604   8.006   3.084 -1.1297 -0.5237 -0.2174
14368SOL    HW243915   6.656   8.038   2.945  0.9965  0.4841  0.7606
14369SOL     OW43916   4.662   2.184   3.022  0.1022 -0.3299 -0.1377
14369SOL    HW143917   4.689   2.094   3.004 -0.0579 -0.2370 -0.8840
14369SOL    HW243918   4.726   2.238   2.975 -2.9887 -0.0876 -4.7885
14370SOL     OW43919   5.438   2.638   1.975 -0.3642 -0.2558 -0.2168
14370SOL    HW143920   5.475   2.676   2.055  0.8458 -0.3862 -0.6936
14370SOL    HW243921   5.379   2.569   2.007  0.1425 -0.3417  0.5704
14371SOL     OW43922   4.695   2.357   5.657 -0.2246 -0.1289  1.0260
14371SOL    HW143923   4.622   2.410   5.689  0.2982  2.1004 -1.1765
14371SOL    HW243924   4.674   2.340   5.566  1.2907 -0.7469  0.7630
14372SOL     OW43925   6.642   5.844   0.887 -0.3019  0.1259  0.6198
14372SOL    HW143926   6.673   5.887   0.808 -1.7115  1.1235  0.5638
14372SOL    HW243927   6.546   5.850   0.881 -0.4703 -1.0401  1.7139
14373SOL     OW43928   3.638   2.903   6.675 -0.1691 -0.2966  0.1569
14373SOL    HW143929   3.567   2.953   6.634  0.6352  1.3352  0.6624
14373SOL    HW243930   3.602   2.815   6.685 -1.7395  0.2202 -0.5546
14374SOL     OW43931   0.934   5.250   4.634  0.1724  0.4209 -0.5543
14374SOL    HW143932   0.913   5.264   4.542  0.9248  1.4315 -0.5857
14374SOL    HW243933   1.029   5.262   4.639  0.5950 -2.4188 -0.1377
14375SOL     OW43934   6.022   6.897   0.342 -0.2979  0.1100 -0.0240
14375SOL    HW143935   5.987   6.808   0.340  0.9515 -0.3947 -0.9872
14375SOL    HW243936   6.117   6.886   0.351 -0.2971  1.4350  2.6642
14376SOL     OW43937   2.552   5.590   7.760  0.1224  0.2826  0.6317
14376SOL    HW143938   2.607   5.667   7.774  2.2541 -0.8337 -1.0667
14376SOL    HW243939   2.548   5.580   7.665  1.0563 -2.4125  0.7916
14377SOL     OW43940   0.529   7.758   3.394 -0.0900  0.2828  0.5164
14377SOL    HW143941   0.581   7.682   3.420  0.3378  0.3962 -0.0078
14377SOL    HW243942   0.472   7.773   3.469  0.3072 -0.1263  0.9130
14378SOL     OW43943   0.820   7.234   5.640  0.0798 -0.1621  0.0911
14378SOL    HW143944   0.846   7.160   5.584  1.4665  0.3566  0.0018
14378SOL    HW243945   0.834   7.202   5.729  1.0361  0.0856  0.0458
14379SOL     OW43946   3.178   3.169   3.001  0.1932 -0.2759  0.0869
14379SOL    HW143947   3.122   3.115   2.945 -0.4244 -0.0503  0.4860
14379SOL    HW243948   3.196   3.114   3.077  1.4203 -0.7633 -0.5190
14380SOL     OW43949   6.891   2.198   3.362  0.0035 -0.3948 -0.1816
14380SOL    HW143950   6.844   2.140   3.302  1.7009 -2.3813  0.2907
14380SOL    HW243951   6.909   2.276   3.311 -3.4402  0.3635 -0.4790
14381SOL     OW43952   0.579   2.280   0.053  0.0891 -0.1595  0.0206
14381SOL    HW143953   0.545   2.195   0.027  2.7176 -1.2285 -0.1796
14381SOL    HW243954   0.521   2.343   0.009  0.3166 -1.8782 -2.9874
14382SOL     OW43955   3.459   3.215   2.340 -0.3450 -0.0891 -0.1832
14382SOL    HW143956   3.446   3.179   2.428  3.2068  0.6579  0.8175
14382SOL    HW243957   3.431   3.306   2.347 -1.8957 -0.5155 -0.4513
14383SOL     OW43958   7.198   2.068   5.524  0.3906  0.2716 -0.0190
14383SOL    HW143959   7.258   2.102   5.457 -1.4623  2.7922 -0.5329
14383SOL    HW243960   7.226   2.110   5.605 -0.1673  0.8428 -0.1140
14384SOL     OW43961   5.921   4.941   0.994  0.3134  0.9757 -0.0193
14384SOL    HW143962   5.909   5.003   1.066 -1.7348  2.3282 -1.4344
14384SOL    HW243963   5.958   4.993   0.923  0.0211  0.2329 -0.7402
14385SOL     OW43964   0.467   7.292   7.071 -0.1816  0.7767 -0.0305
14385SOL    HW143965   0.482   7.262   6.981 -3.5112  0.1169 -0.4836
14385SOL    HW243966   0.494   7.384   7.070  1.7417  0.2620 -1.0919
14386SOL     OW43967   5.481   6.517   0.725  0.2432 -0.2149 -0.6949
14386SOL    HW143968   5.560   6.463   0.725  1.6142  1.6363  1.4194
14386SOL    HW243969   5.446   6.507   0.813 -1.2682 -0.0715 -1.2499
14387SOL     OW43970   5.844   6.349   6.679 -0.1069 -0.1218  0.2213
14387SOL    HW143971   5.830   6.309   6.593  0.2896 -0.2194  0.2029
14387SOL    HW243972   5.930   6.317   6.707  0.6965  1.5338 -0.2491
14388SOL     OW43973   2.721   7.830   5.449 -0.0665  0.4507 -0.1638
14388SOL    HW143974   2.767   7.904   5.408 -0.5604  0.8667  0.0173
14388SOL    HW243975   2.766   7.753   5.415  0.1866  0.8196 -0.6942
14389SOL     OW43976   0.024   6.938   0.098  0.2240  0.2868 -0.2831
14389SOL    HW143977   0.032   7.030   0.072 -0.7550 -0.1678 -2.4815
14389SOL    HW243978  -0.068   6.928   0.123  0.2303 -0.1462 -0.4096
14390SOL     OW43979   0.672   1.440   6.634 -0.4725  0.0200 -0.2224
14390SOL    HW143980   0.627   1.456   6.716  0.6273 -0.0978  0.4300
14390SOL    HW243981   0.714   1.524   6.613  0.4093 -0.3242  0.0923
14391SOL     OW43982   0.066   3.594   4.598  0.4260  0.6657  0.2146
14391SOL    HW143983   0.014   3.530   4.646  1.1925 -0.6744 -0.6822
14391SOL    HW243984   0.004   3.638   4.540  0.4227 -1.9065 -1.9015
14392SOL     OW43985   4.654   0.251   1.709 -0.0491 -0.4273 -0.3514
14392SOL    HW143986   4.580   0.266   1.650 -0.2752 -0.2795 -0.0391
14392SOL    HW243987   4.662   0.334   1.758 -0.4905 -0.8746  0.5037
14393SOL     OW43988   2.599   7.180   2.569  0.0836 -0.6021  0.3036
14393SOL    HW143989   2.504   7.189   2.575  0.1989  1.7457 -0.5341
14393SOL    HW243990   2.622   7.221   2.485  2.0000  0.5027  1.2941
14394SOL     OW43991   4.476   6.322   5.108  0.5515  0.0764 -1.1500
14394SOL    HW143992   4.498   6.286   5.194  3.1277  0.5936 -1.5118
14394SOL    HW243993   4.554   6.305   5.054 -0.1863  1.5835 -2.7918
14395SOL     OW43994   6.124   7.041   7.490  0.0146  0.4073  0.2758
14395SOL    HW143995   6.162   6.968   7.539  1.3323  1.3944  0.7928
14395SOL    HW243996   6.118   7.008   7.400  1.3437 -0.0967  0.3461
14396SOL     OW43997   7.633   3.601   1.931  0.0330 -0.1676 -0.8488
14396SOL    HW143998   7.553   3.649   1.910  1.7347  3.1633 -0.3306
14396SOL    HW243999   7.647   3.617   2.024  1.7083  0.0586 -1.1017
14397SOL     OW44000   0.389   3.892   5.080 -0.6828  0.5209 -0.2993
14397SOL    HW144001   0.323   3.831   5.114 -1.2461  1.4657  0.3455
14397SOL    HW244002   0.391   3.963   5.144  1.7371  0.0268  0.2659
14398SOL     OW44003   0.627   1.298   5.634 -0.3740 -0.0059 -0.0559
14398SOL    HW144004   0.641   1.300   5.728  0.2574 -0.8896 -0.1215
14398SOL    HW244005   0.541   1.338   5.621  0.1343  1.4365  0.7625
14399SOL     OW44006   7.186   6.059   2.479 -0.4611  0.3074 -0.2852
14399SOL    HW144007   7.141   6.055   2.564 -0.0424 -0.2399 -0.0791
14399SOL    HW244008   7.233   5.975   2.473  0.8176  1.0025 -0.3307
14400SOL     OW44009   7.644   2.097   1.100  0.1065  0.5040 -0.3070
14400SOL    HW144010   7.672   2.182   1.065  0.2490  1.0708  1.1039
14400SOL    HW244011   7.561   2.117   1.144 -0.1862 -0.2279 -0.5215
14401SOL     OW44012   0.633   2.501   4.558  0.0935 -0.2737 -0.5202
14401SOL    HW144013   0.673   2.585   4.537 -1.2939  0.2313 -1.2416
14401SOL    HW244014   0.627   2.500   4.653  1.6041 -0.2845 -0.4004
14402SOL     OW44015   3.431   5.235   0.716 -0.1078 -0.3092  0.3151
14402SOL    HW144016   3.461   5.153   0.755  0.0670 -0.3673  0.0631
14402SOL    HW244017   3.512   5.283   0.696 -0.1243 -0.8111 -1.1085
14403SOL     OW44018   0.723   4.186   3.313  0.1250  0.4046 -0.3082
14403SOL    HW144019   0.816   4.165   3.320  0.3761  1.6393  0.5528
14403SOL    HW244020   0.722   4.270   3.268 -0.5934  0.2339 -0.6109
14404SOL     OW44021   5.095   5.352   5.997 -0.1476 -0.1040  0.1982
14404SOL    HW144022   5.059   5.400   5.922  0.9564 -0.8879 -0.8721
14404SOL    HW244023   5.092   5.260   5.970 -0.6826 -0.5094  1.5458
14405SOL     OW44024   1.000   7.470   1.039 -0.1897  0.2438  0.3753
14405SOL    HW144025   1.066   7.454   1.106 -1.0560 -0.4665  1.0809
14405SOL    HW244026   0.966   7.557   1.059 -1.3228 -0.4574  1.6572
14406SOL     OW44027   6.140   7.287   7.591  0.0032 -0.0123 -0.5054
14406SOL    HW144028   6.128   7.195   7.569 -2.6729  0.3891 -1.0725
14406SOL    HW244029   6.162   7.287   7.684  0.4602 -1.2351 -0.6069
14407SOL     OW44030   0.553   1.829   1.944 -0.2684 -0.9242 -0.3232
14407SOL    HW144031   0.638   1.852   1.907 -1.6091  2.3290 -1.8373
14407SOL    HW244032   0.492   1.840   1.871 -2.5184  1.6153  1.7306
14408SOL     OW44033   1.561   7.674   0.155  0.2605 -0.0451  0.1539
14408SOL    HW144034   1.547   7.615   0.229  0.0363 -0.4049 -0.1756
14408SOL    HW244035   1.605   7.621   0.089  1.4864  0.5641  0.4456
14409SOL     OW44036   4.713   4.122   7.723  0.3691  0.4270  0.0244
14409SOL    HW144037   4.785   4.073   7.685 -0.0895 -0.3932  0.1856
14409SOL    HW244038   4.641   4.058   7.729 -0.2347  1.1156  0.2446
14410SOL     OW44039   0.384   0.700   5.089  0.2798  0.2758  0.1901
14410SOL    HW144040   0.293   0.671   5.100  0.6456 -0.5997  1.0382
14410SOL    HW244041   0.435   0.619   5.090  0.9713  0.6403 -1.6943
14411SOL     OW44042   4.675   6.327   1.800 -0.4160 -0.0156 -0.3841
14411SOL    HW144043   4.585   6.304   1.825 -0.0465 -1.3431 -0.1831
14411SOL    HW244044   4.671   6.420   1.777 -2.0458 -0.2924 -1.3393
14412SOL     OW44045   6.812   0.876   3.599  0.5683  1.1522 -0.3447
14412SOL    HW144046   6.896   0.875   3.646  0.2365  1.3899  0.2667
14412SOL    HW244047   6.837   0.888   3.508  1.3287 -1.0578 -0.4830
14413SOL     OW44048   4.210   2.226   6.897 -0.1904 -0.3634 -0.2375
14413SOL    HW144049   4.161   2.262   6.971  1.3373 -0.7308  1.0048
14413SOL    HW244050   4.252   2.148   6.931  0.6646 -0.4730 -1.4556
14414SOL     OW44051   0.530   3.456   2.700 -0.8704 -0.4696  0.2537
14414SOL    HW144052   0.511   3.416   2.615 -1.3409 -0.4561  0.3495
14414SOL    HW244053   0.469   3.415   2.760 -1.5348  0.5541  0.3097
14415SOL     OW44054   5.870   7.368   2.893  0.1352  0.4592  0.3569
14415SOL    HW144055   5.857   7.362   2.987 -0.1662  1.0403  0.3604
14415SOL    HW244056   5.964   7.376   2.881  0.3761 -1.6801  0.4738
14416SOL     OW44057   0.875   3.646   1.353 -0.0306  0.5546  0.3565
14416SOL    HW144058   0.904   3.719   1.299 -1.2023  0.3521 -0.5945
14416SOL    HW244059   0.785   3.668   1.376  0.0951  0.1100  1.3141
14417SOL     OW44060   6.675   6.635   4.734  0.0119  0.0125  0.6530
14417SOL    HW144061   6.640   6.709   4.685 -0.0929 -1.0145 -0.8869
14417SOL    HW244062   6.767   6.629   4.706  0.2718  0.1181  1.4644
14418SOL     OW44063   5.515   5.207   2.017  0.0852  0.2704  0.1925
14418SOL    HW144064   5.520   5.255   2.100 -1.5215  0.5029  0.1786
14418SOL    HW244065   5.475   5.269   1.956  0.0627 -0.3390 -0.4185
14419SOL     OW44066   3.947   3.847   1.999 -0.1145 -0.4671 -0.0578
14419SOL    HW144067   4.017   3.874   2.058 -0.1054  1.6933 -0.9308
14419SOL    HW244068   3.891   3.925   1.992 -1.8000 -1.6721 -0.5141
14420SOL     OW44069   5.080   1.297   6.637 -0.0876  0.1655 -0.4591
14420SOL    HW144070   5.043   1.385   6.631  1.4908  1.0388  1.4277
14420SOL    HW244071   5.010   1.244   6.674 -0.8180  0.7912 -0.9135
14421SOL     OW44072   0.190   7.150   5.709 -0.2027 -0.4791 -0.4572
14421SOL    HW144073   0.137   7.163   5.788  0.2033  0.8153 -0.3669
14421SOL    HW244074   0.247   7.077   5.730  0.5748  0.4636  0.8337
14422SOL     OW44075   5.122   4.802   2.433 -0.0234  0.5459 -0.0800
14422SOL    HW144076   5.186   4.743   2.392 -0.0822  0.7744 -0.5050
14422SOL    HW244077   5.159   4.821   2.519 -0.1984 -0.4284  0.2147
14423SOL     OW44078   4.175   0.325   3.157  0.0572 -0.2671 -0.0165
14423SOL    HW144079   4.235   0.335   3.231 -0.0043 -0.2226  0.0271
14423SOL    HW244080   4.089   0.345   3.193 -0.1178 -1.2641  0.1563
14424SOL     OW44081   3.139   1.630   0.694  0.1133  0.8577  0.0556
14424SOL    HW144082   3.105   1.548   0.730  2.0384  0.8802  2.2554
14424SOL    HW244083   3.064   1.689   0.691 -0.7328 -0.0942  1.3946
14425SOL     OW44084   6.874   6.881   3.651  0.2489  0.1437  0.1041
14425SOL    HW144085   6.857   6.909   3.561  1.4704  0.4571 -0.0469
14425SOL    HW244086   6.904   6.791   3.643  0.0037  0.0486  0.2373
14426SOL     OW44087   1.017   0.033   7.419  0.1677  0.1012  0.5894
14426SOL    HW144088   1.105  -0.000   7.438  0.8740  0.4600 -1.7105
14426SOL    HW244089   0.966  -0.046   7.400  0.0838 -0.0841  1.5606
14427SOL     OW44090   2.406   0.238   5.430 -0.3119  0.6567  0.3297
14427SOL    HW144091   2.468   0.203   5.493  1.6456  1.6444 -0.9320
14427SOL    HW244092   2.349   0.165   5.408  2.5423 -1.3716 -0.9332
14428SOL     OW44093   0.062   7.601   5.594  0.2318 -0.1591 -0.7048
14428SOL    HW144094   0.026   7.575   5.679 -2.4043  0.8623 -1.3980
14428SOL    HW244095   0.101   7.687   5.609  0.9233 -0.5355 -0.2904
14429SOL     OW44096   3.234   7.727   6.335  0.1872  0.0825 -0.4272
14429SOL    HW144097   3.143   7.729   6.305  0.8936  2.1201 -2.7919
14429SOL    HW244098   3.284   7.701   6.257  1.5874 -2.6064  1.2372
14430SOL     OW44099   1.665   6.257   1.516  0.5569 -0.8201 -0.3417
14430SOL    HW144100   1.635   6.262   1.425 -3.0752 -1.1730  0.6836
14430SOL    HW244101   1.663   6.348   1.546 -3.1575 -1.0286  0.5997
14431SOL     OW44102   6.060   3.700   7.972 -0.2610  0.4890  0.0671
14431SOL    HW144103   6.050   3.607   7.954  1.7673  0.4404 -1.0978
14431SOL    HW244104   6.004   3.716   8.048 -0.7388 -1.6401  0.2267
14432SOL     OW44105   6.934   7.024   4.529  0.2425 -0.3187 -0.5399
14432SOL    HW144106   6.889   7.104   4.503 -1.0973 -0.9209 -0.2099
14432SOL    HW244107   6.926   7.023   4.625 -1.3370 -1.6609 -0.6209
14433SOL     OW44108   2.111   4.128   7.396  0.6702 -0.3645  0.7290
14433SOL    HW144109   2.034   4.147   7.343 -0.2084  0.2793  2.1597
14433SOL    HW244110   2.183   4.170   7.350 -0.1217  0.5090  0.2533
14434SOL     OW44111   6.047   2.183   0.360  0.3301 -0.5438 -0.1830
14434SOL    HW144112   6.114   2.153   0.422 -0.5084  0.2243  1.1624
14434SOL    HW244113   6.095   2.203   0.280  2.2183  2.4500  1.4758
14435SOL     OW44114   3.122   0.615   3.827  0.0479 -0.8820 -0.3251
14435SOL    HW144115   3.041   0.665   3.814 -0.1875 -1.3179 -0.5736
14435SOL    HW244116   3.154   0.643   3.912  0.3537  0.2855 -0.8038
14436SOL     OW44117   2.799   1.272   2.707  0.2626  0.1198  0.1705
14436SOL    HW144118   2.871   1.321   2.747  1.1780 -0.8455 -0.2368
14436SOL    HW244119   2.843   1.208   2.651 -0.9365 -0.2521 -0.3678
14437SOL     OW44120   7.229   7.029   0.251 -0.2923 -0.6808 -0.1740
14437SOL    HW144121   7.304   6.970   0.252 -0.0106 -0.3502 -1.1356
14437SOL    HW244122   7.263   7.111   0.214 -1.3165 -0.8258 -1.5216
14438SOL     OW44123   6.324   3.293   1.296  0.5251 -0.1155 -0.1430
14438SOL    HW144124   6.246   3.238   1.301 -0.5078  1.3663  1.2992
14438SOL    HW244125   6.302   3.361   1.232  1.0504 -0.2952 -0.5202
14439SOL     OW44126   6.169   0.441   3.563 -0.1272  0.2150  0.4886
14439SOL    HW144127   6.190   0.437   3.470  0.3580 -1.2794  0.6292
14439SOL    HW244128   6.249   0.414   3.608 -0.2518  1.2306  1.3658
14440SOL     OW44129   0.537   7.259   6.817  0.0037  0.0401 -0.1124
14440SOL    HW144130   0.609   7.320   6.801  1.1131 -1.2303 -0.2012
14440SOL    HW244131   0.559   7.182   6.763 -0.9258 -0.7461  0.5966
14441SOL     OW44132   5.755   1.297   0.513  0.5582 -0.4269 -0.1489
14441SOL    HW144133   5.677   1.329   0.559  1.2198 -0.9864  1.4465
14441SOL    HW244134   5.733   1.208   0.486  0.9216 -0.9160  1.0982
14442SOL     OW44135   5.354   7.519   7.282 -0.0976  0.1738  0.4762
14442SOL    HW144136   5.278   7.574   7.268  1.0811  1.7932  0.1112
14442SOL    HW244137   5.395   7.514   7.195  0.9533  0.5039  0.9402
14443SOL     OW44138   2.212   0.731   0.496  0.5542 -0.5278 -0.3895
14443SOL    HW144139   2.180   0.763   0.580 -0.1751 -1.4785 -0.2866
14443SOL    HW244140   2.307   0.724   0.508  1.0221  2.9913 -0.9267
14444SOL     OW44141   4.206   3.787   1.749 -0.2623 -0.0215  0.0545
14444SOL    HW144142   4.182   3.878   1.769 -0.4296 -0.0788  0.1161
14444SOL    HW244143   4.125   3.747   1.719 -0.1015 -0.0474 -0.3425
14445SOL     OW44144   1.466   5.604   1.526  0.0088  0.3434 -0.7504
14445SOL    HW144145   1.387   5.609   1.580  0.2453 -1.3966 -0.1939
14445SOL    HW244146   1.454   5.526   1.473  0.5116  1.1358 -2.0821
14446SOL     OW44147   2.556   0.946   7.892  0.0642 -0.3711  0.4890
14446SOL    HW144148   2.633   0.940   7.948 -0.7622 -0.0684  1.7087
14446SOL    HW244149   2.576   1.016   7.830  0.2653  0.6680  1.6739
14447SOL     OW44150   4.295   4.417   3.423  0.4394 -0.2511  0.3907
14447SOL    HW144151   4.205   4.417   3.390  0.1680 -0.3706  1.1076
14447SOL    HW244152   4.349   4.397   3.347 -0.1009  0.3024 -0.1438
14448SOL     OW44153   2.015   3.083   3.302  0.9415  0.3154  0.2631
14448SOL    HW144154   2.068   3.149   3.347 -0.6346  0.5815  1.8615
14448SOL    HW244155   2.072   3.006   3.298  1.1927  0.2680  2.8404
14449SOL     OW44156   4.639   1.015   5.225 -0.3491 -0.2392  0.3136
14449SOL    HW144157   4.588   1.039   5.147 -1.5511 -0.1422  1.1016
14449SOL    HW244158   4.675   1.098   5.256  0.2488 -0.2972 -0.2078
14450SOL     OW44159   7.960   2.026   0.259  0.0073  0.6644 -0.5963
14450SOL    HW144160   7.869   2.045   0.282 -1.4229 -3.4250 -1.9926
14450SOL    HW244161   7.993   2.108   0.223 -2.3705  2.9135  1.8280
14451SOL     OW44162   1.700   6.894   1.348 -0.6032  0.0885  0.1931
14451SOL    HW144163   1.769   6.888   1.282 -1.0574  0.9773 -0.3916
14451SOL    HW244164   1.618   6.884   1.299 -0.9177 -0.2510  0.7747
14452SOL     OW44165   0.473   7.786   0.839  0.1285  0.1627 -0.0109
14452SOL    HW144166   0.503   7.822   0.755 -0.4876 -2.6131 -1.5619
14452SOL    HW244167   0.409   7.719   0.814  0.8719 -1.6624  2.6259
14453SOL     OW44168   2.638   5.068   7.598  0.4180 -0.1848 -0.1943
14453SOL    HW144169   2.619   4.975   7.592 -0.1105 -0.1350  0.6495
14453SOL    HW244170   2.554   5.109   7.618  0.8686  0.3365  0.7155
14454SOL     OW44171   3.425   5.725   7.734  0.6062 -0.1653  0.3380
14454SOL    HW144172   3.404   5.818   7.727  2.2773  0.2640  0.5351
14454SOL    HW244173   3.426   5.693   7.644  1.0551  0.2646  0.1868
14455SOL     OW44174   2.849   3.478   7.939  0.1797  0.5096  0.3321
14455SOL    HW144175   2.906   3.402   7.949 -0.5379 -0.1069 -0.1480
14455SOL    HW244176   2.908   3.554   7.944  1.0998 -0.1232 -0.5881
14456SOL     OW44177   7.048   7.953   4.263 -0.5988  0.3531  0.3626
14456SOL    HW144178   7.016   7.910   4.184 -2.7859 -2.1778  2.3906
14456SOL    HW244179   7.144   7.946   4.257 -0.7596 -1.7912 -1.0737
14457SOL     OW44180   0.298   5.328   6.377  0.3013 -0.1822 -0.2279
14457SOL    HW144181   0.305   5.337   6.472  0.1972 -1.9803 -0.0221
14457SOL    HW244182   0.389   5.317   6.347  0.4855  1.7942 -0.5450
14458SOL     OW44183   4.814   5.555   5.318 -0.0794 -0.7598 -0.4158
14458SOL    HW144184   4.767   5.541   5.401 -1.5087  1.4171 -0.7749
14458SOL    HW244185   4.895   5.598   5.345 -1.0282  0.9795 -0.1278
14459SOL     OW44186   0.747   7.539   4.246  0.3335  0.5015  0.0040
14459SOL    HW144187   0.764   7.513   4.156  0.9292  0.0353  0.2433
14459SOL    HW244188   0.812   7.491   4.298  1.3488  2.3059  0.4950
14460SOL     OW44189   1.718   6.938   5.116 -0.6631 -0.0927 -0.6777
14460SOL    HW144190   1.697   7.015   5.063 -1.1202 -0.8009 -1.5673
14460SOL    HW244191   1.750   6.874   5.052  0.1672 -0.4811  0.1088
14461SOL     OW44192   7.364   4.748   4.204  0.1993  0.3121  0.0114
14461SOL    HW144193   7.435   4.713   4.151 -0.2504  0.7194 -0.8666
14461SOL    HW244194   7.341   4.676   4.263  1.9158  0.4693  0.9292
14462SOL     OW44195   0.825   1.430   2.575  0.1823  0.4270  0.3897
14462SOL    HW144196   0.895   1.381   2.618 -1.5399 -0.8308  1.9166
14462SOL    HW244197   0.753   1.429   2.638 -1.8634  0.0718 -1.7941
14463SOL     OW44198   3.226   1.083   1.289  0.0529 -0.0716 -0.0765
14463SOL    HW144199   3.214   1.110   1.198  2.1533  0.1424 -0.3562
14463SOL    HW244200   3.230   0.987   1.285  0.2486 -0.0575 -0.2353
14464SOL     OW44201   2.529   1.329   2.609  0.2424 -0.1639 -0.0133
14464SOL    HW144202   2.508   1.236   2.612 -0.0097 -0.1049  0.1617
14464SOL    HW244203   2.624   1.333   2.606  0.3040 -0.4134  1.0695
14465SOL     OW44204   1.121   6.131   5.863 -0.3190 -0.6390  0.3433
14465SOL    HW144205   1.042   6.096   5.905 -1.1145 -0.1705 -0.6982
14465SOL    HW244206   1.187   6.063   5.874 -0.2873 -0.2875  2.8477
14466SOL     OW44207   0.110   3.035   2.002 -0.4487 -0.2487  0.0425
14466SOL    HW144208   0.083   3.116   2.044 -3.3511 -1.2173  0.2643
14466SOL    HW244209   0.142   2.980   2.073  0.7160  0.3561  0.0088
14467SOL     OW44210   2.070   4.288   4.029  0.1709  0.3785  0.3645
14467SOL    HW144211   2.069   4.298   3.934  2.4507  1.9643  0.4100
14467SOL    HW244212   2.153   4.244   4.048 -0.1498  0.2659  1.6265
14468SOL     OW44213   7.834   2.361   4.299 -0.1955 -0.4635 -0.0050
14468SOL    HW144214   7.816   2.346   4.206  0.1462 -1.3516  0.0621
14468SOL    HW244215   7.764   2.315   4.344  0.2323 -0.9304  0.1908
14469SOL     OW44216   7.241   0.574   0.722  0.1046  0.6793 -0.5272
14469SOL    HW144217   7.285   0.596   0.640  0.5860 -0.3604 -0.5596
14469SOL    HW244218   7.164   0.632   0.724 -1.0854 -0.6529 -2.7187
14470SOL     OW44219   4.375   1.360   4.331 -0.0532 -0.3772 -0.1848
14470SOL    HW144220   4.457   1.392   4.368  0.7512 -0.8235 -1.4851
14470SOL    HW244221   4.401   1.287   4.275 -1.7605 -3.1083  2.3060
14471SOL     OW44222   1.315   5.018   1.908 -0.0241 -0.5043  0.0236
14471SOL    HW144223   1.333   4.945   1.849  0.5354 -1.2982  1.1485
14471SOL    HW244224   1.389   5.078   1.896 -0.6314  0.0458 -1.1171
14472SOL     OW44225   6.835   2.494   0.543 -0.4765  0.4044  0.5171
14472SOL    HW144226   6.907   2.477   0.482 -0.3001  2.1956  0.1775
14472SOL    HW244227   6.765   2.527   0.488 -0.4993  1.5413  1.2006
14473SOL     OW44228   0.786   5.628   0.097  0.3873  0.2423  0.1229
14473SOL    HW144229   0.731   5.704   0.079  1.3080  0.5838 -1.4441
14473SOL    HW244230   0.822   5.604   0.012  1.4155 -0.9386  0.8600
14474SOL     OW44231   0.371   1.523   0.292 -0.2120 -0.2933 -0.4344
14474SOL    HW144232   0.364   1.617   0.276 -1.5463 -0.4955 -1.1894
14474SOL    HW244233   0.290   1.486   0.257  0.7440 -1.8623 -1.1138
14475SOL     OW44234   7.555   6.230   2.749 -0.5373 -0.3658  0.2306
14475SOL    HW144235   7.629   6.224   2.689  0.0177 -0.3923  0.8948
14475SOL    HW244236   7.594   6.262   2.831 -1.5230  1.2143  0.1296
14476SOL     OW44237   0.398   6.251   1.921 -0.3641 -0.2962 -0.2185
14476SOL    HW144238   0.325   6.313   1.913  2.2395  2.8390 -2.2237
14476SOL    HW244239   0.444   6.280   1.999  0.4029 -0.2534 -0.6830
14477SOL     OW44240   0.792   1.147   3.210 -0.5044  0.0558 -0.4631
14477SOL    HW144241   0.699   1.169   3.211 -1.2206 -2.6569  0.0362
14477SOL    HW244242   0.807   1.099   3.291  1.0880 -0.4256 -1.0023
14478SOL     OW44243   2.385   0.379   5.186 -0.6266 -0.0645 -0.0558
14478SOL    HW144244   2.390   0.321   5.262  1.1059 -0.2413 -0.2643
14478SOL    HW244245   2.292   0.401   5.178 -1.2041 -2.1229  0.5229
14479SOL     OW44246   0.191   1.150   2.210 -0.2965  0.1972  0.3541
14479SOL    HW144247   0.118   1.188   2.258 -0.3150 -0.0221  0.4974
14479SOL    HW244248   0.217   1.219   2.148 -1.1138 -0.0022 -0.2284
14480SOL     OW44249   4.140   7.451   2.235  0.0395 -0.0786  0.2758
14480SOL    HW144250   4.097   7.368   2.254  0.6689 -0.0270  2.1396
14480SOL    HW244251   4.070   7.516   2.240 -0.0161 -0.2012  1.5884
14481SOL     OW44252   5.941   4.051   4.279  0.7851  0.4855  0.2273
14481SOL    HW144253   5.961   3.961   4.252  1.6114  1.0017 -0.9755
14481SOL    HW244254   5.947   4.102   4.198  0.9023  1.7294  0.9893
14482SOL     OW44255   5.195   3.611   3.313  0.0377 -0.2332  0.2276
14482SOL    HW144256   5.147   3.684   3.273  1.8347 -0.1813 -2.0762
14482SOL    HW244257   5.138   3.535   3.299 -1.9892  0.6510  2.9192
14483SOL     OW44258   0.210   5.708   2.553  0.6160 -0.2275  0.3466
14483SOL    HW144259   0.285   5.763   2.577  0.5949 -0.1324  0.1931
14483SOL    HW244260   0.185   5.665   2.635  1.2156 -0.7190  0.2795
14484SOL     OW44261   7.694   1.923   5.974 -0.9096 -0.1330 -0.3050
14484SOL    HW144262   7.697   1.876   5.891  1.7039 -0.6690 -0.0054
14484SOL    HW244263   7.682   1.854   6.040 -1.2653  0.0998 -0.1228
14485SOL     OW44264   5.595   7.391   2.160  0.6315  0.5412  0.0823
14485SOL    HW144265   5.500   7.403   2.159  0.6573  0.7176 -0.1938
14485SOL    HW244266   5.607   7.296   2.151  0.4348  0.2729  2.2692
14486SOL     OW44267   6.265   1.062   2.874  0.4269 -0.1279  0.0838
14486SOL    HW144268   6.202   1.030   2.939  0.0602 -0.0287 -0.2219
14486SOL    HW244269   6.212   1.109   2.810  0.8931  0.5890  0.2111
14487SOL     OW44270   0.154   5.678   4.967 -0.3673 -0.1602  0.2329
14487SOL    HW144271   0.092   5.741   5.003 -2.3944 -0.6975 -2.1230
14487SOL    HW244272   0.187   5.720   4.887  0.6441 -0.8092  0.2949
14488SOL     OW44273   1.731   3.500   2.613  0.2041  0.0508 -0.3928
14488SOL    HW144274   1.639   3.475   2.613 -0.1788  1.1996 -3.2098
14488SOL    HW244275   1.767   3.460   2.534  1.7829  0.8494 -0.1116
14489SOL     OW44276   7.464   7.939   6.440  0.0237 -0.1929 -0.0625
14489SOL    HW144277   7.529   7.984   6.494  0.2395 -0.9060  0.2751
14489SOL    HW244278   7.390   7.924   6.499  0.1409 -0.7006 -0.0410
14490SOL     OW44279   0.005   5.728   0.240 -0.3773  0.2423  0.0301
14490SOL    HW144280   0.056   5.782   0.179  0.0059  0.2802  0.3819
14490SOL    HW244281   0.000   5.780   0.320  1.3508 -0.8827  0.9197
14491SOL     OW44282   2.290   0.239   4.481 -0.3602  0.3453 -0.1783
14491SOL    HW144283   2.240   0.305   4.529 -1.7969 -1.3906  0.8404
14491SOL    HW244284   2.372   0.231   4.530 -1.0553 -0.0994  0.9538
14492SOL     OW44285   7.710   4.028   2.033 -0.1866 -0.6672 -0.3746
14492SOL    HW144286   7.642   4.010   2.097  0.5923 -1.0241  0.3736
14492SOL    HW244287   7.694   4.118   2.006 -0.0180 -0.2082  0.9750
14493SOL     OW44288   1.636   7.798   0.430  0.3568 -0.7082  0.5355
14493SOL    HW144289   1.588   7.741   0.370 -0.1441 -2.0444  2.1350
14493SOL    HW244290   1.602   7.776   0.517  0.2605  1.9430  1.2607
14494SOL     OW44291   3.960   4.697   0.168 -0.3668 -0.1462  0.4796
14494SOL    HW144292   4.047   4.658   0.173 -0.3724 -0.2033  0.1302
14494SOL    HW244293   3.949   4.741   0.253  0.7479  1.4209 -0.1374
14495SOL     OW44294   3.809   7.889   4.432  0.3328 -0.2149 -0.2407
14495SOL    HW144295   3.823   7.976   4.471 -0.6457 -0.1588  0.0080
14495SOL    HW244296   3.717   7.889   4.405  0.4141 -1.0552 -0.5470
14496SOL     OW44297   2.510   5.574   5.445 -0.5669  0.4023  0.0679
14496SOL    HW144298   2.435   5.561   5.387 -1.6220  1.4577  1.1249
14496SOL    HW244299   2.488   5.652   5.496 -0.8159 -1.6666  3.5182
14497SOL     OW44300   3.631   5.615   3.660  0.7895  0.0802  0.2319
14497SOL    HW144301   3.682   5.672   3.718  2.5997 -1.7226  0.5203
14497SOL    HW244302   3.560   5.583   3.714  0.1694  1.4612  0.2721
14498SOL     OW44303   4.163   3.386   7.797  0.0114  0.3801  0.1614
14498SOL    HW144304   4.211   3.462   7.828  0.5622  0.6348 -1.2543
14498SOL    HW244305   4.082   3.385   7.849  0.2270  1.6229  0.5352
14499SOL     OW44306   2.078   4.162   7.998 -0.1961 -0.0066 -0.4127
14499SOL    HW144307   2.100   4.069   7.990  0.2090 -0.2368  2.4344
14499SOL    HW244308   2.050   4.172   8.088 -0.6595  2.5930 -0.7787
14500SOL     OW44309   3.338   1.724   0.871 -0.2934  0.1782  0.4000
14500SOL    HW144310   3.273   1.695   0.807  1.5175 -1.9424 -0.6127
14500SOL    HW244311   3.296   1.712   0.956 -2.7813  3.1053 -0.2100
14501SOL     OW44312   7.347   0.055   4.997  0.0894  0.0328  0.4136
14501SOL    HW144313   7.325  -0.031   4.960  1.1235  0.2699 -0.8417
14501SOL    HW244314   7.412   0.091   4.936 -0.5847  1.8627  0.7188
14502SOL     OW44315   4.745   4.867   1.379  0.0205  0.1873  0.2977
14502SOL    HW144316   4.738   4.809   1.303 -2.1827  0.5548  0.1451
14502SOL    HW244317   4.798   4.818   1.442  1.9390 -0.1150 -1.4257
14503SOL     OW44318   1.769   3.316   3.056 -0.2591 -0.2473  0.4241
14503SOL    HW144319   1.849   3.355   3.091 -0.5602  1.6795 -0.8892
14503SOL    HW244320   1.758   3.356   2.970 -1.4807 -2.1121 -0.3453
14504SOL     OW44321   3.302   5.917   2.882  0.1225 -0.0964 -0.4056
14504SOL    HW144322   3.287   5.823   2.888 -2.2838  0.2752  1.0003
14504SOL    HW244323   3.337   5.941   2.968 -0.9630  0.5023 -0.1109
14505SOL     OW44324   4.414   7.887   3.616  0.5305  0.0729 -0.0806
14505SOL    HW144325   4.492   7.850   3.575 -0.2549 -0.5186 -1.0878
14505SOL    HW244326   4.412   7.978   3.586  0.9602  0.1551  0.1420
14506SOL     OW44327   5.391   3.838   7.849  0.3546 -0.0401 -0.1680
14506SOL    HW144328   5.460   3.778   7.877 -0.0378 -0.4668 -0.1045
14506SOL    HW244329   5.360   3.801   7.766  0.0437  0.0132 -0.0787
14507SOL     OW44330   0.094   6.820   5.587  0.0808  0.3197 -0.2353
14507SOL    HW144331   0.010   6.858   5.613  0.0057 -0.5961  0.9462
14507SOL    HW244332   0.116   6.866   5.506 -2.1920 -0.3356 -1.3159
14508SOL     OW44333   6.368   3.998   1.158  0.5635 -0.0394 -0.5598
14508SOL    HW144334   6.305   3.968   1.093  0.4095 -2.5345  0.6191
14508SOL    HW244335   6.449   3.952   1.136  0.9597  0.3395  0.0636
14509SOL     OW44336   7.301   4.589   4.451  0.4304  0.1254  0.5185
14509SOL    HW144337   7.260   4.651   4.512 -0.2830  0.1332  0.0516
14509SOL    HW244338   7.248   4.510   4.459  2.2835 -1.0198  2.2787
14510SOL     OW44339   4.149   3.247   0.280 -0.5172 -0.3915  0.2076
14510SOL    HW144340   4.079   3.311   0.269  0.2125  0.4124  0.1221
14510SOL    HW244341   4.218   3.295   0.325 -0.8357 -1.7505  2.2841
14511SOL     OW44342   7.288   3.506   6.935 -0.2219  0.2745  0.2110
14511SOL    HW144343   7.267   3.595   6.964 -2.5317  0.3419 -1.3402
14511SOL    HW244344   7.292   3.455   7.015 -2.1399  1.2130  0.9736
14512SOL     OW44345   6.224   2.354   4.864 -0.0653 -0.0308  0.0448
14512SOL    HW144346   6.155   2.313   4.915 -0.4013  0.6658  0.1712
14512SOL    HW244347   6.305   2.317   4.898 -0.3558 -0.5704  0.1608
14513SOL     OW44348   4.460   2.605   3.662  0.0498 -0.9415 -0.0401
14513SOL    HW144349   4.497   2.545   3.597 -1.9762 -0.1012 -2.1038
14513SOL    HW244350   4.365   2.595   3.653 -0.4187  2.8032 -0.8086
14514SOL     OW44351   0.700   4.206   5.124  0.2389  1.1042 -0.6332
14514SOL    HW144352   0.706   4.292   5.166 -3.1562  1.5596 -0.8420
14514SOL    HW244353   0.609   4.199   5.097  0.7603 -2.0007 -1.9295
14515SOL     OW44354   0.213   6.752   2.643 -0.2663 -0.4776  0.2994
14515SOL    HW144355   0.306   6.765   2.663 -0.4351  1.6649 -0.0905
14515SOL    HW244356   0.172   6.835   2.666 -2.0714 -1.3211  0.2622
14516SOL     OW44357   4.060   1.054   4.159  0.4086 -0.0509 -0.3960
14516SOL    HW144358   4.079   1.069   4.251 -0.1522  0.9313 -0.4335
14516SOL    HW244359   4.132   0.998   4.128  0.1692 -1.0751  0.8194
14517SOL     OW44360   1.067   0.434   5.055 -0.2044  0.6112  0.6612
14517SOL    HW144361   1.002   0.366   5.072 -0.0859 -0.0474 -1.2802
14517SOL    HW244362   1.150   0.388   5.050 -0.0442  0.9555 -0.0822
14518SOL     OW44363   4.683   7.765   2.443 -0.1415  0.4038  0.3450
14518SOL    HW144364   4.764   7.746   2.395  0.3827 -1.0689  1.7233
14518SOL    HW244365   4.698   7.852   2.481 -0.0311  1.0004 -1.0113
14519SOL     OW44366   6.233   5.028   6.693  0.7035 -0.1195 -0.1649
14519SOL    HW144367   6.198   5.001   6.608  0.0085  0.7416 -0.1564
14519SOL    HW244368   6.299   4.961   6.714  0.7659 -0.4245 -1.2994
14520SOL     OW44369   4.507   1.027   4.072  0.3208  0.4281 -0.6197
14520SOL    HW144370   4.413   1.021   4.058  0.2901 -0.6760 -0.0220
14520SOL    HW244371   4.543   0.947   4.035  1.2096  1.4441 -2.0869
14521SOL     OW44372   5.737   2.666   2.363 -0.1950  0.4241  0.1126
14521SOL    HW144373   5.644   2.641   2.367 -0.0559 -0.4123 -1.3540
14521SOL    HW244374   5.748   2.706   2.277  0.6733  1.1607  0.5456
14522SOL     OW44375   6.280   5.942   6.054 -0.4843  0.0997  0.1756
14522SOL    HW144376   6.300   6.009   5.989 -2.7874  0.7854  0.0886
14522SOL    HW244377   6.213   5.887   6.012  0.3288 -1.4325  0.7813
14523SOL     OW44378   7.831   5.914   1.418 -0.4071 -0.0238  0.2711
14523SOL    HW144379   7.771   5.896   1.347 -1.9401  0.3996  1.4119
14523SOL    HW244380   7.818   6.007   1.438  2.1742  0.6602 -0.8165
14524SOL     OW44381   5.706   3.969   1.874  0.3979 -0.6378 -0.1545
14524SOL    HW144382   5.720   4.062   1.889  1.0913 -0.9022  0.9325
14524SOL    HW244383   5.771   3.945   1.808  1.6074 -0.7439  1.0211
14525SOL     OW44384   7.965   4.701   1.606 -0.4410 -0.1748  0.2411
14525SOL    HW144385   8.011   4.617   1.598  1.7785  1.0857 -1.2729
14525SOL    HW244386   7.893   4.683   1.667  1.3879 -2.5751  1.8819
14526SOL     OW44387   7.561   6.274   4.264  0.0222 -0.3080  0.3192
14526SOL    HW144388   7.653   6.289   4.284  0.5146 -1.0231 -1.2409
14526SOL    HW244389   7.529   6.358   4.232  0.2682 -0.1809  0.4085
14527SOL     OW44390   3.531   0.241   6.058  0.1500  0.2191 -0.3242
14527SOL    HW144391   3.595   0.267   6.124 -1.0729 -1.4980  1.6467
14527SOL    HW244392   3.523   0.318   6.001  2.2448  1.2727  0.7002
14528SOL     OW44393   3.004   7.296   6.176  0.1098  0.0811  0.0016
14528SOL    HW144394   2.938   7.364   6.182  0.5804  0.4791  0.8080
14528SOL    HW244395   2.967   7.222   6.223 -0.5063 -0.3230 -1.0870
14529SOL     OW44396   4.669   3.596   0.969  0.0288 -0.4825 -0.1521
14529SOL    HW144397   4.611   3.650   0.915  0.7817  0.2358 -0.2637
14529SOL    HW244398   4.690   3.651   1.045 -0.5805 -1.2778  0.6287
14530SOL     OW44399   3.048   4.225   0.754  0.6036  0.1757  0.3847
14530SOL    HW144400   2.956   4.250   0.766 -0.2097 -0.4210 -3.2477
14530SOL    HW244401   3.095   4.309   0.755 -0.6648  1.0128 -1.7864
14531SOL     OW44402   1.223   6.356   3.536 -0.5734 -0.0946  0.1511
14531SOL    HW144403   1.132   6.347   3.564 -0.1815 -0.9320  1.2267
14531SOL    HW244404   1.273   6.305   3.600  0.8480  1.9367  0.7771
14532SOL     OW44405   7.689   2.239   7.934 -0.0563  0.2237  0.3376
14532SOL    HW144406   7.682   2.153   7.975  2.3035  0.1119  0.6137
14532SOL    HW244407   7.758   2.229   7.869  1.8385  2.3765  1.8390
14533SOL     OW44408   2.496   5.551   7.018  0.3025  0.9898 -0.3993
14533SOL    HW144409   2.461   5.611   6.952 -0.4137 -0.0950 -1.0371
14533SOL    HW244410   2.429   5.483   7.027  0.8431  0.5812  0.7074
14534SOL     OW44411   6.138   5.416   3.589  0.6295 -0.2055  0.2113
14534SOL    HW144412   6.140   5.404   3.684  0.9947  0.2277  0.2645
14534SOL    HW244413   6.212   5.475   3.571  0.0197  0.4479 -0.2261
14535SOL     OW44414   4.980   4.245   5.260 -0.0069 -0.3166 -0.2389
14535SOL    HW144415   4.897   4.293   5.259  0.3043  0.2359  0.2989
14535SOL    HW244416   5.047   4.312   5.264  0.5408 -0.7049 -2.0124
14536SOL     OW44417   7.588   4.638   4.075 -0.0238 -0.2156 -0.4306
14536SOL    HW144418   7.610   4.546   4.093  0.1403 -0.5969 -2.3745
14536SOL    HW244419   7.565   4.639   3.983 -1.7697  1.4090 -0.0344
14537SOL     OW44420   2.768   4.400   2.905  0.0455 -0.7429 -0.3584
14537SOL    HW144421   2.716   4.326   2.935  1.0386 -1.1518  0.3982
14537SOL    HW244422   2.735   4.475   2.956 -1.5050 -0.4721 -1.6961
14538SOL     OW44423   5.360   7.030   2.544  0.2325  0.7362 -0.8353
14538SOL    HW144424   5.298   6.996   2.608  0.3258 -1.4750 -1.8422
14538SOL    HW244425   5.444   7.028   2.590  0.2966 -0.8274 -0.9662
14539SOL     OW44426   0.827   0.049   3.106 -0.7503 -0.3405  0.7695
14539SOL    HW144427   0.819   0.122   3.046  0.1920 -0.7903  0.0851
14539SOL    HW244428   0.737   0.034   3.137 -1.0550  0.6489  0.3945
14540SOL     OW44429   7.984   5.938   4.335  0.9209  0.1415 -0.0960
14540SOL    HW144430   7.896   5.900   4.335  1.9235 -2.4698  1.9991
14540SOL    HW244431   8.039   5.872   4.293  2.1552  0.8957  0.2781
14541SOL     OW44432   0.507   2.498   6.588 -0.1933 -0.6444  0.4433
14541SOL    HW144433   0.499   2.593   6.600  4.0327 -0.1358  0.6037
14541SOL    HW244434   0.515   2.463   6.677  1.0583 -0.7533  0.3018
14542SOL     OW44435   3.363   4.290   6.578  0.5192  0.5346  0.1319
14542SOL    HW144436   3.330   4.306   6.490 -1.1695  0.9586  0.7848
14542SOL    HW244437   3.305   4.222   6.613  1.1986  0.3267  0.8931
14543SOL     OW44438   0.482   2.772   2.552  0.1272 -0.2518  0.2080
14543SOL    HW144439   0.458   2.752   2.643 -0.6333  0.6680  0.2326
14543SOL    HW244440   0.404   2.816   2.517  1.3049  1.6199 -0.1508
14544SOL     OW44441   1.264   3.480   3.536 -0.1244 -0.3880 -0.2476
14544SOL    HW144442   1.256   3.443   3.448 -1.0452 -0.0879 -0.3057
14544SOL    HW244443   1.205   3.427   3.590 -2.0335  1.3489 -0.4742
14545SOL     OW44444   2.611   4.919   5.748 -0.0750 -0.0826  0.0466
14545SOL    HW144445   2.689   4.896   5.798  0.5216 -1.6197 -1.5118
14545SOL    HW244446   2.559   4.972   5.809  1.2774 -0.6468  1.7839
14546SOL     OW44447   3.291   0.680   7.514  0.0601  0.1639  0.3156
14546SOL    HW144448   3.265   0.628   7.438  2.3860 -2.1028  0.9209
14546SOL    HW244449   3.310   0.615   7.582 -0.5421  2.0475  2.4097
14547SOL     OW44450   7.510   6.759   6.075  0.1529 -0.2764 -0.3943
14547SOL    HW144451   7.599   6.758   6.110  0.8678 -0.9588 -2.0894
14547SOL    HW244452   7.469   6.679   6.109 -0.5233  0.9622  1.9301
14548SOL     OW44453   0.805   7.482   0.286  0.5636  0.3901 -0.0385
14548SOL    HW144454   0.793   7.540   0.211  0.5550  1.1974  0.5682
14548SOL    HW244455   0.760   7.401   0.261 -3.3782  2.0967  0.7634
14549SOL     OW44456   7.174   4.276   6.985  0.1511 -0.2508  0.2367
14549SOL    HW144457   7.088   4.285   7.027 -0.8956  3.0312 -2.2213
14549SOL    HW244458   7.156   4.230   6.903  0.5664  1.0285 -0.5972
14550SOL     OW44459   3.019   0.869   4.794  0.2081 -0.4573 -0.3768
14550SOL    HW144460   3.021   0.961   4.769  0.6143 -0.3623 -0.0016
14550SOL    HW244461   2.982   0.824   4.718  1.9072 -0.2461 -1.3796
14551SOL     OW44462   3.605   2.205   7.477  0.4101  0.0983  0.3768
14551SOL    HW144463   3.517   2.234   7.453  0.6759  0.4801 -0.1610
14551SOL    HW244464   3.662   2.278   7.451  1.1611 -1.0939 -1.5430
14552SOL     OW44465   1.718   0.647   2.104  0.0550  0.2587  0.5830
14552SOL    HW144466   1.689   0.659   2.014 -0.8072 -1.1768  0.6367
14552SOL    HW244467   1.780   0.574   2.100  1.2659  1.2268  0.9461
14553SOL     OW44468   4.824   2.059   5.691 -0.6529 -0.2199  0.5513
14553SOL    HW144469   4.760   2.065   5.763  0.3126  2.2908  1.3100
14553SOL    HW244470   4.794   2.123   5.627 -0.2918 -0.8864 -0.3094
14554SOL     OW44471   5.871   0.949   2.563 -0.3351 -0.9931  0.0716
14554SOL    HW144472   5.822   0.868   2.551 -0.6376 -0.5627 -1.9175
14554SOL    HW244473   5.814   1.017   2.528  0.1808  0.0042  1.1274
14555SOL     OW44474   0.476   1.934   3.610  0.3143  0.1148 -0.0634
14555SOL    HW144475   0.521   1.949   3.527  1.2328  0.1611  0.4226
14555SOL    HW244476   0.389   1.972   3.598  0.5328  0.3617 -0.9064
14556SOL     OW44477   1.876   6.244   0.882  0.1303  0.6637 -0.2963
14556SOL    HW144478   1.968   6.247   0.905  0.2430  2.1276 -0.8398
14556SOL    HW244479   1.871   6.283   0.795 -0.7653 -1.2558 -1.1708
14557SOL     OW44480   7.697   6.082   7.356  0.0799  0.0197 -0.3697
14557SOL    HW144481   7.692   6.020   7.429 -0.9145 -0.8925 -1.1837
14557SOL    HW244482   7.634   6.150   7.378 -0.0767 -0.1486 -0.2958
14558SOL     OW44483   2.793   5.163   4.605 -0.4746 -0.0165  0.0789
14558SOL    HW144484   2.829   5.096   4.546  2.3612  1.2148  0.2732
14558SOL    HW244485   2.768   5.235   4.547 -1.4573 -0.3466  0.0722
14559SOL     OW44486   6.097   3.587   0.515  0.2959  0.2565 -0.5209
14559SOL    HW144487   6.053   3.655   0.566  3.8614  1.0334  1.9006
14559SOL    HW244488   6.163   3.634   0.464  0.9568 -1.1408 -1.0155
14560SOL     OW44489   7.919   6.569   1.948  0.1574  0.6969  0.1999
14560SOL    HW144490   7.942   6.551   2.039 -0.2630 -0.7480  0.0415
14560SOL    HW244491   7.827   6.542   1.940 -0.5021  2.7874 -0.1500
14561SOL     OW44492   4.548   2.069   2.042 -0.1413 -0.0441  0.8105
14561SOL    HW144493   4.628   2.053   2.092  0.4118  1.0908  0.3297
14561SOL    HW244494   4.549   2.003   1.973  0.4531  0.0350  0.7377
14562SOL     OW44495   3.909   6.612   2.879  0.1837  0.3264 -0.4052
14562SOL    HW144496   3.922   6.683   2.817  0.8072 -0.3678 -1.0902
14562SOL    HW244497   3.990   6.609   2.930  0.2856 -0.0796 -0.5855
14563SOL     OW44498   5.598   2.431   4.874 -0.4512  0.2923 -0.0230
14563SOL    HW144499   5.595   2.462   4.783 -1.8018  0.1371 -0.0503
14563SOL    HW244500   5.515   2.385   4.887  0.1723 -0.5924  0.9853
14564SOL     OW44501   7.009   7.769   3.450 -0.4662  0.7145 -0.0759
14564SOL    HW144502   6.934   7.808   3.404 -0.2464  2.3542  0.8744
14564SOL    HW244503   6.982   7.769   3.542 -0.3178 -1.1526  0.0015
14565SOL     OW44504   1.216   7.050   5.461  0.3343  0.3731  0.4182
14565SOL    HW144505   1.300   7.013   5.435  0.1119 -1.1588  1.7121
14565SOL    HW244506   1.210   7.133   5.414  2.2894  0.2261 -0.1539
14566SOL     OW44507   1.621   0.799   3.634  0.4322  0.4602 -0.8950
14566SOL    HW144508   1.642   0.818   3.726 -0.5970 -0.2052 -0.5022
14566SOL    HW244509   1.630   0.704   3.627 -2.4832  0.0684 -0.6209
14567SOL     OW44510   7.435   0.551   6.826 -0.2701  0.3555 -0.3986
14567SOL    HW144511   7.524   0.560   6.792  0.7554  1.6624  2.2840
14567SOL    HW244512   7.413   0.459   6.814  0.9578  0.2607 -2.1720
14568SOL     OW44513   6.436   3.095   4.578 -0.2266 -0.2687  0.0258
14568SOL    HW144514   6.479   3.018   4.616  0.4505  1.0439  2.1040
14568SOL    HW244515   6.474   3.169   4.626 -2.1989  1.2315 -0.6161
14569SOL     OW44516   6.860   1.455   3.651  0.4314 -0.2934  0.2949
14569SOL    HW144517   6.786   1.394   3.656 -2.1748  2.5788  0.0128
14569SOL    HW244518   6.870   1.489   3.740  0.3839  0.4244  0.0354
14570SOL     OW44519   6.545   5.677   6.006  0.5553 -0.8611  0.0311
14570SOL    HW144520   6.519   5.590   5.973 -0.4102 -0.2606 -0.8549
14570SOL    HW244521   6.470   5.733   5.988  1.6998  0.4948 -0.7427
14571SOL     OW44522   0.420   6.449   4.238 -0.4306 -0.0039  0.4453
14571SOL    HW144523   0.472   6.516   4.281  0.1250 -0.4645  0.5041
14571SOL    HW244524   0.431   6.371   4.294  0.9865 -0.8545 -0.9501
14572SOL     OW44525   2.791   7.793   2.237  0.2237  0.5230  0.2557
14572SOL    HW144526   2.843   7.824   2.163  0.9637  2.3313  1.4453
14572SOL    HW244527   2.851   7.737   2.287  0.2730  0.7005  0.3949
14573SOL     OW44528   4.583   2.047   5.906  0.3101 -0.0397 -0.0480
14573SOL    HW144529   4.612   2.095   5.984  0.9392  0.7780 -0.7616
14573SOL    HW244530   4.498   2.086   5.884  1.0959  1.2263 -0.9819
14574SOL     OW44531   1.802   2.596   6.559 -0.7522 -0.6172 -0.1726
14574SOL    HW144532   1.779   2.519   6.507 -0.6042 -0.0062 -1.1702
14574SOL    HW244533   1.814   2.666   6.494 -0.0877  0.0486  0.6482
14575SOL     OW44534   6.649   4.127   4.625  0.9579 -0.1157 -0.1536
14575SOL    HW144535   6.709   4.059   4.656  0.3326 -0.4718  0.3169
14575SOL    HW244536   6.572   4.079   4.596 -0.0962  0.4520  1.5619
14576SOL     OW44537   7.853   2.741   2.892 -0.1304  0.2272  0.4075
14576SOL    HW144538   7.875   2.803   2.961  0.3266  1.1366 -0.5499
14576SOL    HW244539   7.937   2.709   2.860 -0.1545  2.1581 -1.8331
14577SOL     OW44540   5.780   6.438   4.464 -0.3293 -0.1847 -0.1639
14577SOL    HW144541   5.764   6.524   4.501 -0.1321 -0.6149  0.9772
14577SOL    HW244542   5.727   6.435   4.384 -1.7258  0.3528  0.7062
14578SOL     OW44543   3.186   2.428   4.057  0.3541 -0.4191 -0.0438
14578SOL    HW144544   3.210   2.466   3.973 -1.0369  1.3020  0.2767
14578SOL    HW244545   3.194   2.501   4.119 -0.4051 -1.1801  0.9731
14579SOL     OW44546   2.354   6.151   2.192 -0.0699  0.6347  0.1900
14579SOL    HW144547   2.371   6.149   2.286  0.0883  0.3052  0.1581
14579SOL    HW244548   2.260   6.167   2.184 -0.5998 -1.9258  0.4617
14580SOL     OW44549   1.590   4.755   4.611 -1.1341 -0.3595  0.1510
14580SOL    HW144550   1.625   4.797   4.533 -2.2176 -1.4529 -0.9619
14580SOL    HW244551   1.596   4.823   4.679  1.5751  0.0179 -0.3351
14581SOL     OW44552   5.109   3.787   1.541 -0.2990  0.0940 -0.3860
14581SOL    HW144553   5.096   3.881   1.526 -1.5322  0.2531  1.4705
14581SOL    HW244554   5.199   3.781   1.574 -0.1760  0.6051 -0.6126
14582SOL     OW44555   2.445   0.188   7.149 -0.3910  0.1207  0.0237
14582SOL    HW144556   2.486   0.256   7.096  0.2144 -0.8606 -0.7971
14582SOL    HW244557   2.512   0.163   7.212  0.0866 -1.0242 -0.8994
14583SOL     OW44558   1.346   0.889   3.064 -0.5999  0.6250 -0.1586
14583SOL    HW144559   1.370   0.887   2.972  1.6359  2.1162  0.3059
14583SOL    HW244560   1.322   0.980   3.081 -1.1750  0.3300  0.6987
14584SOL     OW44561   5.051   4.322   4.599  0.0743 -0.3935  0.4999
14584SOL    HW144562   5.043   4.230   4.625 -1.4192 -0.4189  0.0248
14584SOL    HW244563   5.130   4.324   4.544 -0.0622 -1.4637  0.2415
14585SOL     OW44564   1.576   6.048   0.385 -0.0895  0.1555  0.0808
14585SOL    HW144565   1.505   5.992   0.417  0.0648 -0.1408 -0.0912
14585SOL    HW244566   1.586   6.024   0.293  1.6347 -1.3145  0.5955
14586SOL     OW44567   4.519   3.462   3.077  0.4913 -0.9846  0.1169
14586SOL    HW144568   4.588   3.495   3.135  0.1245 -3.1147  1.8692
14586SOL    HW244569   4.442   3.454   3.133 -0.9913  0.5059 -1.6100
14587SOL     OW44570   5.022   4.245   0.492  0.1900 -0.7713 -0.0019
14587SOL    HW144571   5.001   4.321   0.545  1.5395  0.1011 -0.6749
14587SOL    HW244572   4.975   4.173   0.534 -0.4736  0.2725  1.1066
14588SOL     OW44573   4.670   2.131   7.489  0.0163  0.1279  0.1523
14588SOL    HW144574   4.687   2.175   7.573  0.9287  0.7558 -0.3443
14588SOL    HW244575   4.712   2.187   7.424 -1.3198  0.0325 -0.8163
14589SOL     OW44576   1.334   1.860   4.527  0.2421  0.6500 -0.4813
14589SOL    HW144577   1.285   1.934   4.491  0.6125  2.0957  1.7783
14589SOL    HW244578   1.278   1.826   4.597  0.2014 -1.0861 -1.2990
14590SOL     OW44579   6.365   7.337   1.249 -0.5357 -0.1510  0.7713
14590SOL    HW144580   6.292   7.343   1.188  2.3831  0.6530 -2.9853
14590SOL    HW244581   6.387   7.427   1.271 -0.1864 -0.3420  1.2390
14591SOL     OW44582   6.604   2.572   0.402  0.4564 -0.3080  0.4321
14591SOL    HW144583   6.584   2.595   0.311 -0.1304  1.0695  0.8800
14591SOL    HW244584   6.577   2.649   0.452  5.4183  1.1731  1.3124
14592SOL     OW44585   4.994   3.731   7.803  0.1205  0.4396 -0.1488
14592SOL    HW144586   4.977   3.646   7.842 -0.6727 -0.5833 -2.5593
14592SOL    HW244587   5.056   3.773   7.863 -1.2212 -0.8725  2.2740
14593SOL     OW44588   3.656   4.373   2.112 -0.9334 -0.1097  0.1214
14593SOL    HW144589   3.627   4.315   2.041  3.0717 -1.6594 -0.4875
14593SOL    HW244590   3.701   4.445   2.067 -0.0809 -0.0580  1.0429
14594SOL     OW44591   5.069   7.637   6.786  0.3021 -0.3475  0.8721
14594SOL    HW144592   5.135   7.653   6.719 -0.1670 -1.1949  0.1768
14594SOL    HW244593   5.036   7.549   6.766 -2.7382  0.9233 -0.3092
14595SOL     OW44594   7.192   3.217   0.003 -0.2927 -0.3662  0.0470
14595SOL    HW144595   7.175   3.262  -0.080 -0.3233  0.1720  0.3415
14595SOL    HW244596   7.287   3.206   0.005 -0.4741 -3.6840 -1.7632
14596SOL     OW44597   5.836   0.769   6.101 -0.1973  0.6549 -0.0923
14596SOL    HW144598   5.926   0.799   6.093 -0.6520  1.6184 -2.9545
14596SOL    HW244599   5.785   0.831   6.049 -2.6338  0.4185  1.7790
14597SOL     OW44600   0.155   3.496   2.876 -0.2892 -0.2189  0.3182
14597SOL    HW144601   0.219   3.548   2.924 -0.2604 -0.6338  0.7398
14597SOL    HW244602   0.115   3.557   2.814  1.7727 -0.3524 -1.2196
14598SOL     OW44603   6.849   7.673   3.720  0.5258 -0.5494  0.2157
14598SOL    HW144604   6.827   7.766   3.726  0.4478 -0.5720  0.2880
14598SOL    HW244605   6.879   7.650   3.808 -3.7288 -1.7014  1.6018
14599SOL     OW44606   7.838   0.123   2.630 -0.6697 -0.3115 -0.4847
14599SOL    HW144607   7.795   0.038   2.620  0.5730 -0.7873 -2.5163
14599SOL    HW244608   7.793   0.181   2.568 -0.6913  0.1614 -0.0338
14600SOL     OW44609   5.179   6.438   5.461 -0.5826  0.6715  0.3854
14600SOL    HW144610   5.109   6.463   5.401 -0.4673  1.0249  0.3986
14600SOL    HW244611   5.259   6.444   5.409 -0.6247 -0.3389  0.1921
14601SOL     OW44612   2.588   0.961   5.207 -0.0565 -0.5907 -0.1226
14601SOL    HW144613   2.641   0.997   5.135  2.2161 -1.3488  1.0766
14601SOL    HW244614   2.607   0.868   5.207 -1.0361 -0.8070  0.6813
14602SOL     OW44615   5.969   5.398   5.082  0.1665 -0.1557 -0.7167
14602SOL    HW144616   6.060   5.374   5.103 -0.0753 -1.3577 -0.9214
14602SOL    HW244617   5.916   5.339   5.136 -0.5014  0.5992 -0.5347
14603SOL     OW44618   5.267   4.503   2.440 -0.1561  0.3186  1.0323
14603SOL    HW144619   5.260   4.545   2.354  2.5121 -1.3454 -0.1219
14603SOL    HW244620   5.207   4.428   2.435 -0.4317  0.5451  0.8536
14604SOL     OW44621   0.879   0.680   4.849 -0.1634  0.3286  0.1069
14604SOL    HW144622   0.826   0.744   4.897  0.8498  1.5787 -0.3929
14604SOL    HW244623   0.827   0.600   4.852 -0.8980  0.8097  1.8461
14605SOL     OW44624   6.687   2.269   3.025 -0.0095  0.0402  0.4554
14605SOL    HW144625   6.772   2.226   3.020 -0.3436 -0.5123 -0.7426
14605SOL    HW244626   6.702   2.357   2.990  0.1406  0.0784  0.6123
14606SOL     OW44627   6.772   7.924   2.524  0.6675  0.4823 -0.0683
14606SOL    HW144628   6.721   7.971   2.590  3.1518  0.7413  1.8088
14606SOL    HW244629   6.838   7.988   2.495  1.0340 -0.3487 -1.1376
14607SOL     OW44630   2.948   4.246   0.370  0.0555 -0.1106  0.5359
14607SOL    HW144631   2.886   4.218   0.304 -0.8786  0.0181  1.3377
14607SOL    HW244632   2.919   4.333   0.396 -1.1053 -1.1033  2.8574
14608SOL     OW44633   4.060   1.110   7.105  0.5072 -0.5502  0.1566
14608SOL    HW144634   4.009   1.054   7.164  0.9755 -0.0416  1.0711
14608SOL    HW244635   4.067   1.193   7.152  1.2465 -0.2690 -0.4396
14609SOL     OW44636   4.562   4.610   1.748 -0.1988  0.0770 -0.3059
14609SOL    HW144637   4.645   4.622   1.702 -1.0646  2.2056 -1.4366
14609SOL    HW244638   4.525   4.698   1.754 -1.5391 -0.5504  1.8483
14610SOL     OW44639   4.027   0.775   0.359  0.7873 -0.1061 -0.9411
14610SOL    HW144640   4.011   0.852   0.304 -1.1781  0.6523  0.5833
14610SOL    HW244641   3.995   0.800   0.445  0.6378 -2.4340 -0.2600
14611SOL     OW44642   4.533   7.413   5.598  0.1966  0.4450 -0.3590
14611SOL    HW144643   4.443   7.441   5.616  0.7645  2.5938 -0.5131
14611SOL    HW244644   4.526   7.320   5.580 -1.6825  0.0204  1.9496
14612SOL     OW44645   3.071   5.330   2.896 -0.2666  0.1838  0.0077
14612SOL    HW144646   3.164   5.342   2.913 -0.1184 -0.1583 -0.5345
14612SOL    HW244647   3.058   5.368   2.808 -0.0161 -2.4543 -1.2637
14613SOL     OW44648   1.895   7.594   2.959 -0.4766 -0.5647 -1.0705
14613SOL    HW144649   1.860   7.640   2.883 -0.5508 -0.8750 -1.2243
14613SOL    HW244650   1.989   7.591   2.944 -0.4766 -0.5034 -1.0833
14614SOL     OW44651   0.524   1.491   1.546 -0.5340 -0.3353  0.2294
14614SOL    HW144652   0.569   1.512   1.628  0.8361  0.6646 -0.7194
14614SOL    HW244653   0.494   1.401   1.558  0.7299 -0.6489  1.3710
14615SOL     OW44654   4.134   5.462   6.508  0.1228  0.1742  0.7637
14615SOL    HW144655   4.166   5.435   6.422  0.5492  4.0108 -0.4644
14615SOL    HW244656   4.211   5.454   6.565  1.5227  2.6781 -0.5775
14616SOL     OW44657   7.681   2.316   7.517  0.0258  0.0828 -0.3979
14616SOL    HW144658   7.714   2.284   7.433 -0.2618  1.7224 -1.1583
14616SOL    HW244659   7.755   2.304   7.577  1.2680  1.5822 -1.5621
14617SOL     OW44660   4.960   3.049   0.988  0.6429 -0.5915 -0.2364
14617SOL    HW144661   5.016   3.077   0.916  0.0269 -0.0409 -0.5056
14617SOL    HW244662   4.920   2.968   0.957 -0.5911  0.2916 -1.0405
14618SOL     OW44663   1.810   5.334   6.592 -0.9834  0.0534  0.3515
14618SOL    HW144664   1.742   5.396   6.616  0.3082  1.9263 -0.6038
14618SOL    HW244665   1.770   5.277   6.527 -2.5175 -0.9165  2.0445
14619SOL     OW44666   2.541   2.596   1.890  0.1830 -0.2632  0.1643
14619SOL    HW144667   2.488   2.521   1.918  1.2975 -0.5435  1.6423
14619SOL    HW244668   2.478   2.666   1.875 -0.6396 -0.5825  1.9035
14620SOL     OW44669   5.007   4.469   0.648 -0.5347 -0.0062 -0.1441
14620SOL    HW144670   4.997   4.479   0.743  1.8459 -0.5752  0.2335
14620SOL    HW244671   4.928   4.508   0.611 -2.3683 -1.3114  2.1213
14621SOL     OW44672   0.530   0.033   6.826  1.0371  0.3578 -0.3650
14621SOL    HW144673   0.454   0.035   6.884  1.3393 -0.3451  0.0622
14621SOL    HW244674   0.600   0.073   6.877  1.7192 -1.6820  0.3953
14622SOL     OW44675   6.533   1.064   3.933  0.0181 -0.4236 -0.3785
14622SOL    HW144676   6.480   1.053   4.012  0.5798 -0.5635 -0.0179
14622SOL    HW244677   6.520   0.984   3.883  2.5067 -2.0025  1.2862
14623SOL     OW44678   0.041   7.893   5.032  0.1869  0.2505 -0.2950
14623SOL    HW144679   0.064   7.801   5.048  1.2086  0.6983  0.9497
14623SOL    HW244680   0.076   7.910   4.944 -0.8601 -0.7997 -0.9399
14624SOL     OW44681   7.326   2.110   6.039 -0.3324  0.2021 -0.1742
14624SOL    HW144682   7.370   2.192   6.059  0.6101 -0.2835 -0.2142
14624SOL    HW244683   7.396   2.045   6.035 -1.1488 -0.7733  0.7291
14625SOL     OW44684   3.692   6.761   5.010  0.2179  0.0393 -0.3583
14625SOL    HW144685   3.653   6.832   4.960  0.1611  1.6522  1.8253
14625SOL    HW244686   3.783   6.788   5.024  0.8263 -1.3913 -1.3319
14626SOL     OW44687   3.708   0.649   6.453  0.0052 -0.5680  0.5835
14626SOL    HW144688   3.782   0.696   6.414 -0.1770  0.0886  1.0112
14626SOL    HW244689   3.694   0.692   6.538 -1.8792  0.4205 -0.1515
14627SOL     OW44690   1.405   2.205   4.547 -0.2679  0.0132 -0.5591
14627SOL    HW144691   1.345   2.203   4.621 -0.5642 -1.6484 -0.8137
14627SOL    HW244692   1.447   2.291   4.553  0.5076 -0.4613  2.1726
14628SOL     OW44693   0.282   3.367   7.747 -0.4528  0.4388  0.2946
14628SOL    HW144694   0.215   3.320   7.698  0.5927  0.2189 -0.9769
14628SOL    HW244695   0.352   3.303   7.759 -0.1326  0.8985  0.8944
14629SOL     OW44696   4.162   7.597   0.184 -0.3674 -0.0435  0.2118
14629SOL    HW144697   4.221   7.536   0.141 -0.8715 -0.2173 -0.2509
14629SOL    HW244698   4.114   7.639   0.112 -0.4475  0.4577  0.5530
14630SOL     OW44699   4.772   4.947   0.568 -0.4525  0.0284 -0.6665
14630SOL    HW144700   4.852   4.894   0.565 -0.9102 -0.7254  0.0813
14630SOL    HW244701   4.786   5.006   0.642  0.2420  1.2946 -1.7639
14631SOL     OW44702   1.593   5.347   7.239  0.1661 -0.3906  0.6630
14631SOL    HW144703   1.577   5.271   7.183  1.9577  0.1341 -0.6378
14631SOL    HW244704   1.688   5.347   7.253  0.1987  1.5973  0.6509
14632SOL     OW44705   3.025   7.858   1.518 -0.1998  0.1160  0.1118
14632SOL    HW144706   2.937   7.823   1.506 -0.7353  1.2306  0.7035
14632SOL    HW244707   3.083   7.786   1.491 -1.2797 -0.3914 -0.9434
14633SOL     OW44708   1.778   1.421   0.187 -0.3311 -0.2839 -0.1756
14633SOL    HW144709   1.758   1.445   0.097 -0.4359 -0.0431 -0.0912
14633SOL    HW244710   1.781   1.325   0.187 -1.8519 -0.3631 -0.1244
14634SOL     OW44711   3.429   4.657   7.947 -0.5944  0.4577  0.0489
14634SOL    HW144712   3.482   4.732   7.972  0.1189 -0.5699  1.8273
14634SOL    HW244713   3.491   4.599   7.902 -0.9673  0.6076 -0.6626
14635SOL     OW44714   3.558   0.910   6.531  0.7801  0.0565 -0.2660
14635SOL    HW144715   3.514   0.936   6.449 -0.0782 -0.1187  0.1322
14635SOL    HW244716   3.496   0.851   6.573  1.5997 -0.5448  0.1021
14636SOL     OW44717   5.808   5.166   2.118 -0.3056 -0.0671 -0.2035
14636SOL    HW144718   5.736   5.225   2.098 -0.2870 -0.0761 -0.3000
14636SOL    HW244719   5.860   5.212   2.184 -0.8718 -0.4318  0.5094
14637SOL     OW44720   3.644   7.223   6.563 -0.1046  0.0004 -0.8847
14637SOL    HW144721   3.626   7.132   6.586 -1.9069  1.2074  3.4261
14637SOL    HW244722   3.571   7.248   6.507 -0.1028 -0.9184 -1.3251
14638SOL     OW44723   6.684   2.201   6.059 -0.0634  0.5769 -0.1631
14638SOL    HW144724   6.738   2.155   6.123 -0.0271  1.6681  0.6286
14638SOL    HW244725   6.604   2.223   6.106 -0.0143  1.4422 -0.4628
14639SOL     OW44726   1.514   5.536   4.647 -0.1488  0.0110 -0.3715
14639SOL    HW144727   1.536   5.578   4.730 -0.0383  0.0525 -0.4215
14639SOL    HW244728   1.419   5.534   4.646 -0.1402 -1.3027  0.3987
14640SOL     OW44729   2.138   2.797   6.385 -0.1306 -0.2893  0.3975
14640SOL    HW144730   2.175   2.710   6.374 -0.1137 -0.3582  1.0096
14640SOL    HW244731   2.176   2.848   6.314 -1.8417 -1.3297 -1.3807
14641SOL     OW44732   3.434   4.897   4.678 -0.7489 -0.0192 -0.1332
14641SOL    HW144733   3.390   4.819   4.713 -0.5505  1.1201  2.9492
14641SOL    HW244734   3.363   4.950   4.641 -1.0898 -0.8687 -0.7440
14642SOL     OW44735   4.306   0.384   4.141 -0.0329 -0.5055 -0.0578
14642SOL    HW144736   4.286   0.303   4.095  0.5844 -0.6219 -0.1349
14642SOL    HW244737   4.398   0.374   4.168  0.3322  0.5413 -0.8598
14643SOL     OW44738   0.010   0.094   1.935  0.8360  0.3750 -0.4727
14643SOL    HW144739   0.003   0.004   1.968  1.4190  1.0913  1.7578
14643SOL    HW244740   0.102   0.104   1.910  0.5001 -0.0092 -1.9831
14644SOL     OW44741   3.916   3.890   7.897 -0.0977 -0.3495 -0.0648
14644SOL    HW144742   3.821   3.903   7.894 -0.1471 -0.3659  0.9699
14644SOL    HW244743   3.952   3.978   7.903  0.0746 -0.2200 -2.3311
14645SOL     OW44744   5.844   1.078   7.921 -0.1386  0.1969 -0.4884
14645SOL    HW144745   5.868   1.050   8.009 -0.7288 -0.5542 -0.5644
14645SOL    HW244746   5.781   1.148   7.934 -1.7568 -1.2435 -0.2971
14646SOL     OW44747   3.777   7.564   2.482 -0.5729  0.2511  0.6174
14646SOL    HW144748   3.809   7.566   2.392  0.8102 -1.4139  1.0310
14646SOL    HW244749   3.756   7.473   2.498 -3.9988  0.9649  0.9815
14647SOL     OW44750   0.437   3.773   6.716 -0.1828  0.5754  0.4366
14647SOL    HW144751   0.463   3.839   6.779 -1.5155 -0.4278  2.1312
14647SOL    HW244752   0.355   3.806   6.679 -0.4521  0.2427  0.7276
14648SOL     OW44753   3.953   6.037   6.583  0.4877 -0.1073  0.0946
14648SOL    HW144754   3.981   6.026   6.674  1.8692 -1.5701 -0.4502
14648SOL    HW244755   3.874   5.983   6.576  0.0052  0.5127  0.5500
14649SOL     OW44756   3.252   0.348   6.145  0.4074 -0.0650 -0.2198
14649SOL    HW144757   3.339   0.357   6.106  0.8404 -0.3218  0.6535
14649SOL    HW244758   3.208   0.281   6.091  0.2930  0.9379 -1.4093
14650SOL     OW44759   3.618   2.254   6.435  0.2562  0.4592 -0.3010
14650SOL    HW144760   3.688   2.316   6.450 -1.0593  2.1851 -0.9692
14650SOL    HW244761   3.642   2.209   6.353 -0.4029  2.5828 -1.7334
14651SOL     OW44762   5.348   5.407   5.622  0.1829  0.2099 -0.0505
14651SOL    HW144763   5.393   5.326   5.647  1.6633  1.2798  0.8986
14651SOL    HW244764   5.390   5.432   5.540  0.2562  0.4118  0.0489
14652SOL     OW44765   7.683   6.612   4.771 -0.2891  0.1710 -0.3945
14652SOL    HW144766   7.632   6.688   4.743  0.2486 -0.2379 -2.7346
14652SOL    HW244767   7.765   6.649   4.803 -1.2008  0.7027  1.5099
14653SOL     OW44768   0.910   0.913   3.728  0.0640  0.1304 -0.1028
14653SOL    HW144769   0.983   0.953   3.681 -1.1093  1.8787 -0.5227
14653SOL    HW244770   0.880   0.843   3.670  0.2688  0.5796 -0.7677
14654SOL     OW44771   5.346   2.802   6.291  0.1420  0.1467  0.0706
14654SOL    HW144772   5.427   2.751   6.290 -0.2497 -0.4936  0.3866
14654SOL    HW244773   5.301   2.775   6.371 -0.7638 -0.1150 -0.5078
14655SOL     OW44774   5.825   5.673   6.594 -0.5474 -0.2254  0.1322
14655SOL    HW144775   5.920   5.677   6.578 -0.7516 -0.8837 -1.3669
14655SOL    HW244776   5.808   5.580   6.611 -1.0368 -0.2300 -0.3725
14656SOL     OW44777   0.121   2.313   7.959  0.3748  0.6863 -0.1637
14656SOL    HW144778   0.033   2.337   7.931  0.9765  0.1885 -2.7628
14656SOL    HW244779   0.162   2.395   7.983 -0.3212  1.1332 -0.4612
14657SOL     OW44780   6.219   0.805   3.957  0.6055 -0.6493  0.4946
14657SOL    HW144781   6.232   0.761   3.873  0.8114  2.6300 -1.3708
14657SOL    HW244782   6.308   0.820   3.991  0.8254  1.6024 -0.8548
14658SOL     OW44783   3.894   7.910   1.167  0.3532 -0.1090  0.4033
14658SOL    HW144784   3.966   7.865   1.123  0.8716  0.0940  1.0233
14658SOL    HW244785   3.864   7.849   1.234 -0.5779 -0.5041 -0.3515
14659SOL     OW44786   5.473   0.370   6.902 -0.1439  0.0951 -0.0536
14659SOL    HW144787   5.494   0.304   6.837  0.0203 -0.3014  0.3985
14659SOL    HW244788   5.380   0.357   6.921 -0.2550  0.3778 -0.3922
14660SOL     OW44789   7.564   6.463   0.224  0.3843 -0.2619 -0.1004
14660SOL    HW144790   7.554   6.432   0.314 -0.4194  2.2034  0.7558
14660SOL    HW244791   7.478   6.498   0.201  1.0818  0.9094 -1.0797
14661SOL     OW44792   7.205   3.536   2.075  0.1977  0.3279 -0.0026
14661SOL    HW144793   7.186   3.534   2.169 -0.8556  1.5773 -0.1461
14661SOL    HW244794   7.178   3.450   2.042  0.2426  0.0121  0.7816
14662SOL     OW44795   5.681   3.306   0.266 -0.1395 -0.6666 -0.2123
14662SOL    HW144796   5.682   3.244   0.194  1.9083 -1.6718  0.5859
14662SOL    HW244797   5.745   3.373   0.241 -1.2049  0.3182 -0.3807
14663SOL     OW44798   5.789   5.442   2.512 -0.0816 -0.0615  0.3356
14663SOL    HW144799   5.720   5.434   2.578 -1.8185  0.8069 -1.2870
14663SOL    HW244800   5.782   5.532   2.481  1.0852 -0.2806 -0.6302
14664SOL     OW44801   6.804   2.340   1.006  0.5159 -0.2308  0.0332
14664SOL    HW144802   6.819   2.379   1.092  0.8296 -1.7707  0.7014
14664SOL    HW244803   6.844   2.254   1.011 -1.3971 -1.2482 -0.9006
14665SOL     OW44804   2.262   0.609   6.731 -0.1385 -0.8515 -0.3680
14665SOL    HW144805   2.333   0.546   6.716  1.5008  1.0041 -0.8044
14665SOL    HW244806   2.275   0.639   6.821 -0.3142 -0.4352 -0.4791
14666SOL     OW44807   1.250   4.634   2.891  0.5859 -0.4004  0.1496
14666SOL    HW144808   1.192   4.565   2.859  0.9273 -0.6103 -0.0234
14666SOL    HW244809   1.191   4.702   2.923  0.2417 -0.5213 -0.2194
14667SOL     OW44810   6.804   7.490   5.230 -0.3063 -0.3519  0.4034
14667SOL    HW144811   6.823   7.469   5.321 -3.6324  0.2495  1.3963
14667SOL    HW244812   6.860   7.564   5.209  0.4407 -0.4307  2.0094
14668SOL     OW44813   0.272   1.903   6.256 -0.4955  0.1053  0.1419
14668SOL    HW144814   0.301   1.866   6.340  2.8349  1.2217 -0.3720
14668SOL    HW244815   0.210   1.972   6.281 -0.3060 -0.2109  1.6158
14669SOL     OW44816   2.784   0.758   5.698 -0.6799 -0.0470  0.0742
14669SOL    HW144817   2.697   0.771   5.659 -0.7240 -2.6652 -0.8620
14669SOL    HW244818   2.767   0.754   5.792 -0.7892  4.5780  0.4945
14670SOL     OW44819   1.310   3.959   6.135 -0.0623 -0.0030 -0.0897
14670SOL    HW144820   1.391   3.986   6.179 -0.5682  1.6265 -0.0760
14670SOL    HW244821   1.329   3.969   6.041 -0.1552  0.0875 -0.0987
14671SOL     OW44822   5.984   5.288   3.326  0.6217  0.1425  0.3034
14671SOL    HW144823   5.899   5.326   3.305  1.4116  1.2082 -1.1205
14671SOL    HW244824   6.023   5.267   3.241  1.4964 -0.9889  0.9598
14672SOL     OW44825   6.546   6.598   7.330 -0.2739 -0.2070 -0.3025
14672SOL    HW144826   6.491   6.525   7.358  0.1078 -0.4510 -0.1800
14672SOL    HW244827   6.598   6.562   7.257  0.4386 -0.2778  0.2328
14673SOL     OW44828   7.463   0.897   2.700  0.5401 -0.3510 -0.1840
14673SOL    HW144829   7.535   0.921   2.759 -1.2815  1.5568  1.4472
14673SOL    HW244830   7.479   0.949   2.621  0.9791  0.0005  0.1292
14674SOL     OW44831   3.736   0.234   3.007 -0.0697 -0.7228  0.4413
14674SOL    HW144832   3.658   0.194   2.969 -0.5401  0.4092  0.1792
14674SOL    HW244833   3.748   0.190   3.091  1.0150 -3.3320 -0.9605
14675SOL     OW44834   6.974   0.851   7.651 -0.1628  0.4518 -0.8373
14675SOL    HW144835   6.934   0.901   7.580  1.8619  2.0106 -0.9872
14675SOL    HW244836   7.020   0.779   7.607  0.3524  0.9053 -1.0602
14676SOL     OW44837   5.873   5.628   3.313 -0.0358 -0.5294  0.1361
14676SOL    HW144838   5.778   5.623   3.323 -0.2558  0.9855 -0.8758
14676SOL    HW244839   5.887   5.621   3.218  1.0126 -2.2930  0.3754
14677SOL     OW44840   2.834   0.428   4.667  0.0157 -0.0635  0.4254
14677SOL    HW144841   2.783   0.475   4.601  1.4092 -0.0431 -0.6726
14677SOL    HW244842   2.769   0.375   4.713 -1.3178  1.5786  0.5269
14678SOL     OW44843   7.842   1.230   7.588  0.4115 -0.4464 -0.1597
14678SOL    HW144844   7.763   1.176   7.595 -0.5087  1.0087  1.6859
14678SOL    HW244845   7.831   1.278   7.506 -0.5314 -0.3919 -0.0142
14679SOL     OW44846   7.713   5.592   1.863  0.5437  0.1997 -0.3649
14679SOL    HW144847   7.779   5.577   1.795  0.8860 -2.2888  0.3981
14679SOL    HW244848   7.764   5.609   1.943  0.3600 -2.0748  0.3026
14680SOL     OW44849   0.354   6.428   5.461  0.5103 -0.3720  0.1411
14680SOL    HW144850   0.395   6.479   5.530  0.5116  0.4576 -0.4659
14680SOL    HW244851   0.261   6.428   5.482  0.7343 -1.9093  1.2920
14681SOL     OW44852   3.344   2.654   0.737  0.5473  0.1953 -0.0964
14681SOL    HW144853   3.253   2.686   0.739  0.1075 -0.7289 -2.3043
14681SOL    HW244854   3.358   2.616   0.823  0.1510  3.6413  1.6650
14682SOL     OW44855   3.208   5.733   5.452  0.1668 -0.1422 -0.1862
14682SOL    HW144856   3.177   5.735   5.362 -1.8714  0.0879  0.4586
14682SOL    HW244857   3.141   5.781   5.501  0.8318 -0.9037  1.5517
14683SOL     OW44858   4.229   5.769   5.604  0.0415  0.6301 -0.3027
14683SOL    HW144859   4.197   5.801   5.520  0.2052 -1.3187 -1.1584
14683SOL    HW244860   4.150   5.742   5.652 -0.1545  2.7279  0.6696
14684SOL     OW44861   2.547   4.132   4.467  0.1576 -0.1497 -0.0048
14684SOL    HW144862   2.558   4.225   4.451  0.4662  0.0730  1.3361
14684SOL    HW244863   2.588   4.118   4.552  0.5781 -1.6110 -0.4233
14685SOL     OW44864   3.492   7.750   4.002  0.0972 -0.0574 -0.4616
14685SOL    HW144865   3.547   7.680   4.037 -0.1962  0.3574  0.8955
14685SOL    HW244866   3.446   7.710   3.929 -0.9283 -1.6449  0.9844
14686SOL     OW44867   7.617   0.013   4.797  0.0887  0.1445 -0.3154
14686SOL    HW144868   7.606  -0.079   4.822  2.6176  0.1402  1.0602
14686SOL    HW244869   7.681   0.048   4.860 -2.1243  3.3777  0.3914
14687SOL     OW44870   3.524   0.443   5.622 -0.0994 -0.1352 -0.4328
14687SOL    HW144871   3.441   0.405   5.594 -1.0533  1.9790 -0.7007
14687SOL    HW244872   3.500   0.524   5.666  1.8072  0.2897 -0.0672
14688SOL     OW44873   2.083   3.431   2.216 -0.1979  0.7805  0.4497
14688SOL    HW144874   2.078   3.389   2.130 -1.0292  1.7668 -0.0176
14688SOL    HW244875   2.169   3.407   2.250  0.0501  0.1801 -0.5594
14689SOL     OW44876   2.827   6.188   5.207  0.6093  0.6859  0.5117
14689SOL    HW144877   2.845   6.133   5.131  0.2061  1.1172  0.0901
14689SOL    HW244878   2.864   6.141   5.281 -0.1287 -0.3722  0.2237
14690SOL     OW44879   3.484   2.423   3.685  0.1258 -0.0818  0.2153
14690SOL    HW144880   3.394   2.398   3.705 -0.0646  1.1947  1.1564
14690SOL    HW244881   3.475   2.505   3.636  0.7735  0.3701  0.8332
14691SOL     OW44882   6.845   6.603   5.439 -0.0214  0.2816  0.0746
14691SOL    HW144883   6.898   6.542   5.388 -2.1460 -1.3635 -0.3012
14691SOL    HW244884   6.860   6.688   5.399  2.9601  0.0816  0.5563
14692SOL     OW44885   6.956   3.419   5.119  0.2105  0.1960  0.0813
14692SOL    HW144886   6.923   3.377   5.040 -3.8655 -1.7391  2.4584
14692SOL    HW244887   7.005   3.350   5.164  0.9794  0.7400  0.0984
14693SOL     OW44888   5.442   0.177   6.709 -0.2455 -0.1327  0.1610
14693SOL    HW144889   5.368   0.119   6.729  0.2777 -0.6677  0.6043
14693SOL    HW244890   5.519   0.122   6.724  0.2319  0.0800 -1.3603
14694SOL     OW44891   7.999   7.384   6.313  0.9677  0.0430  0.5466
14694SOL    HW144892   8.081   7.374   6.264  1.5116 -0.2805  1.4948
14694SOL    HW244893   8.023   7.363   6.403  0.1520  1.3464  1.0935
14695SOL     OW44894   5.234   5.906   3.731  0.1146  0.3217  0.2163
14695SOL    HW144895   5.207   5.997   3.722 -1.0731 -0.1626 -2.4309
14695SOL    HW244896   5.275   5.900   3.817  1.1438  3.5500  0.0702
14696SOL     OW44897   6.267   0.103   1.359 -0.1635  0.1840  0.0167
14696SOL    HW144898   6.312   0.143   1.434 -0.9013  0.0143  0.5608
14696SOL    HW244899   6.182   0.077   1.394  0.0732 -1.3391 -0.4770
14697SOL     OW44900   3.006   1.636   7.779 -0.2165 -0.3977 -0.1468
14697SOL    HW144901   3.019   1.729   7.762  1.9630 -0.8029 -1.0493
14697SOL    HW244902   3.056   1.592   7.710  0.3424 -2.2219  1.3370
14698SOL     OW44903   5.006   3.812   1.051 -0.1867  0.4388  0.1265
14698SOL    HW144904   4.920   3.772   1.066  0.1049 -0.7931 -1.2240
14698SOL    HW244905   5.065   3.738   1.039  0.9022  1.2813  0.1090
14699SOL     OW44906   7.010   3.859   2.930  0.2493  0.0547  0.2173
14699SOL    HW144907   7.044   3.941   2.967  1.0563  0.2577 -0.8999
14699SOL    HW244908   6.998   3.878   2.837 -0.6754 -0.7620  0.1524
14700SOL     OW44909   6.024   0.874   2.339  0.0935  0.2507  0.1617
14700SOL    HW144910   6.043   0.963   2.309  0.0341  0.2284  0.0585
14700SOL    HW244911   5.966   0.886   2.415  1.2643  0.3589  1.0718
14701SOL     OW44912   4.933   2.187   6.784 -0.3408  0.3345 -0.1294
14701SOL    HW144913   4.941   2.213   6.875 -0.5522  0.5085 -0.1617
14701SOL    HW244914   5.015   2.217   6.743 -0.2250  0.2147  0.0115
14702SOL     OW44915   6.422   6.745   7.527  0.2704  0.2935  0.1826
14702SOL    HW144916   6.438   6.701   7.444  0.8096 -1.9014  1.3862
14702SOL    HW244917   6.509   6.763   7.563  0.0488  0.1088  0.8326
14703SOL     OW44918   6.636   5.807   2.607 -0.3038 -0.5767  0.0565
14703SOL    HW144919   6.708   5.764   2.654  1.3546  0.5821 -1.2758
14703SOL    HW244920   6.614   5.882   2.661 -2.5428 -2.4159  1.8970
14704SOL     OW44921   1.865   5.388   7.318  0.1008  0.2089 -0.3325
14704SOL    HW144922   1.923   5.374   7.244 -0.3521  0.2804 -0.7067
14704SOL    HW244923   1.847   5.482   7.317  3.4820  1.0992  2.4205
14705SOL     OW44924   1.843   5.069   3.070 -0.0427  0.4259 -0.5369
14705SOL    HW144925   1.840   5.164   3.082  1.2745  0.2832  1.2247
14705SOL    HW244926   1.915   5.055   3.008  1.0864  0.4861  0.7323
14706SOL     OW44927   2.895   1.084   6.259  0.2289  0.4739  0.1950
14706SOL    HW144928   2.897   1.155   6.323 -0.0791 -0.4287  1.2418
14706SOL    HW244929   2.898   1.128   6.174 -2.8579  1.9363  0.7009
14707SOL     OW44930   3.351   6.848   0.871  0.4589 -0.0210  0.1756
14707SOL    HW144931   3.425   6.787   0.868 -0.1175 -0.8235  1.4938
14707SOL    HW244932   3.279   6.797   0.908 -0.8681  0.6686 -1.3336
14708SOL     OW44933   4.273   3.512   4.276 -0.0901  0.2923 -0.2061
14708SOL    HW144934   4.328   3.460   4.218 -0.6719  0.7927 -1.2499
14708SOL    HW244935   4.303   3.490   4.364  1.1359 -0.1451 -0.7052
14709SOL     OW44936   3.788   7.896   6.458  0.7215  0.3032  0.1278
14709SOL    HW144937   3.743   7.870   6.377 -0.3811  1.0054  0.4928
14709SOL    HW244938   3.821   7.814   6.495  1.5146  0.0027 -1.1803
14710SOL     OW44939   6.571   3.052   3.891  0.0962 -0.8819 -0.2648
14710SOL    HW144940   6.482   3.021   3.872 -0.0450 -1.9471  1.8589
14710SOL    HW244941   6.628   2.987   3.852 -0.1260 -1.4734  0.3717
14711SOL     OW44942   1.557   7.360   7.486 -0.3205 -0.9900  0.0019
14711SOL    HW144943   1.520   7.424   7.425  0.3407 -2.1216 -1.6433
14711SOL    HW244944   1.623   7.313   7.435  1.1431 -1.1837  1.9434
14712SOL     OW44945   5.768   6.956   7.859  0.0707  0.0308  0.3617
14712SOL    HW144946   5.749   6.953   7.765 -1.8209 -2.4131  0.7223
14712SOL    HW244947   5.858   6.923   7.866  0.4014  0.6826 -0.5979
14713SOL     OW44948   5.484   5.419   5.392 -0.1201 -0.1776  0.3649
14713SOL    HW144949   5.540   5.351   5.430  0.1401 -0.2574 -0.1529
14713SOL    HW244950   5.538   5.460   5.325  0.2059  1.4757  1.5877
14714SOL     OW44951   7.303   0.341   6.290 -0.1709  0.6152  0.2816
14714SOL    HW144952   7.268   0.311   6.206 -1.0826 -2.2233  1.5576
14714SOL    HW244953   7.396   0.358   6.273 -0.5735  1.1512 -1.5237
14715SOL     OW44954   7.302   5.731   4.778  0.2854 -0.2993  0.8499
14715SOL    HW144955   7.263   5.815   4.801 -0.2279 -0.4684  0.6173
14715SOL    HW244956   7.363   5.750   4.707 -0.3332 -0.2190  0.3305
14716SOL     OW44957   6.713   0.497   7.211  0.2640  0.0730  0.2530
14716SOL    HW144958   6.769   0.568   7.180 -0.1452  0.6843  0.8987
14716SOL    HW244959   6.713   0.433   7.139  0.1098  1.0215 -0.6063
14717SOL     OW44960   0.034   6.302   1.370  0.7126  0.1257  0.2651
14717SOL    HW144961   0.038   6.211   1.400 -2.6647 -0.6218 -1.1063
14717SOL    HW244962   0.055   6.297   1.277 -2.4482  0.1076 -0.5724
14718SOL     OW44963   0.187   3.099   0.121  0.8172  0.3357  0.3084
14718SOL    HW144964   0.258   3.060   0.173 -1.3760  0.4062  3.6290
14718SOL    HW244965   0.115   3.110   0.183 -1.9154  0.9043 -2.7167
14719SOL     OW44966   0.204   2.051   5.063 -0.2143 -0.0632  0.1440
14719SOL    HW144967   0.293   2.086   5.058  0.2445 -1.3523 -1.1786
14719SOL    HW244968   0.177   2.041   4.972 -1.2526 -0.8773  0.5236
14720SOL     OW44969   3.788   1.728   3.092 -0.1111 -0.3826 -0.2800
14720SOL    HW144970   3.738   1.777   3.156 -0.9076 -1.1446 -0.3089
14720SOL    HW244971   3.728   1.715   3.018  1.3050  2.0390 -2.0156
14721SOL     OW44972   3.225   6.405   4.765  0.7006  0.2315  0.1989
14721SOL    HW144973   3.204   6.486   4.811  1.4280  0.0900  0.8038
14721SOL    HW244974   3.161   6.341   4.796  0.6947  0.3418  0.4104
14722SOL     OW44975   6.100   6.329   3.162  0.1051 -0.0384  0.9190
14722SOL    HW144976   6.087   6.291   3.074 -0.2557  1.6577  0.2060
14722SOL    HW244977   6.088   6.255   3.221 -1.8923 -0.7906 -0.3259
14723SOL     OW44978   3.418   2.411   1.257 -0.2413  0.5873 -0.0357
14723SOL    HW144979   3.503   2.371   1.236 -0.1915  1.3421 -1.3612
14723SOL    HW244980   3.434   2.462   1.336  0.4495  0.4276 -0.0679
14724SOL     OW44981   6.956   4.273   6.588  0.8148 -0.4230  0.2178
14724SOL    HW144982   6.937   4.214   6.515 -1.3211  1.4365 -0.8221
14724SOL    HW244983   6.996   4.349   6.547  0.6342  0.1789  1.1353
14725SOL     OW44984   1.879   1.278   5.845 -0.0502 -0.1664  0.2086
14725SOL    HW144985   1.887   1.333   5.767  0.6245 -2.7232 -1.6691
14725SOL    HW244986   1.957   1.223   5.843 -0.6674 -1.1589  1.9932
14726SOL     OW44987   4.321   4.963   7.211 -0.5711  0.0391  0.1888
14726SOL    HW144988   4.391   5.028   7.203 -0.4558 -0.0309  0.5930
14726SOL    HW244989   4.340   4.898   7.143  1.5315 -1.6086  2.1950
14727SOL     OW44990   7.412   6.845   2.230 -0.0016 -0.3764 -0.2027
14727SOL    HW144991   7.384   6.896   2.153  1.4549  2.4614  1.0018
14727SOL    HW244992   7.507   6.844   2.224  0.0391 -2.2663  0.3408
14728SOL     OW44993   4.549   5.020   0.391 -0.5968  0.9485 -0.3831
14728SOL    HW144994   4.512   4.943   0.347 -0.9655  0.7082  0.3469
14728SOL    HW244995   4.618   4.985   0.447 -0.9209  1.1181  0.1283
14729SOL     OW44996   5.745   0.150   6.961 -0.3736 -0.2425 -0.6277
14729SOL    HW144997   5.770   0.161   7.052  0.3553  1.5796 -1.0085
14729SOL    HW244998   5.828   0.129   6.916 -0.8236 -1.7954 -0.8126
14730SOL     OW44999   3.076   0.213   1.899  0.0345 -0.2861 -1.2185
14730SOL    HW145000   3.123   0.224   1.982 -0.9602  0.9533 -0.7870
14730SOL    HW245001   3.110   0.131   1.863  1.8457  0.0949 -0.4960
14731SOL     OW45002   6.323   4.899   4.186 -0.1115  0.1399  0.2449
14731SOL    HW145003   6.406   4.923   4.227 -0.6035  1.0402  0.7563
14731SOL    HW245004   6.345   4.888   4.093  0.5792  0.3821  0.3726
14732SOL     OW45005   5.681   2.850   7.862  0.0732  0.5438  0.8245
14732SOL    HW145006   5.772   2.880   7.872  1.0567 -2.2031  1.0091
14732SOL    HW245007   5.667   2.792   7.937 -1.7113  0.6248  0.5789
14733SOL     OW45008   2.244   7.544   1.346 -0.0685  0.0032 -0.1847
14733SOL    HW145009   2.290   7.462   1.364 -1.2488 -0.4220  1.0945
14733SOL    HW245010   2.314   7.608   1.332  0.8760 -1.0417 -0.3908
14734SOL     OW45011   0.229   5.023   3.643  0.1669 -0.5154  0.3833
14734SOL    HW145012   0.237   5.107   3.687  2.0121 -0.0395 -0.7379
14734SOL    HW245013   0.136   5.016   3.621 -0.4657  0.0662  2.6194
14735SOL     OW45014   2.484   0.671   7.257 -0.3880  0.5479 -0.0497
14735SOL    HW145015   2.443   0.757   7.266 -0.2529  0.7159 -0.9149
14735SOL    HW245016   2.576   0.687   7.276 -0.8369 -0.0569  3.1044
14736SOL     OW45017   5.936   6.240   1.847  0.5469  0.1694  0.2397
14736SOL    HW145018   5.942   6.197   1.932  0.0227  0.7454  0.5830
14736SOL    HW245019   6.023   6.276   1.832  1.8782 -3.2964 -1.3580
14737SOL     OW45020   0.770   7.183   6.990 -0.3760  0.1071  0.1133
14737SOL    HW145021   0.745   7.253   7.051  0.5435 -1.0444  1.8861
14737SOL    HW245022   0.773   7.104   7.043  1.8517 -0.7269 -1.0852
14738SOL     OW45023   1.886   1.181   1.006 -0.3046 -0.3905  0.2142
14738SOL    HW145024   1.882   1.182   0.910 -2.4529 -0.2238  0.2582
14738SOL    HW245025   1.923   1.266   1.029  3.0081 -1.5102 -0.4618
14739SOL     OW45026   1.029   3.111   3.277  0.4009 -0.1257  0.2584
14739SOL    HW145027   1.023   3.048   3.348 -3.1486  1.3562  1.4741
14739SOL    HW245028   1.106   3.165   3.299  1.5934 -1.9766  0.8483
14740SOL     OW45029   1.638   3.422   7.903 -0.2466 -0.6971  0.0464
14740SOL    HW145030   1.659   3.343   7.853  0.2204 -1.2121  1.0286
14740SOL    HW245031   1.706   3.484   7.878 -1.8214  0.1768 -2.3633
14741SOL     OW45032   5.982   2.389   3.720 -0.1906 -0.8263  0.0636
14741SOL    HW145033   5.892   2.406   3.694 -0.6327 -1.3468  1.1582
14741SOL    HW245034   6.018   2.335   3.650 -1.1222 -1.6305  0.1876
14742SOL     OW45035   5.949   7.578   3.968 -0.0186 -0.4877  0.4606
14742SOL    HW145036   5.967   7.496   3.921  2.5320 -0.5853  1.4224
14742SOL    HW245037   5.889   7.626   3.911 -0.2991 -2.3302 -0.9021
14743SOL     OW45038   7.965   6.478   2.822 -0.3381 -0.6678  0.1313
14743SOL    HW145039   7.933   6.499   2.734  2.5414  0.3988 -0.7625
14743SOL    HW245040   7.991   6.387   2.817  0.4664 -0.4186 -0.3550
14744SOL     OW45041   5.443   7.049   5.139  0.5098 -0.0007 -0.3546
14744SOL    HW145042   5.380   7.062   5.210  0.3100 -1.1662 -0.2895
14744SOL    HW245043   5.521   7.013   5.183  1.3020  1.5901 -0.4085
14745SOL     OW45044   2.289   6.818   4.878 -0.0609  0.2416 -0.2849
14745SOL    HW145045   2.197   6.842   4.872 -0.0339  1.0402  1.6631
14745SOL    HW245046   2.328   6.848   4.796 -1.0375  2.2689 -0.0503
14746SOL     OW45047   0.430   3.881   1.537 -0.2771  0.2045 -0.2518
14746SOL    HW145048   0.366   3.817   1.507  1.2288 -0.5111 -2.1367
14746SOL    HW245049   0.435   3.868   1.632  0.3751 -2.9126 -0.6124
14747SOL     OW45050   7.910   1.302   2.177 -0.0521  0.0180  0.3583
14747SOL    HW145051   7.890   1.212   2.153 -0.3628  0.4008 -0.9239
14747SOL    HW245052   7.942   1.297   2.267  2.4910 -1.7190 -0.5327
14748SOL     OW45053   4.891   0.853   7.260 -0.1901  0.1377 -0.0944
14748SOL    HW145054   4.938   0.832   7.179 -0.7331  0.4080 -0.4881
14748SOL    HW245055   4.904   0.947   7.272  1.0077 -0.1133  0.8737
14749SOL     OW45056   4.115   5.500   3.680  0.3239  0.6247  0.5009
14749SOL    HW145057   4.193   5.514   3.733  1.5287 -1.4659 -0.5588
14749SOL    HW245058   4.146   5.448   3.605 -1.8699  0.7428 -0.5787
14750SOL     OW45059   6.746   3.584   7.647  0.4970 -0.1719  0.3797
14750SOL    HW145060   6.786   3.499   7.629 -0.6592 -0.6809  0.1051
14750SOL    HW245061   6.656   3.563   7.672  0.6068  0.8758  1.8140
14751SOL     OW45062   4.102   2.366   7.936  0.2083 -0.2539  0.1942
14751SOL    HW145063   4.080   2.389   7.845 -0.0922  0.3903  0.4252
14751SOL    HW245064   4.133   2.448   7.974  0.6740 -0.6043  0.5769
14752SOL     OW45065   3.197   7.511   3.512  0.2160  0.0448  0.2701
14752SOL    HW145066   3.290   7.501   3.492  1.1531  3.0058  2.3599
14752SOL    HW245067   3.186   7.469   3.597 -0.7938 -1.5460 -0.5812
14753SOL     OW45068   1.171   3.325   4.003 -0.1615  0.4484  0.9914
14753SOL    HW145069   1.209   3.357   4.085  0.7135 -0.6378  1.0331
14753SOL    HW245070   1.122   3.247   4.029 -0.7573  0.6970  0.6251
14754SOL     OW45071   5.361   0.430   6.328  0.2089 -0.4859 -0.2237
14754SOL    HW145072   5.344   0.522   6.309 -1.3787 -0.8533 -0.7593
14754SOL    HW245073   5.451   0.415   6.297  0.5518  0.9104  0.0481
14755SOL     OW45074   7.714   0.767   0.815  0.0847 -0.1852  0.1530
14755SOL    HW145075   7.754   0.705   0.754 -0.6159  0.0286 -0.5323
14755SOL    HW245076   7.723   0.852   0.773 -2.0752 -0.2612 -0.5755
14756SOL     OW45077   6.313   5.254   5.929  0.4962 -0.2614  0.0696
14756SOL    HW145078   6.322   5.222   5.839 -2.8610  0.4123 -0.6492
14756SOL    HW245079   6.279   5.180   5.978  1.9074 -0.4954  0.7579
14757SOL     OW45080   0.523   4.587   0.781 -0.5659 -0.0851  0.2835
14757SOL    HW145081   0.579   4.561   0.853 -0.3658  2.3121  1.0828
14757SOL    HW245082   0.434   4.575   0.814 -0.5208 -1.2861  0.0093
14758SOL     OW45083   6.208   6.380   0.356  0.3126 -0.2152 -0.1609
14758SOL    HW145084   6.220   6.468   0.391  0.1746 -0.3177  0.1485
14758SOL    HW245085   6.209   6.323   0.433  0.5003 -0.4962 -0.3662
14759SOL     OW45086   6.466   1.389   6.704  0.4170  0.3078 -0.3617
14759SOL    HW145087   6.407   1.351   6.769  0.1629  0.9011 -0.2322
14759SOL    HW245088   6.544   1.334   6.706 -0.4351 -0.9797 -1.0983
14760SOL     OW45089   3.690   6.882   0.632 -0.1691  0.1818 -0.3694
14760SOL    HW145090   3.702   6.976   0.646 -0.0391  0.2508 -0.8841
14760SOL    HW245091   3.779   6.846   0.632 -0.1629  0.1861 -0.9681
14761SOL     OW45092   7.318   5.585   0.544 -0.0025  0.1052 -0.5210
14761SOL    HW145093   7.265   5.577   0.623  0.4096 -0.8668 -0.3338
14761SOL    HW245094   7.300   5.674   0.513 -2.4265 -0.4640 -0.9564
14762SOL     OW45095   5.086   3.202   5.022 -0.3926 -0.6717  0.1460
14762SOL    HW145096   4.994   3.218   5.002 -0.5391 -0.8469  0.6699
14762SOL    HW245097   5.133   3.231   4.944 -0.8949 -0.6202 -0.1376
14763SOL     OW45098   0.741   7.758   0.931  0.0144 -0.0916  0.4353
14763SOL    HW145099   0.813   7.795   0.880 -0.7621  1.7967  0.5880
14763SOL    HW245100   0.662   7.792   0.888 -0.6820  1.1399  2.4981
14764SOL     OW45101   3.286   0.639   6.933  0.2999 -0.4497  0.4358
14764SOL    HW145102   3.231   0.717   6.945 -0.0568 -0.6412  0.0687
14764SOL    HW245103   3.333   0.654   6.851  0.2103 -0.6324  0.3495
14765SOL     OW45104   4.114   7.784   6.889 -0.1175 -0.0559  0.0855
14765SOL    HW145105   4.076   7.849   6.948 -1.6034 -0.0559 -0.8264
14765SOL    HW245106   4.084   7.700   6.923  0.1023 -0.1366  0.0807
14766SOL     OW45107   2.299   6.166   5.045  0.4052 -0.0222 -0.6853
14766SOL    HW145108   2.312   6.085   5.094  2.1713  0.9050  0.4776
14766SOL    HW245109   2.272   6.230   5.111 -3.0877 -0.0665 -1.9018
14767SOL     OW45110   1.724   6.699   6.466 -0.5720 -0.0812  0.1921
14767SOL    HW145111   1.811   6.660   6.461 -1.1242 -1.3455  0.0069
14767SOL    HW245112   1.668   6.630   6.502 -1.4714  0.7585  0.4758
14768SOL     OW45113   2.368   6.324   4.112  0.4586 -0.5782  0.5403
14768SOL    HW145114   2.331   6.407   4.083  0.1440 -0.6411  0.7574
14768SOL    HW245115   2.399   6.282   4.032  2.7988  0.7823  0.6514
14769SOL     OW45116   6.059   1.060   6.454  0.3682  0.4919  0.2128
14769SOL    HW145117   6.075   0.966   6.462  0.6457  0.5861  0.8655
14769SOL    HW245118   6.138   1.100   6.491 -0.0512  0.9771  0.5893
14770SOL     OW45119   2.352   3.359   1.355  0.0133 -0.3971 -0.1413
14770SOL    HW145120   2.269   3.328   1.392 -0.6008 -0.4821 -1.5315
14770SOL    HW245121   2.372   3.297   1.285  1.7882 -0.9543  0.7883
14771SOL     OW45122   6.033   6.298   1.027 -1.3566  0.4170 -0.2317
14771SOL    HW145123   6.115   6.280   1.072 -2.1324  0.3505  1.2338
14771SOL    HW245124   6.055   6.363   0.960 -0.6591  3.1094  2.3725
14772SOL     OW45125   1.961   4.706   1.730  0.2935 -0.1954  0.2239
14772SOL    HW145126   1.992   4.685   1.641  0.8601 -0.8336  0.5579
14772SOL    HW245127   1.925   4.624   1.763 -1.0467  0.3388  0.1540
14773SOL     OW45128   1.115   1.681   1.970 -0.1339 -0.1742  0.1672
14773SOL    HW145129   1.126   1.593   2.005  0.7072 -0.1455 -0.0162
14773SOL    HW245130   1.109   1.737   2.048  0.5011 -0.2571  0.2789
14774SOL     OW45131   6.605   0.130   3.871  0.1029  0.1602 -0.6182
14774SOL    HW145132   6.513   0.111   3.885 -0.7530  2.8089 -1.9481
14774SOL    HW245133   6.642   0.136   3.959 -1.3920  0.6634  0.0116
14775SOL     OW45134   2.116   0.776   1.614  0.2693 -0.0448 -0.0218
14775SOL    HW145135   2.192   0.789   1.669  0.4910 -0.2350 -0.2782
14775SOL    HW245136   2.148   0.790   1.525 -0.1986  0.7649 -0.0718
14776SOL     OW45137   3.184   0.986   1.676 -0.3491 -0.2842 -0.1140
14776SOL    HW145138   3.232   0.970   1.756 -0.1355  0.5320 -0.0698
14776SOL    HW245139   3.157   0.899   1.646  1.2914 -0.7812 -0.2340
14777SOL     OW45140   4.482   6.047   2.553  0.7369  0.0982  0.3952
14777SOL    HW145141   4.444   5.987   2.489 -0.9666  1.4576  0.0582
14777SOL    HW245142   4.459   6.010   2.638 -0.7147  0.4780  0.1887
14778SOL     OW45143   2.711   6.323   6.230  0.0414 -0.0242  0.2138
14778SOL    HW145144   2.687   6.269   6.305 -0.2763  0.4717  0.4717
14778SOL    HW245145   2.766   6.392   6.267 -0.5212  0.5076  0.0676
14779SOL     OW45146   0.082   5.660   6.782 -0.6623  0.6107  0.2253
14779SOL    HW145147   0.029   5.590   6.820 -2.1759  1.4720 -0.1765
14779SOL    HW245148   0.165   5.656   6.829 -0.8371 -1.2156  0.4368
14780SOL     OW45149   4.956   6.566   3.570 -0.0914  0.2037 -0.6988
14780SOL    HW145150   4.911   6.499   3.621  1.6744 -0.8721 -0.4673
14780SOL    HW245151   4.929   6.550   3.480  0.5515 -1.0726 -0.6924
14781SOL     OW45152   5.398   4.156   2.934 -0.2151  0.1396 -0.4285
14781SOL    HW145153   5.322   4.173   2.877 -1.2350  0.6953  1.0423
14781SOL    HW245154   5.471   4.197   2.888 -1.1229  1.1387 -1.0407
14782SOL     OW45155   1.014   7.190   1.579  0.3526 -0.3408  0.0929
14782SOL    HW145156   1.009   7.237   1.496  0.3393  0.5826  0.6055
14782SOL    HW245157   1.107   7.183   1.597  0.3391  1.6093  1.1680
14783SOL     OW45158   2.685   7.882   6.918  0.1442 -0.2874 -0.0153
14783SOL    HW145159   2.595   7.899   6.889  0.4729  0.4216 -0.6582
14783SOL    HW245160   2.720   7.820   6.854  0.1722 -0.4242  0.1313
14784SOL     OW45161   6.990   7.520   2.067 -0.3354  0.1413  0.3526
14784SOL    HW145162   7.004   7.597   2.012 -0.8481  0.3385  0.4938
14784SOL    HW245163   6.899   7.495   2.050 -0.8925  0.9170  2.0130
14785SOL     OW45164   4.907   3.242   7.146  0.0647 -0.7341  0.0410
14785SOL    HW145165   4.834   3.217   7.089  1.0088 -0.2088 -1.4437
14785SOL    HW245166   4.886   3.331   7.174  0.3921 -0.3635 -0.8548
14786SOL     OW45167   0.263   5.478   3.261 -0.5268 -0.5809 -0.0787
14786SOL    HW145168   0.210   5.514   3.332 -1.9480 -0.7679 -1.0034
14786SOL    HW245169   0.312   5.406   3.302  0.2503  0.5901  1.1538
14787SOL     OW45170   0.421   7.758   6.347 -0.2800  0.5171 -0.2000
14787SOL    HW145171   0.422   7.823   6.416  1.5200  1.5101 -1.0896
14787SOL    HW245172   0.494   7.699   6.367 -0.5703  0.0350 -0.5297
14788SOL     OW45173   4.250   5.394   6.272 -0.2178 -0.0608  0.2137
14788SOL    HW145174   4.201   5.326   6.227 -0.8592  0.2875  0.3589
14788SOL    HW245175   4.341   5.368   6.264 -0.2593  0.2462 -1.7235
14789SOL     OW45176   2.593   3.178   1.907 -0.1406 -0.5891 -0.3436
14789SOL    HW145177   2.556   3.096   1.938 -1.7850 -0.4067 -1.6613
14789SOL    HW245178   2.537   3.246   1.945  0.6227 -0.1235 -0.0303
14790SOL     OW45179   6.350   2.973   7.431  0.0881 -0.5883 -1.1274
14790SOL    HW145180   6.287   2.980   7.359  0.1917 -0.1309 -1.1736
14790SOL    HW245181   6.435   2.967   7.387  0.2240  0.4905 -1.0326
14791SOL     OW45182   6.100   3.967   5.554  0.1258 -0.0597  0.4308
14791SOL    HW145183   6.099   4.047   5.607 -1.0047  0.5168 -0.4052
14791SOL    HW245184   6.102   3.998   5.463 -0.6325 -0.9711  0.0839
14792SOL     OW45185   0.258   3.975   3.495  0.1560 -0.0436 -0.3391
14792SOL    HW145186   0.320   3.932   3.436  0.3725 -1.2923  0.7529
14792SOL    HW245187   0.307   4.050   3.531  0.5512 -0.1995 -0.5428
14793SOL     OW45188   6.790   6.193   2.600 -0.3946  0.4838 -0.5355
14793SOL    HW145189   6.699   6.172   2.575 -0.1027  0.4737 -1.6647
14793SOL    HW245190   6.812   6.268   2.545 -0.3646  1.7844  1.1759
14794SOL     OW45191   5.009   6.397   1.864  0.2500 -0.0525 -0.2471
14794SOL    HW145192   5.011   6.301   1.866  0.4669 -0.0654 -0.8894
14794SOL    HW245193   4.930   6.420   1.912 -0.5357 -0.6078 -1.2352
14795SOL     OW45194   1.702   7.313   2.651  0.2848 -0.0631  0.4016
14795SOL    HW145195   1.668   7.349   2.733 -1.3343  1.7455 -0.9664
14795SOL    HW245196   1.640   7.243   2.628 -0.6556  1.0156 -0.4288
14796SOL     OW45197   6.082   2.865   6.465  0.1960 -0.0628 -0.3282
14796SOL    HW145198   6.022   2.917   6.518  0.8894 -0.2348  0.6550
14796SOL    HW245199   6.101   2.920   6.389  1.3412  1.4083  0.9444
14797SOL     OW45200   7.909   4.929   1.059  0.1609 -0.3084 -0.0090
14797SOL    HW145201   7.861   5.011   1.064 -0.8972 -0.6232 -3.0920
14797SOL    HW245202   7.842   4.862   1.049  1.1145 -1.0371 -1.9291
14798SOL     OW45203   7.379   0.337   7.878  0.2041  0.0995  0.2611
14798SOL    HW145204   7.296   0.383   7.895 -0.3132 -0.3494 -0.9569
14798SOL    HW245205   7.438   0.406   7.846  0.1410  0.3212  0.6127
14799SOL     OW45206   3.107   2.500   7.312 -0.1546  0.8628 -0.5126
14799SOL    HW145207   3.158   2.579   7.331  0.7084 -0.3209  2.6196
14799SOL    HW245208   3.156   2.457   7.241  1.9412  0.9797  0.7684
14800SOL     OW45209   4.568   2.900   0.129 -0.3129  0.4680 -0.1675
14800SOL    HW145210   4.656   2.924   0.158  0.5876 -2.0965 -0.5455
14800SOL    HW245211   4.579   2.876   0.037 -0.8469 -2.3186  0.4227
14801SOL     OW45212   3.161   3.827   2.784 -0.2366  0.1905  0.3770
14801SOL    HW145213   3.190   3.737   2.798 -0.2499  0.3042  1.2121
14801SOL    HW245214   3.241   3.880   2.791  0.3012  0.0528 -2.9105
14802SOL     OW45215   7.506   1.804   3.743 -0.0676 -0.2117  0.4552
14802SOL    HW145216   7.445   1.730   3.746 -0.2920 -0.0013  2.3122
14802SOL    HW245217   7.510   1.828   3.650 -2.5411 -0.4484  0.2230
14803SOL     OW45218   6.430   2.318   6.297  0.3813 -0.1440  0.4471
14803SOL    HW145219   6.393   2.371   6.226 -0.2580 -0.8772  0.2094
14803SOL    HW245220   6.495   2.374   6.338 -0.5075  0.9430  0.4178
14804SOL     OW45221   7.093   0.679   7.470 -0.3883  0.1299 -0.2398
14804SOL    HW145222   7.091   0.684   7.374  0.2161 -2.1002 -0.4317
14804SOL    HW245223   7.184   0.660   7.491 -0.2324  1.8963  0.9292
14805SOL     OW45224   4.502   5.047   6.430  0.6087 -0.2627 -0.1316
14805SOL    HW145225   4.418   5.010   6.457  0.1733 -0.3916 -1.5970
14805SOL    HW245226   4.494   5.141   6.447 -0.2084 -0.1327 -1.1539
14806SOL     OW45227   0.688   5.186   0.221 -0.9442  0.3361  0.0817
14806SOL    HW145228   0.633   5.135   0.161 -1.1856  0.2213  0.3980
14806SOL    HW245229   0.649   5.171   0.307  0.8303 -1.5078  0.6541
14807SOL     OW45230   7.146   3.289   1.995 -0.0094  0.0415  0.8288
14807SOL    HW145231   7.225   3.278   1.942 -0.5838  1.7016 -0.4679
14807SOL    HW245232   7.079   3.240   1.948 -0.9362  2.8950 -1.1238
14808SOL     OW45233   2.966   1.529   0.023  0.0827 -0.3208 -0.0268
14808SOL    HW145234   2.982   1.566  -0.064  1.3668 -1.3271 -0.2537
14808SOL    HW245235   2.872   1.534   0.035  0.0679  1.8082 -0.5751
14809SOL     OW45236   1.226   7.119   0.758  0.4273  0.2571 -0.0008
14809SOL    HW145237   1.159   7.176   0.795 -0.6174 -1.1417  0.3609
14809SOL    HW245238   1.228   7.044   0.817  0.7824 -0.7057 -1.2010
14810SOL     OW45239   5.207   4.588   7.573 -0.2922 -0.5519  0.3177
14810SOL    HW145240   5.126   4.611   7.528 -0.4019  0.0554  0.8098
14810SOL    HW245241   5.222   4.496   7.551  0.8676  0.2780 -2.7972
14811SOL     OW45242   3.517   7.782   7.768  0.2748 -0.4033 -0.2836
14811SOL    HW145243   3.525   7.870   7.730  0.4842 -0.0223  0.6219
14811SOL    HW245244   3.453   7.737   7.712  0.4277  0.2041 -0.9634
14812SOL     OW45245   5.375   3.339   0.279 -0.4210  0.2222 -0.1265
14812SOL    HW145246   5.320   3.293   0.215 -0.5383  1.0311 -0.6227
14812SOL    HW245247   5.464   3.311   0.259 -0.1813  2.0946 -2.1240
14813SOL     OW45248   0.193   3.782   5.500 -0.3260 -0.2258 -0.1706
14813SOL    HW145249   0.190   3.875   5.479 -0.2797 -0.2088 -0.1008
14813SOL    HW245250   0.220   3.740   5.418  3.6147  0.1518  0.6960
14814SOL     OW45251   5.352   4.729   6.705 -0.2470 -0.0369 -0.0554
14814SOL    HW145252   5.416   4.795   6.729 -0.8334  0.1218  1.1697
14814SOL    HW245253   5.350   4.731   6.609 -0.1007  1.5773 -0.0602
14815SOL     OW45254   0.829   6.833   2.922 -0.2381 -0.0572 -0.5576
14815SOL    HW145255   0.827   6.921   2.958  1.0044 -0.4493  0.5687
14815SOL    HW245256   0.882   6.783   2.984 -1.4521 -1.7656 -0.8229
14816SOL     OW45257   4.139   1.079   1.873 -0.2198  0.2830 -0.2405
14816SOL    HW145258   4.129   1.136   1.796 -0.6404  1.0049  0.3425
14816SOL    HW245259   4.118   1.135   1.947  1.3115 -0.0890  0.5102
14817SOL     OW45260   7.747   7.294   0.923 -0.0091 -0.1208 -0.6373
14817SOL    HW145261   7.680   7.307   0.990  0.0371  0.1506 -0.6427
14817SOL    HW245262   7.830   7.295   0.971 -0.0120 -0.5994 -0.6113
14818SOL     OW45263   0.769   2.594   0.205  0.3987 -0.2777  0.8727
14818SOL    HW145264   0.849   2.613   0.155  1.1494 -3.4799  0.6428
14818SOL    HW245265   0.797   2.599   0.297  0.6120 -0.4681  0.8179
14819SOL     OW45266   6.324   5.195   2.001  0.2162  0.0306  0.0945
14819SOL    HW145267   6.251   5.141   1.969  0.9048 -1.6069  1.1616
14819SOL    HW245268   6.308   5.204   2.095  1.5322 -0.6135  0.3969
14820SOL     OW45269   4.737   6.793   4.344  0.0591 -0.6982 -0.2662
14820SOL    HW145270   4.800   6.777   4.275  0.9740 -0.2088  0.4259
14820SOL    HW245271   4.741   6.715   4.400  0.8780 -0.2161  0.3771
14821SOL     OW45272   1.939   4.745   2.977  0.2046  0.2969  0.5876
14821SOL    HW145273   2.016   4.706   3.018  0.3995  0.6299  0.5395
14821SOL    HW245274   1.896   4.793   3.047 -0.6537 -0.9180  0.9239
14822SOL     OW45275   1.526   1.775   3.880 -0.3330 -0.3249 -0.0811
14822SOL    HW145276   1.601   1.827   3.852 -0.3245  0.4438  1.2649
14822SOL    HW245277   1.554   1.684   3.866  0.3153 -0.0162 -0.8695
14823SOL     OW45278   0.898   3.610   3.765  0.5379 -0.0936 -0.5165
14823SOL    HW145279   0.942   3.585   3.846  0.9301  1.5434 -0.1780
14823SOL    HW245280   0.927   3.700   3.749 -0.4615  0.0259 -1.8307
14824SOL     OW45281   4.020   1.211   2.059  0.1124 -0.2355 -0.7767
14824SOL    HW145282   3.948   1.186   2.116 -0.1171  1.6037 -0.2123
14824SOL    HW245283   4.091   1.234   2.118  0.5312 -0.1894 -1.2901
14825SOL     OW45284   7.763   7.031   5.080 -0.6231  0.2457 -0.1031
14825SOL    HW145285   7.778   7.020   4.986 -2.3320  0.6236 -0.4468
14825SOL    HW245286   7.704   7.106   5.086 -1.1134 -0.2288  1.2124
14826SOL     OW45287   3.541   0.134   2.835 -0.3174 -0.2337 -0.0679
14826SOL    HW145288   3.484   0.069   2.794 -0.9411 -0.6454  1.4003
14826SOL    HW245289   3.481   0.199   2.871  0.2922  1.1310 -1.3749
14827SOL     OW45290   5.114   0.053   5.181 -0.1568  0.3857  0.0964
14827SOL    HW145291   5.051  -0.015   5.157  0.7230 -0.7051  0.8086
14827SOL    HW245292   5.197   0.024   5.143  0.0439  1.5439 -0.3897
14828SOL     OW45293   0.165   6.184   6.773 -0.1480  0.6444  0.8583
14828SOL    HW145294   0.186   6.110   6.830  1.5252  0.0318 -0.4842
14828SOL    HW245295   0.089   6.155   6.723 -0.6400  0.5747  1.6299
14829SOL     OW45296   6.272   0.725   1.468 -0.3853 -0.3085 -0.3648
14829SOL    HW145297   6.231   0.701   1.551 -0.6028  1.4220  0.0833
14829SOL    HW245298   6.287   0.642   1.423  4.5405 -2.0062  3.5006
14830SOL     OW45299   3.118   5.845   6.038 -0.2464 -0.2837 -0.1878
14830SOL    HW145300   3.069   5.780   5.987  1.2505 -0.8635 -0.9351
14830SOL    HW245301   3.182   5.793   6.088 -0.5379  0.4329  0.9665
14831SOL     OW45302   2.527   7.510   7.314  0.2308 -0.2519  0.1259
14831SOL    HW145303   2.457   7.565   7.279 -0.4709 -0.9820  0.3273
14831SOL    HW245304   2.481   7.431   7.345  0.9719 -0.1546  1.5428
14832SOL     OW45305   5.628   5.237   5.535  0.2002 -0.4102 -0.5825
14832SOL    HW145306   5.595   5.149   5.554 -1.2933  0.0153 -1.0900
14832SOL    HW245307   5.673   5.263   5.615 -0.5549 -1.1006  0.0922
14833SOL     OW45308   1.500   1.655   4.414  0.2082 -0.5001  0.4626
14833SOL    HW145309   1.455   1.725   4.460 -2.7460 -0.8872 -1.5663
14833SOL    HW245310   1.505   1.685   4.323  0.4607 -2.1573 -0.1099
14834SOL     OW45311   0.086   7.686   1.062 -0.3628  0.0040 -0.0770
14834SOL    HW145312   0.148   7.752   1.029 -0.6522  1.1793  1.5733
14834SOL    HW245313   0.117   7.603   1.026  2.3454  0.5060  0.8471
14835SOL     OW45314   5.047   0.849   4.949 -0.1218 -0.6733 -0.1410
14835SOL    HW145315   5.013   0.912   5.012 -0.6411 -0.3243 -0.7498
14835SOL    HW245316   5.028   0.764   4.987 -0.2594 -0.4671  0.2606
14836SOL     OW45317   4.889   7.721   2.275  0.0146  0.3640 -0.4954
14836SOL    HW145318   4.956   7.789   2.280 -1.2634  1.7031 -0.6860
14836SOL    HW245319   4.890   7.694   2.183  2.2631 -1.7854  0.0722
14837SOL     OW45320   1.568   1.084   3.458  0.4519  0.3450 -0.2484
14837SOL    HW145321   1.600   1.046   3.376 -2.0303  1.2719 -1.7725
14837SOL    HW245322   1.591   1.177   3.451 -1.5107  0.8310 -0.9202
14838SOL     OW45323   1.745   5.276   5.628  0.5343  0.0534 -0.4665
14838SOL    HW145324   1.657   5.301   5.602 -0.9808 -2.5837  1.6254
14838SOL    HW245325   1.779   5.352   5.675 -0.1581  1.4837 -2.1750
14839SOL     OW45326   0.763   7.242   4.982  0.4580  0.6254 -0.5041
14839SOL    HW145327   0.782   7.275   5.070  0.9947  0.2111 -0.4589
14839SOL    HW245328   0.673   7.211   4.987  0.8755 -0.5247  0.2518
14840SOL     OW45329   7.772   3.340   2.905 -0.6601  0.0147 -0.4573
14840SOL    HW145330   7.724   3.319   2.824  0.9265  1.5673 -1.9012
14840SOL    HW245331   7.705   3.377   2.963 -1.5684  0.4008 -1.6982
14841SOL     OW45332   1.492   3.535   0.339  0.4455 -0.0599 -0.2079
14841SOL    HW145333   1.480   3.440   0.336  1.3336 -0.1624 -1.8543
14841SOL    HW245334   1.537   3.556   0.257  0.7397  1.7200  0.3632
14842SOL     OW45335   4.825   1.427   4.151 -0.0001 -0.5156  0.3612
14842SOL    HW145336   4.748   1.445   4.097  0.2062  0.3897  0.3518
14842SOL    HW245337   4.894   1.406   4.088 -0.1077 -0.8115  0.3427
14843SOL     OW45338   7.221   5.637   7.250  0.0216  0.3025 -0.0113
14843SOL    HW145339   7.265   5.722   7.241  0.4422  0.0142 -0.7743
14843SOL    HW245340   7.143   5.656   7.301 -0.0130  1.1972 -0.3720
14844SOL     OW45341   3.544   6.754   3.053  0.1992  0.0559 -0.4711
14844SOL    HW145342   3.617   6.703   3.018  1.9143  1.3357  1.0065
14844SOL    HW245343   3.565   6.845   3.030 -1.1465  0.4172 -0.3573
14845SOL     OW45344   1.072   1.044   7.316  0.3956  0.5999 -0.1195
14845SOL    HW145345   1.010   1.021   7.385  0.2118 -0.0228 -0.4891
14845SOL    HW245346   1.068   1.140   7.312  0.5253  0.6616  0.8338
14846SOL     OW45347   6.226   7.020   3.570  0.0173 -0.0581  0.6915
14846SOL    HW145348   6.195   6.931   3.584 -1.0594  0.3777  1.1686
14846SOL    HW245349   6.320   7.010   3.556 -0.3111 -1.4195 -0.8588
14847SOL     OW45350   5.624   0.900   1.899 -0.2473  0.3322  0.0137
14847SOL    HW145351   5.551   0.839   1.887  0.6798 -0.9568  0.7080
14847SOL    HW245352   5.649   0.925   1.810 -0.9328  0.0491 -0.2629
14848SOL     OW45353   0.714   3.239   2.963  0.1645  0.1050  0.5302
14848SOL    HW145354   0.631   3.287   2.971  0.6443  1.0313  0.1246
14848SOL    HW245355   0.688   3.151   2.935 -0.8041 -0.2264  2.3386
14849SOL     OW45356   3.516   1.434   5.473  0.1386  0.1912  0.6298
14849SOL    HW145357   3.592   1.393   5.433 -0.9538  0.0289 -1.4315
14849SOL    HW245358   3.471   1.363   5.518  0.4322 -0.0073  0.6143
14850SOL     OW45359   4.242   4.601   6.982 -0.2975 -0.4208 -0.1575
14850SOL    HW145360   4.151   4.587   7.006 -0.5910  0.3920 -0.7408
14850SOL    HW245361   4.238   4.636   6.893  0.5874 -0.4945 -0.2340
14851SOL     OW45362   5.886   4.390   0.167 -0.9464  0.0395  0.0034
14851SOL    HW145363   5.960   4.420   0.115 -1.4728  0.4804 -0.5031
14851SOL    HW245364   5.919   4.313   0.214 -0.2821  0.0089 -0.5024
14852SOL     OW45365   6.646   5.520   1.709 -0.0247 -0.1787 -0.0758
14852SOL    HW145366   6.592   5.450   1.744  1.5619 -0.9597  0.9468
14852SOL    HW245367   6.609   5.600   1.745 -0.9332 -0.6211 -0.0081
14853SOL     OW45368   0.727   3.956   6.305 -0.0629 -0.3316 -0.1770
14853SOL    HW145369   0.664   3.887   6.325  1.2662 -1.6931 -0.4499
14853SOL    HW245370   0.731   3.959   6.210  0.9745 -0.9697 -0.1751
14854SOL     OW45371   3.217   3.230   3.594  0.5899  0.8795  0.4698
14854SOL    HW145372   3.201   3.280   3.514  3.0599 -0.2440 -0.8356
14854SOL    HW245373   3.276   3.285   3.646 -1.0506  1.6319  1.6344
14855SOL     OW45374   4.724   7.654   2.797 -0.3840  0.4097 -0.2361
14855SOL    HW145375   4.653   7.643   2.734 -0.7088  0.4728  0.1170
14855SOL    HW245376   4.717   7.578   2.856  0.2760  0.0377 -0.6172
14856SOL     OW45377   5.909   6.321   1.444 -0.0383  0.4160  0.5001
14856SOL    HW145378   5.951   6.244   1.406 -0.1316  1.1459 -1.1479
14856SOL    HW245379   5.916   6.388   1.376  1.3448  2.3395  2.4003
14857SOL     OW45380   3.924   4.982   3.874  0.2870  0.1539  0.5220
14857SOL    HW145381   3.868   4.955   3.801  1.8285 -0.5806 -0.4482
14857SOL    HW245382   3.928   4.906   3.931  0.5175  0.1032  0.4397
14858SOL     OW45383   5.180   4.955   0.794 -0.2717 -0.1415  0.1072
14858SOL    HW145384   5.164   4.865   0.822  0.5163 -0.1610  0.5207
14858SOL    HW245385   5.100   5.002   0.818 -1.3426 -1.0169 -1.5063
14859SOL     OW45386   0.643   6.251   5.725  0.0935 -0.2138 -0.1377
14859SOL    HW145387   0.601   6.294   5.800 -0.2759  1.9962 -1.5140
14859SOL    HW245388   0.570   6.215   5.674  0.4381 -3.7926  1.5865
14860SOL     OW45389   5.683   1.568   3.738  0.3483 -0.6087  0.6493
14860SOL    HW145390   5.609   1.572   3.799 -1.5798 -0.1400 -1.5643
14860SOL    HW245391   5.742   1.638   3.768 -0.2589 -0.7377  2.2494
14861SOL     OW45392   4.969   4.877   6.980 -0.4324  0.3308  0.2311
14861SOL    HW145393   4.961   4.961   7.025  3.1246  1.2036 -0.4724
14861SOL    HW245394   4.973   4.900   6.887 -3.1253 -1.0627 -0.3495
14862SOL     OW45395   0.920   3.859   4.136  0.0731 -0.0576  0.1739
14862SOL    HW145396   1.003   3.890   4.172 -0.0863  0.3216  0.2195
14862SOL    HW245397   0.902   3.918   4.063  0.6774 -1.1680 -0.9098
14863SOL     OW45398   6.374   7.749   2.340 -0.4416 -0.2358  0.0259
14863SOL    HW145399   6.427   7.816   2.297 -2.0741 -0.1982 -2.1191
14863SOL    HW245400   6.438   7.687   2.377  1.1573 -0.7463 -3.2667
14864SOL     OW45401   3.606   7.750   2.578 -0.1919 -0.5179  0.0136
14864SOL    HW145402   3.674   7.694   2.540 -1.2596 -1.3100 -0.7910
14864SOL    HW245403   3.609   7.830   2.525  0.0562 -0.5799 -0.0686
14865SOL     OW45404   3.466   6.995   2.077 -0.5673 -0.1989 -0.0754
14865SOL    HW145405   3.474   6.972   2.169 -1.6798 -0.5754 -0.0622
14865SOL    HW245406   3.385   6.954   2.048  0.4786 -1.3103 -1.6095
14866SOL     OW45407   4.824   4.646   1.588 -0.1181 -0.3781  0.1239
14866SOL    HW145408   4.887   4.578   1.564 -0.3629 -0.1885 -1.1196
14866SOL    HW245409   4.875   4.727   1.584 -0.6239 -0.1020 -1.8764
14867SOL     OW45410   6.832   0.779   1.469 -0.1446 -0.4230 -0.3550
14867SOL    HW145411   6.881   0.854   1.437 -0.1298 -1.6122 -3.4273
14867SOL    HW245412   6.752   0.778   1.417 -1.2986 -1.1645  1.3558
14868SOL     OW45413   4.041   6.529   4.545  0.3474  0.4618  0.1862
14868SOL    HW145414   3.995   6.490   4.470  0.3055  2.0582 -0.6749
14868SOL    HW245415   4.133   6.529   4.518  0.1990  2.1209 -0.4151
14869SOL     OW45416   0.942   4.539   5.026  0.2758 -0.1251 -0.0649
14869SOL    HW145417   0.867   4.509   4.974  0.9378 -1.1072 -0.4990
14869SOL    HW245418   1.003   4.574   4.961  1.0496 -1.2232  0.0323
14870SOL     OW45419   0.075   4.310   2.173 -0.2435  0.0093 -0.0351
14870SOL    HW145420   0.102   4.388   2.222  1.8744 -1.8102  1.8961
14870SOL    HW245421  -0.015   4.329   2.146 -0.2770  2.5436  1.5258
14871SOL     OW45422   5.626   7.047   5.597 -0.2275 -0.7414  0.0248
14871SOL    HW145423   5.551   7.002   5.636 -0.9313  0.6397  0.3334
14871SOL    HW245424   5.636   7.126   5.650 -0.9130  0.9795 -2.2705
14872SOL     OW45425   5.760   4.777   1.774  0.1485  0.3181 -0.0304
14872SOL    HW145426   5.686   4.833   1.750 -0.2581 -0.4216 -0.5428
14872SOL    HW245427   5.820   4.835   1.821 -1.4963  0.5789  1.8736
14873SOL     OW45428   2.606   4.527   7.017 -0.1586  0.4593  0.0915
14873SOL    HW145429   2.671   4.457   7.019  0.2213  0.7843 -0.4204
14873SOL    HW245430   2.551   4.506   6.941 -1.3728 -0.4269  1.1626
14874SOL     OW45431   4.465   1.859   2.971  0.2566 -0.0853  0.0128
14874SOL    HW145432   4.390   1.831   3.024  1.2689 -0.8768  1.0514
14874SOL    HW245433   4.426   1.919   2.906 -0.9728  1.1784  1.8055
14875SOL     OW45434   1.018   3.250   1.127  0.3118 -0.4051 -0.3026
14875SOL    HW145435   1.041   3.192   1.200  1.0391  1.6922  1.2479
14875SOL    HW245436   0.923   3.259   1.133  0.3496 -0.3517  0.3060
14876SOL     OW45437   4.438   6.147   6.351 -0.7565 -0.1774  0.6805
14876SOL    HW145438   4.391   6.118   6.273  2.8496 -2.1087 -0.9816
14876SOL    HW245439   4.423   6.076   6.415 -1.0956 -0.1423  0.6458
14877SOL     OW45440   2.317   4.943   5.591 -0.7402  0.6127 -0.1447
14877SOL    HW145441   2.286   5.015   5.646  0.9775  1.0062  0.3698
14877SOL    HW245442   2.386   4.902   5.642 -2.8612 -2.6598  0.4118
14878SOL     OW45443   1.036   3.798   2.181 -0.2372 -0.4320  0.1589
14878SOL    HW145444   1.028   3.836   2.093  0.5758  0.8609  0.6178
14878SOL    HW245445   0.951   3.758   2.197 -1.0298  0.9017 -0.5060
14879SOL     OW45446   3.550   7.689   7.210 -0.3668  0.4676 -0.0522
14879SOL    HW145447   3.476   7.740   7.244 -2.0472 -0.8551 -1.5189
14879SOL    HW245448   3.511   7.631   7.144  1.6159 -1.8467  0.6517
14880SOL     OW45449   1.795   6.582   4.740  0.2064  0.4346  0.0393
14880SOL    HW145450   1.834   6.615   4.660 -0.2448  1.8881  0.3960
14880SOL    HW245451   1.785   6.488   4.725  1.3248  0.4759 -1.0887
14881SOL     OW45452   3.216   2.634   3.364  0.0745  0.6136 -0.6051
14881SOL    HW145453   3.144   2.587   3.406  0.7623  0.3321  0.3070
14881SOL    HW245454   3.174   2.698   3.308 -0.9099  1.5923  1.1734
14882SOL     OW45455   7.514   3.386   3.840 -0.4166 -0.3494 -0.6472
14882SOL    HW145456   7.557   3.392   3.755  1.5776  1.0741  0.3788
14882SOL    HW245457   7.455   3.460   3.843 -0.6605 -0.5342 -0.8747
14883SOL     OW45458   1.055   4.273   0.310 -0.3425  0.0938 -0.1787
14883SOL    HW145459   1.075   4.301   0.400  1.4180  2.4505 -1.2046
14883SOL    HW245460   0.961   4.287   0.301 -0.2343  1.7499  0.7507
14884SOL     OW45461   4.121   3.417   2.200 -0.2029  0.0185 -0.4103
14884SOL    HW145462   4.125   3.425   2.104  0.1725  0.9391 -0.3265
14884SOL    HW245463   4.028   3.428   2.221 -0.1502  0.8691 -0.5886
14885SOL     OW45464   2.783   3.565   3.430  0.1051 -0.3097 -0.5749
14885SOL    HW145465   2.878   3.575   3.434  0.1051  0.8447 -2.4278
14885SOL    HW245466   2.749   3.654   3.439 -0.9502 -0.8888  2.0212
14886SOL     OW45467   7.348   5.773   7.591 -0.0335 -0.0674  0.6678
14886SOL    HW145468   7.280   5.728   7.641 -0.2660  1.5840  1.9199
14886SOL    HW245469   7.419   5.709   7.584 -0.7637 -0.9938  1.4239
14887SOL     OW45470   2.074   7.301   4.544  0.5079  0.1866  0.0236
14887SOL    HW145471   2.114   7.247   4.612  1.7887  0.4241 -0.5263
14887SOL    HW245472   2.095   7.258   4.462 -0.9739 -0.0614 -0.2623
14888SOL     OW45473   1.110   2.338   4.989  0.3188  0.3981  0.1732
14888SOL    HW145474   1.114   2.301   4.901  2.5204  0.6977  0.1035
14888SOL    HW245475   1.065   2.422   4.978 -1.4644 -0.5519 -0.2443
14889SOL     OW45476   7.576   0.852   6.796  0.2817 -0.2574  0.1028
14889SOL    HW145477   7.489   0.861   6.758  0.6745 -0.5250 -0.9082
14889SOL    HW245478   7.563   0.864   6.890 -0.7034  0.6154 -0.1246
14890SOL     OW45479   4.672   3.426   6.672 -0.3174 -0.2115  0.1942
14890SOL    HW145480   4.646   3.512   6.640 -2.3882 -0.8667 -0.0096
14890SOL    HW245481   4.613   3.365   6.629  0.9728 -1.7389  0.4992
14891SOL     OW45482   6.524   6.921   3.631 -0.3461  0.4981 -0.3348
14891SOL    HW145483   6.570   6.916   3.715 -2.1901  1.3436  0.7832
14891SOL    HW245484   6.528   7.013   3.606 -0.3752  0.3639 -0.8626
14892SOL     OW45485   6.344   7.503   4.118  0.5293 -0.3348  0.2879
14892SOL    HW145486   6.339   7.568   4.188  0.2021  0.9467 -0.8790
14892SOL    HW245487   6.387   7.427   4.158  2.1377  1.0636  1.3620
14893SOL     OW45488   3.692   2.526   3.280 -0.2124  0.5225  0.1134
14893SOL    HW145489   3.742   2.450   3.250  1.9777  1.7322  0.4755
14893SOL    HW245490   3.743   2.601   3.249 -1.7434  1.8388  0.6761
14894SOL     OW45491   6.869   1.464   0.584  0.0473  0.1386 -0.3601
14894SOL    HW145492   6.927   1.448   0.509  0.0201  0.9001 -0.5608
14894SOL    HW245493   6.803   1.525   0.550  0.6276  1.3164  0.5292
14895SOL     OW45494   1.169   7.834   2.512  0.0000  0.2320  0.2612
14895SOL    HW145495   1.171   7.883   2.594 -0.9999 -0.9362  1.0273
14895SOL    HW245496   1.108   7.882   2.457 -0.4942  0.1976  0.7697
14896SOL     OW45497   1.407   7.917   5.561  0.5610 -0.4674  0.2061
14896SOL    HW145498   1.346   7.895   5.632  0.8282  0.5363  0.7668
14896SOL    HW245499   1.362   7.985   5.511  0.8567 -0.3464  0.1024
14897SOL     OW45500   4.406   7.610   6.272 -0.2905 -0.3619  0.5093
14897SOL    HW145501   4.418   7.644   6.183  0.9442 -0.0828  0.7551
14897SOL    HW245502   4.493   7.619   6.312 -0.9965  0.1863  1.9749
14898SOL     OW45503   0.294   0.144   2.314 -0.1459  0.9324 -0.4293
14898SOL    HW145504   0.276   0.218   2.372 -0.3437  0.0189  0.7201
14898SOL    HW245505   0.209   0.101   2.302 -0.1084  1.1116 -1.4201
14899SOL     OW45506   2.609   1.291   3.704 -0.4033  0.1190  0.2968
14899SOL    HW145507   2.665   1.302   3.628 -0.0817  0.5191  0.5855
14899SOL    HW245508   2.553   1.369   3.704  0.6914  0.9479  1.3631
14900SOL     OW45509   1.416   4.145   6.854  0.2196  0.4417 -0.0001
14900SOL    HW145510   1.341   4.204   6.859  0.6714  1.0422 -0.1918
14900SOL    HW245511   1.492   4.202   6.863  0.6571 -0.1423  0.0429
14901SOL     OW45512   7.388   3.812   5.901  0.3438  0.3163 -0.5793
14901SOL    HW145513   7.374   3.781   5.812 -0.4672  1.1008 -0.7377
14901SOL    HW245514   7.453   3.752   5.937  0.1111 -0.4791 -1.4405
14902SOL     OW45515   1.575   6.275   3.927 -0.6829 -0.4256  0.0622
14902SOL    HW145516   1.666   6.256   3.906 -0.4295  1.2836 -0.5907
14902SOL    HW245517   1.551   6.212   3.994  0.8421 -1.1885 -0.0833
14903SOL     OW45518   6.329   6.894   6.239 -0.0999  0.0751  0.2387
14903SOL    HW145519   6.320   6.889   6.334  1.0958 -1.3462  0.3102
14903SOL    HW245520   6.322   6.803   6.209  0.5094  0.3885 -0.9364
14904SOL     OW45521   1.195   3.715   3.938  0.8030 -0.1602  0.5866
14904SOL    HW145522   1.285   3.723   3.905  0.4210 -0.9126 -0.6834
14904SOL    HW245523   1.146   3.781   3.890  0.5384 -0.2333  0.7545
14905SOL     OW45524   6.501   6.762   7.969 -0.2889 -0.0871  0.1013
14905SOL    HW145525   6.565   6.715   7.916 -2.2536 -0.6286 -1.9419
14905SOL    HW245526   6.462   6.695   8.025 -0.2520 -0.0956  0.1159
14906SOL     OW45527   0.615   6.859   5.804  0.9113  0.3586 -0.1524
14906SOL    HW145528   0.678   6.843   5.874 -1.3042 -2.8816  1.3503
14906SOL    HW245529   0.662   6.836   5.724  2.2436  0.0582  0.6862
14907SOL     OW45530   2.015   1.904   6.690  0.1265  0.6805  0.6923
14907SOL    HW145531   2.087   1.940   6.742  1.6581  0.9216 -1.4250
14907SOL    HW245532   2.049   1.820   6.658 -0.5582  0.7412 -0.2351
14908SOL     OW45533   3.499   4.291   3.456 -0.1630  0.3532 -0.3873
14908SOL    HW145534   3.538   4.239   3.527 -1.1254  0.7203  0.4190
14908SOL    HW245535   3.558   4.277   3.382  2.4456  2.1367  1.1965
14909SOL     OW45536   3.478   5.607   7.498  0.2421  0.4966  0.2194
14909SOL    HW145537   3.515   5.548   7.563 -0.0636  0.9723  0.8398
14909SOL    HW245538   3.553   5.642   7.450  0.3629 -1.7140 -1.3752
14910SOL     OW45539   3.075   1.645   6.336 -0.1190 -0.6370  0.6658
14910SOL    HW145540   3.137   1.624   6.406 -1.0764  0.6283  1.9506
14910SOL    HW245541   2.988   1.638   6.377 -0.6462  1.8710  0.1526
14911SOL     OW45542   7.396   1.175   4.537 -0.1170  0.3625  0.3935
14911SOL    HW145543   7.332   1.104   4.537  0.5894 -0.2973 -0.7024
14911SOL    HW245544   7.480   1.132   4.553  0.2960  0.9749 -0.0476
14912SOL     OW45545   6.061   5.549   7.123  0.4349  0.2925 -0.8448
14912SOL    HW145546   6.067   5.626   7.180  0.6739  1.6039 -2.5496
14912SOL    HW245547   5.986   5.500   7.157 -0.0316  1.5339  0.0064
14913SOL     OW45548   6.150   3.524   1.700  0.5009  0.1310  0.4915
14913SOL    HW145549   6.135   3.592   1.634  0.0527 -1.1918 -0.8019
14913SOL    HW245550   6.062   3.500   1.730  0.6014 -0.5334  0.2617
14914SOL     OW45551   3.332   4.386   2.021  0.2881 -0.4115 -0.2821
14914SOL    HW145552   3.380   4.367   2.102  0.7264  0.9004 -0.2043
14914SOL    HW245553   3.381   4.458   1.981 -1.5574  0.9567 -0.2214
14915SOL     OW45554   0.748   3.420   4.377  0.1081  0.3009  0.0040
14915SOL    HW145555   0.836   3.382   4.371  0.8329  1.9991 -0.7684
14915SOL    HW245556   0.762   3.515   4.372 -1.8691  0.5762 -1.9226
14916SOL     OW45557   3.874   0.280   5.484 -0.4895  0.0172 -0.8991
14916SOL    HW145558   3.841   0.203   5.437 -1.5379  0.8972 -1.6679
14916SOL    HW245559   3.891   0.344   5.415  2.1986 -0.1081 -0.4657
14917SOL     OW45560   4.979   2.309   0.834  0.2258 -0.0668  0.2629
14917SOL    HW145561   5.042   2.275   0.899  0.1625  0.9660  0.8894
14917SOL    HW245562   4.973   2.402   0.854  0.4302  0.3333 -1.4356
14918SOL     OW45563   3.277   5.585   4.452 -0.3426 -0.2897 -0.8882
14918SOL    HW145564   3.323   5.668   4.438  1.1136 -1.1870 -1.5996
14918SOL    HW245565   3.185   5.606   4.435 -0.5156  1.8634  1.8165
14919SOL     OW45566   3.927   6.513   1.663  0.8571 -0.8373  0.2155
14919SOL    HW145567   3.928   6.561   1.581  0.4088 -1.4014 -0.1381
14919SOL    HW245568   3.879   6.570   1.724  1.0303 -0.4960  0.0319
14920SOL     OW45569   1.230   0.406   6.663 -0.1350  0.0599  0.2884
14920SOL    HW145570   1.229   0.323   6.616 -0.4068 -0.6912  1.5790
14920SOL    HW245571   1.323   0.430   6.669 -0.1566  0.8838 -1.7831
14921SOL     OW45572   7.856   2.770   3.579  0.1239  0.1050  0.3480
14921SOL    HW145573   7.820   2.693   3.537  0.1817  0.4022 -0.2583
14921SOL    HW245574   7.803   2.843   3.547 -0.1718  0.2766  1.2074
14922SOL     OW45575   0.716   7.800   2.587  0.1317  0.4229  0.1495
14922SOL    HW145576   0.801   7.755   2.591  0.0496  0.3172  0.8192
14922SOL    HW245577   0.720   7.865   2.656  0.3568  1.6768 -0.9952
14923SOL     OW45578   2.934   1.675   7.216  0.3422  0.3733 -0.9139
14923SOL    HW145579   2.885   1.681   7.134  0.6578 -0.4304 -1.1766
14923SOL    HW245580   2.963   1.765   7.234  1.9729  0.2617 -2.7533
14924SOL     OW45581   7.640   3.653   4.054  0.3548  0.5766  0.4466
14924SOL    HW145582   7.679   3.642   4.140  2.5838  0.9107 -0.4353
14924SOL    HW245583   7.699   3.714   4.009  0.5512 -1.3225 -2.0688
14925SOL     OW45584   2.348   4.016   7.486 -0.2506 -0.5344  0.0092
14925SOL    HW145585   2.384   4.103   7.499 -0.2740 -0.4404 -0.5343
14925SOL    HW245586   2.259   4.031   7.455 -0.2165 -0.7532 -0.1957
14926SOL     OW45587   1.836   2.346   7.809 -0.3779  0.4259 -0.0119
14926SOL    HW145588   1.888   2.295   7.747 -1.9430 -1.2273 -0.0774
14926SOL    HW245589   1.883   2.428   7.819  0.8186  0.0646 -2.0825
14927SOL     OW45590   4.738   0.019   4.482 -0.3969  0.2600  0.5834
14927SOL    HW145591   4.827   0.029   4.446 -0.8037  0.3871 -0.4269
14927SOL    HW245592   4.751   0.016   4.577  0.6977  0.1871  0.4491
14928SOL     OW45593   2.108   2.653   1.819  0.1150  0.1353  0.0554
14928SOL    HW145594   2.078   2.595   1.889  0.8950 -1.7861 -1.1217
14928SOL    HW245595   2.030   2.699   1.790 -0.5383 -0.3713  0.9822
14929SOL     OW45596   6.001   6.522   3.673  1.0766  0.1272 -0.1591
14929SOL    HW145597   6.057   6.453   3.637 -1.1869 -1.3462 -1.0957
14929SOL    HW245598   5.923   6.520   3.618  0.2646  2.4011  0.8037
14930SOL     OW45599   1.230   5.979   1.290 -0.2569 -0.3051 -0.3025
14930SOL    HW145600   1.173   6.017   1.357 -0.9599 -1.3414 -0.2922
14930SOL    HW245601   1.170   5.948   1.222  0.3591 -0.5940 -0.7293
14931SOL     OW45602   7.325   3.078   7.003 -0.1335 -0.0794 -0.1895
14931SOL    HW145603   7.252   3.140   6.997 -0.6396 -0.7918 -2.3061
14931SOL    HW245604   7.303   3.021   7.077 -0.6852  0.9716  0.4710
14932SOL     OW45605   2.501   7.451   5.238  0.4350  0.8773 -0.2266
14932SOL    HW145606   2.485   7.438   5.144  0.9429 -0.0631 -0.1918
14932SOL    HW245607   2.420   7.423   5.280  0.2459  1.1983 -0.3674
14933SOL     OW45608   2.721   5.736   5.758  0.1976 -0.7032 -0.1860
14933SOL    HW145609   2.642   5.782   5.728  0.1560 -2.1039 -2.4082
14933SOL    HW245610   2.700   5.709   5.847 -0.8218  1.1395  0.1860
14934SOL     OW45611   4.218   5.685   0.589  0.2202  0.2921  0.1183
14934SOL    HW145612   4.239   5.739   0.665 -0.9637 -0.5640  1.0853
14934SOL    HW245613   4.275   5.609   0.597 -0.4591 -0.1694  0.5817
14935SOL     OW45614   3.827   1.526   2.801 -0.3603  0.2548  0.5784
14935SOL    HW145615   3.820   1.464   2.729 -0.7821  0.4134  0.4825
14935SOL    HW245616   3.885   1.595   2.768  0.5626 -0.3545  0.8805
14936SOL     OW45617   2.412   0.128   5.744  0.1868 -0.0675  0.1747
14936SOL    HW145618   2.326   0.120   5.704  0.1745 -1.8428  0.4854
14936SOL    HW245619   2.399   0.102   5.835  0.3902  3.0720  1.2062
14937SOL     OW45620   4.674   5.861   3.728 -0.0292 -0.2161 -0.1625
14937SOL    HW145621   4.756   5.814   3.742  1.1051  1.0844 -1.9763
14937SOL    HW245622   4.617   5.831   3.799  1.8520 -1.4694  0.9220
14938SOL     OW45623   0.512   0.432   2.392 -0.3496  0.2213 -0.4137
14938SOL    HW145624   0.529   0.513   2.344  1.8520  0.6162  0.8850
14938SOL    HW245625   0.417   0.419   2.385 -1.4863  4.8036  2.1227
14939SOL     OW45626   5.933   3.593   3.565  0.3184  0.1904 -0.0412
14939SOL    HW145627   5.838   3.580   3.562 -0.0254  2.3215  0.2333
14939SOL    HW245628   5.969   3.514   3.524 -1.4686 -1.4351  1.3763
14940SOL     OW45629   0.494   6.963   2.866  0.2977  0.5200 -0.1800
14940SOL    HW145630   0.495   6.870   2.886 -0.1679  0.5334 -0.0747
14940SOL    HW245631   0.431   7.001   2.928 -0.8867  0.6188 -1.3772
14941SOL     OW45632   6.912   6.060   1.353 -0.2309  0.2153  0.1049
14941SOL    HW145633   6.925   5.967   1.332 -0.7390 -0.4134  2.2604
14941SOL    HW245634   6.826   6.062   1.396  0.3413  1.4501  1.2680
14942SOL     OW45635   7.750   3.635   4.620 -0.3824  0.0644 -0.1612
14942SOL    HW145636   7.682   3.630   4.687 -1.6380 -0.4040 -1.4018
14942SOL    HW245637   7.753   3.547   4.582  1.0109  0.0466 -0.0716
14943SOL     OW45638   0.852   4.417   6.209  1.0729  0.1360 -0.6237
14943SOL    HW145639   0.890   4.333   6.184  3.4290  0.9910 -0.2063
14943SOL    HW245640   0.834   4.461   6.127 -0.3117 -0.7740 -0.8513
14944SOL     OW45641   3.062   5.996   6.303  0.0844 -0.1407 -0.3098
14944SOL    HW145642   3.035   5.937   6.374  1.5587 -0.1335  0.2937
14944SOL    HW245643   3.086   5.937   6.231 -0.2541 -0.1971 -0.3785
14945SOL     OW45644   3.993   2.174   6.314  0.3700 -0.3124  0.1006
14945SOL    HW145645   4.022   2.127   6.392  1.2193 -1.5226 -0.8991
14945SOL    HW245646   4.050   2.142   6.244  0.6967  1.9304 -0.7278
14946SOL     OW45647   4.078   7.812   2.465  0.2199 -0.6192  0.6295
14946SOL    HW145648   4.059   7.808   2.558 -0.8729  0.4038  0.4814
14946SOL    HW245649   4.165   7.851   2.459  0.1975 -0.4837  1.2143
14947SOL     OW45650   5.111   1.402   1.293  0.7335 -0.0209 -0.1233
14947SOL    HW145651   5.119   1.490   1.329  1.8656 -0.1075 -0.1392
14947SOL    HW245652   5.145   1.344   1.361  1.2795 -0.3281 -0.6484
14948SOL     OW45653   6.349   6.207   7.670  0.3426  0.8442  0.4147
14948SOL    HW145654   6.388   6.123   7.647 -0.9807  0.3573 -0.2146
14948SOL    HW245655   6.416   6.253   7.720  0.9656 -0.7297  1.0698
14949SOL     OW45656   4.498   1.619   3.388  0.1906  0.1692 -0.1942
14949SOL    HW145657   4.404   1.611   3.399  0.2882 -1.3495 -0.1992
14949SOL    HW245658   4.523   1.696   3.440 -0.6413 -1.2069  2.4381
14950SOL     OW45659   2.325   6.240   6.328 -0.1241 -0.4752  0.5700
14950SOL    HW145660   2.303   6.234   6.421  2.4775 -0.2873  1.2697
14950SOL    HW245661   2.247   6.278   6.287 -1.9536 -2.0617  2.3641
14951SOL     OW45662   0.073   3.431   4.264  0.0507 -0.0925  0.0736
14951SOL    HW145663   0.107   3.407   4.178  0.9470 -0.7833  0.6044
14951SOL    HW245664   0.081   3.526   4.267 -0.3423 -0.0217 -0.7410
14952SOL     OW45665   2.893   7.013   5.341  0.0971 -0.6561  0.1312
14952SOL    HW145666   2.915   7.036   5.250 -2.7948 -1.1416 -0.7922
14952SOL    HW245667   2.964   7.050   5.393  1.1590  0.8217 -2.2077
14953SOL     OW45668   0.182   5.772   7.085  0.4481  0.5140  0.3652
14953SOL    HW145669   0.244   5.795   7.154  0.0363 -1.2549  1.3758
14953SOL    HW245670   0.186   5.677   7.079 -0.4082  0.5420 -1.2403
14954SOL     OW45671   6.754   1.346   3.287  0.0664  0.2173  0.4474
14954SOL    HW145672   6.818   1.365   3.356  2.4565 -1.8341 -1.0341
14954SOL    HW245673   6.806   1.318   3.212 -2.4084  2.2915 -2.3091
14955SOL     OW45674   5.287   1.034   3.930 -0.2078 -0.1713  0.2666
14955SOL    HW145675   5.308   1.007   3.841 -0.5206  1.1198 -0.2216
14955SOL    HW245676   5.205   0.989   3.951 -1.9873  2.0853 -1.4004
14956SOL     OW45677   1.622   2.325   1.072  0.3121 -0.0065  0.4907
14956SOL    HW145678   1.631   2.407   1.120 -1.4832 -0.9447  2.6242
14956SOL    HW245679   1.582   2.350   0.989  0.8881  1.3929  0.6161
14957SOL     OW45680   3.107   6.630   4.489 -0.0534  0.2820 -0.4926
14957SOL    HW145681   3.061   6.578   4.554 -0.4283  0.9090 -0.2485
14957SOL    HW245682   3.145   6.703   4.538 -1.4904  1.5307 -1.1320
14958SOL     OW45683   7.884   1.880   2.388 -0.3416  0.0963  0.4513
14958SOL    HW145684   7.975   1.904   2.374 -0.2802 -0.1828  0.3613
14958SOL    HW245685   7.835   1.934   2.326 -0.0115 -1.7281 -1.5389
14959SOL     OW45686   3.998   1.744   3.540  0.4931 -0.2992 -0.2322
14959SOL    HW145687   3.912   1.786   3.548  2.0245  3.1399 -0.3288
14959SOL    HW245688   4.007   1.694   3.621 -0.8078  0.8985  0.7184
14960SOL     OW45689   4.266   7.176   7.498 -0.3584 -0.1129  0.4734
14960SOL    HW145690   4.271   7.157   7.404  1.2720  2.8189 -0.1313
14960SOL    HW245691   4.192   7.237   7.505  0.0034  0.2637  0.9805
14961SOL     OW45692   6.206   3.570   2.470 -0.0481 -0.0709 -0.2453
14961SOL    HW145693   6.172   3.649   2.428  1.3626  0.5612 -0.2640
14961SOL    HW245694   6.178   3.577   2.561 -1.6591 -0.5944 -0.6641
14962SOL     OW45695   1.383   1.400   6.252 -0.9413 -0.1253  0.2821
14962SOL    HW145696   1.455   1.438   6.302 -0.5904 -1.2237  0.6544
14962SOL    HW245697   1.305   1.445   6.283 -0.6346 -0.2587  1.2720
14963SOL     OW45698   0.829   7.920   5.965 -0.7255 -0.2606  0.1124
14963SOL    HW145699   0.801   7.831   5.986 -3.0249 -0.1362 -1.9594
14963SOL    HW245700   0.919   7.925   5.997 -1.0606 -2.7641  1.7445
14964SOL     OW45701   1.986   4.333   2.674  0.3616 -0.0802  0.1526
14964SOL    HW145702   2.031   4.300   2.597 -0.4689  2.3494 -1.4580
14964SOL    HW245703   2.051   4.385   2.721  0.3716 -0.0834  0.1422
14965SOL     OW45704   0.110   5.841   4.074 -0.3325 -0.4100  0.4059
14965SOL    HW145705   0.088   5.920   4.025  0.1578 -0.8688 -0.5811
14965SOL    HW245706   0.099   5.770   4.010  0.7508 -0.9802  0.8335
14966SOL     OW45707   1.105   7.440   6.014  0.6192  0.2377  0.5385
14966SOL    HW145708   1.146   7.518   6.051  0.3507 -0.6193  2.8262
14966SOL    HW245709   1.106   7.376   6.085  2.5973 -2.5748 -1.7419
14967SOL     OW45710   4.221   3.347   4.698 -0.0850  0.3086  0.2577
14967SOL    HW145711   4.182   3.368   4.613 -0.7829 -0.4981  0.3629
14967SOL    HW245712   4.280   3.274   4.679  0.6199  0.8638  0.2793
14968SOL     OW45713   5.213   3.422   0.770  0.0057 -0.2069 -0.1340
14968SOL    HW145714   5.262   3.434   0.688 -0.2157  2.4321  0.0595
14968SOL    HW245715   5.142   3.362   0.746  0.7310 -0.5741 -1.5167
14969SOL     OW45716   4.567   6.038   2.974  0.0739  0.1064 -0.2049
14969SOL    HW145717   4.528   5.998   3.051 -1.8457 -1.3988 -1.8472
14969SOL    HW245718   4.643   5.984   2.954 -1.1081 -1.3255 -1.0004
14970SOL     OW45719   5.542   5.396   0.893  0.2489  0.5822  0.8134
14970SOL    HW145720   5.598   5.457   0.942  0.1930  2.1732 -0.9487
14970SOL    HW245721   5.595   5.372   0.817 -0.8644  0.8753 -0.0799
14971SOL     OW45722   7.160   1.823   4.130  0.5275  0.2029  0.3820
14971SOL    HW145723   7.239   1.844   4.081 -0.1170  0.5803 -0.5132
14971SOL    HW245724   7.121   1.908   4.150  0.4688  0.0294  1.0302
14972SOL     OW45725   1.241   0.631   0.710 -0.1078 -0.0494  0.5258
14972SOL    HW145726   1.268   0.640   0.801  3.1000 -1.3159 -0.1606
14972SOL    HW245727   1.234   0.721   0.678  0.4874  0.3846  1.5664
14973SOL     OW45728   3.248   5.733   6.271 -0.1625 -0.3573  0.0971
14973SOL    HW145729   3.284   5.645   6.281  1.2683  0.1776 -0.2079
14973SOL    HW245730   3.316   5.783   6.226 -0.7748  1.0227  0.6340
14974SOL     OW45731   1.819   7.601   7.758  0.4490 -0.0314  0.1228
14974SOL    HW145732   1.734   7.558   7.755 -0.7287  2.1154  0.5751
14974SOL    HW245733   1.819   7.648   7.842  1.7082  0.7059 -0.2679
14975SOL     OW45734   4.088   4.878   1.397 -0.0249  0.1627 -0.0556
14975SOL    HW145735   3.997   4.857   1.416  0.3078 -0.1995  1.2309
14975SOL    HW245736   4.127   4.794   1.371  0.8985 -0.6984  3.4690
14976SOL     OW45737   6.131   6.522   4.068 -0.0603  0.0276  0.0844
14976SOL    HW145738   6.225   6.529   4.049 -0.3187  0.1783 -1.2248
14976SOL    HW245739   6.123   6.550   4.159  1.1870 -0.1771  0.2796
14977SOL     OW45740   0.546   2.779   7.245 -0.1482  0.0681 -0.5546
14977SOL    HW145741   0.496   2.856   7.271  0.5393  0.9298 -1.6708
14977SOL    HW245742   0.484   2.727   7.194 -0.1494  0.7768 -1.3128
14978SOL     OW45743   7.632   0.415   2.993 -0.1881  0.6806  0.2085
14978SOL    HW145744   7.653   0.469   3.069 -2.7336  2.1467  0.0181
14978SOL    HW245745   7.605   0.331   3.030  0.9422  0.5238  0.7218
14979SOL     OW45746   2.034   1.529   7.091 -0.3371  0.0350  0.6623
14979SOL    HW145747   1.966   1.477   7.049  0.2557  0.6770 -1.1919
14979SOL    HW245748   2.010   1.620   7.071  0.0578  0.3616  1.6140
14980SOL     OW45749   1.176   0.457   5.456 -0.2935 -0.0740 -0.0406
14980SOL    HW145750   1.123   0.468   5.535 -1.7854 -1.7370 -0.7493
14980SOL    HW245751   1.129   0.392   5.404  1.4577 -0.1670 -1.6160
14981SOL     OW45752   0.732   3.197   4.840  0.2225 -0.0100 -0.4630
14981SOL    HW145753   0.787   3.246   4.900 -2.3470  1.5386  0.7796
14981SOL    HW245754   0.701   3.122   4.890 -0.4940  0.2974 -0.4375
14982SOL     OW45755   1.918   0.581   1.712  0.2634  0.3814 -0.0141
14982SOL    HW145756   1.850   0.592   1.645  0.9892 -0.3444 -0.8958
14982SOL    HW245757   1.996   0.620   1.673  0.8218 -0.5169  0.1945
14983SOL     OW45758   7.421   7.240   1.488  1.2264  0.0215 -0.5293
14983SOL    HW145759   7.510   7.269   1.467  1.7901  0.5994  2.2050
14983SOL    HW245760   7.413   7.154   1.447  3.5840 -0.6560  0.3073
14984SOL     OW45761   3.592   3.969   4.561 -0.0856  0.1314  0.0736
14984SOL    HW145762   3.683   3.988   4.542 -0.2739  0.5639 -0.4019
14984SOL    HW245763   3.589   3.960   4.656  0.4165  0.2770  0.1066
14985SOL     OW45764   6.277   2.191   4.374  0.4597  0.3168  0.3798
14985SOL    HW145765   6.208   2.190   4.308  0.6861 -0.9298  0.1507
14985SOL    HW245766   6.241   2.245   4.445 -0.7032 -0.2036  0.2041
14986SOL     OW45767   6.127   3.345   2.312 -0.3887 -0.0643  0.3317
14986SOL    HW145768   6.216   3.357   2.278 -0.9373  0.8865 -0.8116
14986SOL    HW245769   6.120   3.409   2.383 -0.4234  0.4116 -0.0985
14987SOL     OW45770   4.458   0.114   3.229  0.0015 -0.3606 -0.5203
14987SOL    HW145771   4.425   0.031   3.193  0.1879 -0.5363 -0.2853
14987SOL    HW245772   4.481   0.166   3.151  0.1789 -0.6481 -0.6619
14988SOL     OW45773   5.919   4.728   5.831 -0.2541  0.5971 -0.2278
14988SOL    HW145774   5.844   4.788   5.826  0.5538  1.5806 -0.9471
14988SOL    HW245775   5.975   4.753   5.757  2.1413  1.7364  1.8398
14989SOL     OW45776   6.637   6.118   1.667 -0.1522 -0.3651  0.0334
14989SOL    HW145777   6.635   6.207   1.633  2.2746 -1.1036 -2.4473
14989SOL    HW245778   6.551   6.105   1.708 -0.9319  2.7361 -0.4025
14990SOL     OW45779   1.747   5.668   1.599 -0.1547  0.4212  0.6209
14990SOL    HW145780   1.661   5.641   1.567  0.0436 -0.9322  1.1761
14990SOL    HW245781   1.795   5.695   1.520 -0.6827  0.0340  0.1659
14991SOL     OW45782   1.327   4.726   4.896 -0.2546  0.1113 -0.6240
14991SOL    HW145783   1.419   4.705   4.881 -0.0802  0.4084 -0.0282
14991SOL    HW245784   1.327   4.820   4.917 -0.3610 -0.3601  1.7951
14992SOL     OW45785   4.434   7.482   4.188 -0.4356  0.0458  0.0571
14992SOL    HW145786   4.415   7.415   4.254  0.3406 -0.4901 -0.2427
14992SOL    HW245787   4.530   7.487   4.187 -0.3867 -0.7254 -1.7906
14993SOL     OW45788   1.190   3.116   2.278 -0.2189  0.7664  0.0906
14993SOL    HW145789   1.195   3.020   2.281  0.4913  0.7325 -1.3963
14993SOL    HW245790   1.251   3.141   2.209 -0.0703  2.3343  0.7469
14994SOL     OW45791   6.899   1.668   4.899  0.1720 -0.4007 -0.1215
14994SOL    HW145792   6.865   1.697   4.983  0.8889 -1.5136  0.5970
14994SOL    HW245793   6.939   1.746   4.860  1.5358 -0.2554  1.4613
14995SOL     OW45794   3.881   6.329   2.532  0.6743 -0.8992 -0.4129
14995SOL    HW145795   3.944   6.379   2.480 -0.8772 -0.0963 -1.6081
14995SOL    HW245796   3.907   6.346   2.623 -0.4338  3.2245 -0.6279
14996SOL     OW45797   1.509   1.242   5.516 -0.1641 -0.4650  0.1440
14996SOL    HW145798   1.443   1.264   5.582  0.2926 -1.1757  0.8483
14996SOL    HW245799   1.575   1.311   5.525 -0.6849  0.1312 -0.4231
14997SOL     OW45800   4.475   0.188   1.357  0.4403 -0.0379  0.4222
14997SOL    HW145801   4.480   0.275   1.318  1.9042  0.3653  1.4390
14997SOL    HW245802   4.476   0.129   1.282 -0.5156  0.8038 -0.2772
14998SOL     OW45803   1.899   1.151   6.652 -0.4315 -0.4153 -0.4646
14998SOL    HW145804   1.942   1.175   6.570 -0.6277  1.0950 -0.1417
14998SOL    HW245805   1.952   1.078   6.686  1.9459  1.3393 -0.0885
14999SOL     OW45806   3.559   0.431   6.472  0.0835  0.1275  0.0526
14999SOL    HW145807   3.537   0.426   6.565 -2.6866 -0.6226 -0.5432
14999SOL    HW245808   3.613   0.510   6.464  1.5053 -0.4872  2.4220
15000SOL     OW45809   3.049   5.556   3.076  0.4229 -0.0421 -0.3571
15000SOL    HW145810   2.977   5.613   3.102  0.8021  0.1438  0.2911
15000SOL    HW245811   3.050   5.486   3.141 -0.1970 -0.9433 -1.2875
15001SOL     OW45812   3.395   4.771   5.350 -0.0689 -0.8776  0.5844
15001SOL    HW145813   3.413   4.854   5.305 -0.2817 -2.0785 -1.8354
15001SOL    HW245814   3.303   4.754   5.332 -0.0867 -1.5398  1.2792
15002SOL     OW45815   1.490   0.575   6.770 -0.3095 -0.5032  0.0898
15002SOL    HW145816   1.514   0.629   6.846  1.2138 -0.9939 -0.0217
15002SOL    HW245817   1.455   0.638   6.707 -1.5383 -0.0755  1.1395
15003SOL     OW45818   0.392   0.697   4.793 -0.1681 -0.4326  0.3777
15003SOL    HW145819   0.341   0.627   4.834  0.3230  0.2259  2.2028
15003SOL    HW245820   0.401   0.763   4.862  1.4919  0.3114 -0.5110
15004SOL     OW45821   1.810   5.754   5.758 -0.3042  0.1248  0.6268
15004SOL    HW145822   1.745   5.729   5.692  0.3299 -1.4941  0.5773
15004SOL    HW245823   1.762   5.812   5.817 -0.9640  1.4072 -1.0891
15005SOL     OW45824   0.423   7.905   5.831 -0.4507  0.0102  0.1864
15005SOL    HW145825   0.471   7.984   5.808  2.6900 -2.2122 -1.7665
15005SOL    HW245826   0.442   7.891   5.924  1.6940 -0.0464 -0.2146
15006SOL     OW45827   0.908   1.610   4.764 -0.2996 -0.0321  0.5965
15006SOL    HW145828   0.938   1.526   4.728 -0.3628  0.4683 -0.6773
15006SOL    HW245829   0.989   1.654   4.789 -0.2606 -0.4306  1.1973
15007SOL     OW45830   4.329   0.424   6.820  0.0253 -0.5877 -0.2566
15007SOL    HW145831   4.254   0.478   6.847 -0.2513 -1.4751  0.8202
15007SOL    HW245832   4.404   0.483   6.827 -0.3718 -0.1132  0.1451
15008SOL     OW45833   2.517   1.719   5.750  0.3059 -0.0540 -0.2064
15008SOL    HW145834   2.594   1.775   5.744  1.8782 -2.1423 -0.6321
15008SOL    HW245835   2.552   1.629   5.748 -2.1478 -1.0828 -0.7297
15009SOL     OW45836   0.616   1.895   5.836 -0.1922  0.3421  0.0055
15009SOL    HW145837   0.587   1.980   5.869 -2.5351 -0.4868  0.2812
15009SOL    HW245838   0.645   1.912   5.747 -1.1889  1.3435 -0.1500
15010SOL     OW45839   6.200   7.495   3.267 -0.0830 -0.1999  0.1412
15010SOL    HW145840   6.226   7.411   3.228  0.7910  0.5278 -0.9167
15010SOL    HW245841   6.197   7.478   3.361  0.3794 -1.3501 -0.0335
15011SOL     OW45842   6.698   7.284   7.483 -0.2756  1.0212  0.1597
15011SOL    HW145843   6.635   7.319   7.545  1.3085  1.0472  1.8216
15011SOL    HW245844   6.769   7.248   7.537 -0.0556 -1.3922 -1.5393
15012SOL     OW45845   4.070   5.853   4.341  0.0047  0.3930 -0.0083
15012SOL    HW145846   4.133   5.807   4.285 -0.7063 -0.8813  0.2021
15012SOL    HW245847   4.124   5.891   4.410  0.5484 -0.8417  0.2762
15013SOL     OW45848   6.434   5.796   3.574 -0.0976 -0.0328 -0.6231
15013SOL    HW145849   6.349   5.838   3.583  0.3536  0.6927  0.5397
15013SOL    HW245850   6.494   5.854   3.620  0.9030 -0.9012 -0.7939
15014SOL     OW45851   1.296   3.614   5.299  0.0736  0.1217 -0.1107
15014SOL    HW145852   1.279   3.537   5.353  1.2799 -2.1045 -2.6710
15014SOL    HW245853   1.375   3.653   5.337 -0.6009  0.2005  1.2668
15015SOL     OW45854   5.018   7.730   5.725  0.1794 -0.0485 -0.5228
15015SOL    HW145855   4.923   7.720   5.716 -0.2099  3.0041 -1.0979
15015SOL    HW245856   5.030   7.763   5.815  0.7906 -0.9742 -0.2504
15016SOL     OW45857   2.375   2.269   1.096  0.3634  0.0749 -0.0720
15016SOL    HW145858   2.419   2.191   1.062 -1.1581 -0.1474 -1.7234
15016SOL    HW245859   2.444   2.335   1.101  1.1469 -0.5860 -1.4085
15017SOL     OW45860   3.133   7.283   7.715 -0.5550  0.3740 -0.3357
15017SOL    HW145861   3.048   7.319   7.739 -1.1554 -1.4454  0.4223
15017SOL    HW245862   3.186   7.293   7.794  0.4207  2.6642 -1.1805
15018SOL     OW45863   6.739   0.309   6.981  0.4827 -0.0668 -0.0028
15018SOL    HW145864   6.800   0.309   6.908  0.5071 -0.7068  0.0170
15018SOL    HW245865   6.780   0.255   7.048  1.2485  1.8400  1.1648
15019SOL     OW45866   1.582   5.151   5.889  0.0934 -0.3802 -0.2538
15019SOL    HW145867   1.512   5.108   5.937 -0.2708  1.1136  0.5929
15019SOL    HW245868   1.572   5.119   5.799 -1.8735  0.0133 -0.2233
15020SOL     OW45869   5.146   1.775   4.068 -0.2093 -0.2240 -0.0202
15020SOL    HW145870   5.169   1.712   4.136 -2.2724  0.1145  1.0838
15020SOL    HW245871   5.092   1.725   4.006 -0.1813 -0.0031 -0.2252
15021SOL     OW45872   5.668   4.205   4.984  0.0887 -0.6268 -0.4854
15021SOL    HW145873   5.647   4.121   4.943  1.2503 -1.1303 -0.0920
15021SOL    HW245874   5.675   4.185   5.077 -3.2707  0.6430  0.1912
15022SOL     OW45875   1.209   2.814   0.700  0.4936  0.1738  0.5989
15022SOL    HW145876   1.230   2.855   0.616 -1.3889  0.0281  0.0261
15022SOL    HW245877   1.116   2.829   0.712 -0.1280 -3.0431  0.8353
15023SOL     OW45878   1.755   7.288   7.303  0.0662 -0.0891  0.1088
15023SOL    HW145879   1.774   7.256   7.214  1.4839  0.6435  0.1177
15023SOL    HW245880   1.811   7.235   7.360 -0.5331 -0.2756  0.5363
15024SOL     OW45881   0.641   5.850   5.628 -0.2892  0.4220  0.1549
15024SOL    HW145882   0.594   5.779   5.584  0.3653  0.4762 -0.6658
15024SOL    HW245883   0.733   5.823   5.625 -0.1261  0.9021  0.6161
15025SOL     OW45884   5.581   3.119   0.456  0.0874 -0.1169  0.8317
15025SOL    HW145885   5.641   3.165   0.399  1.0759 -0.5917  1.4567
15025SOL    HW245886   5.637   3.082   0.525 -0.9403 -0.4152  1.5284
15026SOL     OW45887   1.607   5.656   0.890 -0.6455  0.7832 -0.2533
15026SOL    HW145888   1.578   5.723   0.827 -0.1508  1.4314  0.1912
15026SOL    HW245889   1.626   5.706   0.970 -1.6592 -0.0782  0.5523
15027SOL     OW45890   5.156   5.575   6.717 -0.1061  0.1567  0.0164
15027SOL    HW145891   5.236   5.534   6.684  0.1444  0.2415  0.5135
15027SOL    HW245892   5.130   5.522   6.792 -0.8604 -0.2267 -0.5014
15028SOL     OW45893   7.895   1.347   6.806  0.4609  0.0186 -0.3075
15028SOL    HW145894   7.847   1.380   6.882 -0.4186 -1.4842 -0.1498
15028SOL    HW245895   7.944   1.422   6.773  0.3662  0.8559  1.3613
15029SOL     OW45896   4.846   2.944   6.926 -0.3613 -0.1524  0.0490
15029SOL    HW145897   4.905   3.001   6.975 -0.6640 -0.5556  0.9051
15029SOL    HW245898   4.869   2.959   6.834  0.5195  0.2911  0.3284
15030SOL     OW45899   5.130   7.771   0.730  0.3277 -0.2972 -0.3428
15030SOL    HW145900   5.183   7.747   0.654  0.7731  0.3251 -0.2365
15030SOL    HW245901   5.141   7.866   0.738  1.6134 -0.5433  1.4690
15031SOL     OW45902   7.855   2.898   3.812  0.7562 -0.9896 -0.2869
15031SOL    HW145903   7.886   2.982   3.779  1.1665 -0.7750  0.6190
15031SOL    HW245904   7.879   2.835   3.744  2.0138 -0.6255 -0.2015
15032SOL     OW45905   4.004   4.762   5.427 -0.2987 -0.2121 -0.2120
15032SOL    HW145906   3.911   4.742   5.429 -0.3948  0.1049 -1.1518
15032SOL    HW245907   4.026   4.766   5.334  0.3291  1.1856 -0.0313
15033SOL     OW45908   4.214   5.523   2.730  0.0470 -0.3138 -0.1600
15033SOL    HW145909   4.246   5.588   2.668 -1.2202  0.1398 -0.3617
15033SOL    HW245910   4.176   5.454   2.675 -0.0245 -0.4710  0.0831
15034SOL     OW45911   6.998   4.316   4.859  0.3309 -0.2337  0.1138
15034SOL    HW145912   7.067   4.375   4.891  0.4855 -0.9847  1.2272
15034SOL    HW245913   6.941   4.372   4.806  1.4495  0.5260 -0.3071
15035SOL     OW45914   7.062   5.179   7.142 -0.6869 -0.4206 -0.3853
15035SOL    HW145915   7.092   5.181   7.051  0.6269  0.6285  0.0304
15035SOL    HW245916   7.141   5.161   7.193 -0.1377  4.4173  0.9259
15036SOL     OW45917   7.824   2.050   4.999  0.1577 -0.1465 -0.0699
15036SOL    HW145918   7.761   1.985   4.966  0.7904 -0.6192 -0.3488
15036SOL    HW245919   7.773   2.131   5.006 -0.2833 -0.3216 -1.0719
15037SOL     OW45920   2.625   0.816   1.354 -0.4102  0.1489 -1.3450
15037SOL    HW145921   2.574   0.778   1.425  0.7819  1.4121  0.2545
15037SOL    HW245922   2.664   0.740   1.310 -0.0965 -0.6254  0.1912
15038SOL     OW45923   0.888   6.054   6.865  0.3971  0.7283  0.2735
15038SOL    HW145924   0.979   6.022   6.866  0.5545  0.9133 -2.2298
15038SOL    HW245925   0.865   6.056   6.772 -2.3128  0.3566  0.8720
15039SOL     OW45926   2.505   0.134   3.143 -0.3637 -0.7755  0.1833
15039SOL    HW145927   2.516   0.056   3.088 -1.4805 -1.4041  0.8403
15039SOL    HW245928   2.424   0.174   3.112 -0.4688 -0.5809  0.7015
15040SOL     OW45929   6.009   4.836   7.817  0.5688 -0.3138  0.3177
15040SOL    HW145930   6.100   4.855   7.794  0.9003 -1.8138  0.3206
15040SOL    HW245931   6.011   4.818   7.910  0.5020 -1.6301  0.0753
15041SOL     OW45932   2.910   7.304   4.638  0.0782  0.2814 -0.4588
15041SOL    HW145933   2.893   7.243   4.567  0.2627  0.0128 -0.2783
15041SOL    HW245934   2.987   7.353   4.610 -0.3794  0.7921 -0.8300
15042SOL     OW45935   4.019   0.895   2.557  0.3252  0.0651  0.1932
15042SOL    HW145936   4.068   0.945   2.492 -0.4576  0.1936 -0.3087
15042SOL    HW245937   3.963   0.959   2.601  0.5900 -0.0793  0.7564
15043SOL     OW45938   3.365   6.167   2.383  0.6232  0.3749 -0.3994
15043SOL    HW145939   3.371   6.125   2.296 -0.0439  0.7719 -0.6405
15043SOL    HW245940   3.456   6.186   2.406  0.9273 -0.9066 -0.4277
15044SOL     OW45941   5.642   7.943   3.380  0.3251  0.1107 -0.3928
15044SOL    HW145942   5.603   7.901   3.456  1.2900 -1.6164 -0.7875
15044SOL    HW245943   5.614   8.035   3.386  0.0104 -0.0667  1.7741
15045SOL     OW45944   3.330   5.490   0.417  0.2495  0.1123 -0.2819
15045SOL    HW145945   3.342   5.399   0.390  0.5772  0.2250 -0.5242
15045SOL    HW245946   3.237   5.508   0.402  0.2364 -0.1071 -0.4647
15046SOL     OW45947   0.433   4.203   1.437  0.4388  0.5536 -0.1163
15046SOL    HW145948   0.362   4.223   1.498  0.9676  1.0913  0.3378
15046SOL    HW245949   0.511   4.195   1.492  0.5326 -1.3027 -0.4539
15047SOL     OW45950   7.353   2.499   4.429  0.3225  0.0368 -0.3548
15047SOL    HW145951   7.370   2.439   4.356  0.0724  1.1319 -1.3455
15047SOL    HW245952   7.282   2.458   4.478  0.3899 -0.6432 -0.8161
15048SOL     OW45953   4.039   5.215   6.105  0.0695 -0.3480  0.1765
15048SOL    HW145954   3.957   5.165   6.101 -0.7690  0.9992 -0.1677
15048SOL    HW245955   4.026   5.288   6.044  0.8646  0.8055  1.3212
15049SOL     OW45956   4.884   2.925   5.032  0.2608 -0.2984  0.0641
15049SOL    HW145957   4.910   2.936   4.940  2.4135 -2.4065  0.3227
15049SOL    HW245958   4.859   2.833   5.039  1.4600 -0.5441  1.8283
15050SOL     OW45959   6.760   4.250   1.738 -0.0574 -0.7229 -0.0323
15050SOL    HW145960   6.787   4.254   1.829 -1.2478 -1.1232  0.3578
15050SOL    HW245961   6.705   4.172   1.732  0.3383 -0.9454 -1.1946
15051SOL     OW45962   2.931   7.077   0.655 -0.3475  0.2604 -0.3084
15051SOL    HW145963   3.015   7.036   0.637 -1.3151 -1.8779 -0.3601
15051SOL    HW245964   2.938   7.108   0.745  0.1162 -1.0629  0.1454
15052SOL     OW45965   5.724   5.350   3.265 -0.6529 -0.1123 -0.6043
15052SOL    HW145966   5.693   5.262   3.246 -0.0084 -0.6060  0.5255
15052SOL    HW245967   5.647   5.406   3.251 -1.5507 -1.0739  0.3334
15053SOL     OW45968   0.014   0.820   1.673 -0.1382  0.2577 -0.1611
15053SOL    HW145969   0.014   0.738   1.723  1.6799  0.0802 -0.3765
15053SOL    HW245970  -0.066   0.817   1.621 -0.7304 -0.7826  0.7587
15054SOL     OW45971   1.180   4.574   2.477  0.3171 -0.5520  0.3876
15054SOL    HW145972   1.178   4.479   2.479  0.0361 -0.6317 -1.7086
15054SOL    HW245973   1.267   4.597   2.512  0.3063 -1.5405  1.1051
15055SOL     OW45974   3.708   1.221   6.446 -0.3784  0.0933  0.1002
15055SOL    HW145975   3.756   1.140   6.464  2.9630  2.0122  0.7897
15055SOL    HW245976   3.739   1.249   6.359 -0.7529  1.0844  0.2655
15056SOL     OW45977   6.641   6.948   1.244  0.5928 -0.0143  0.2957
15056SOL    HW145978   6.646   7.041   1.224 -1.5307 -0.3188 -2.0377
15056SOL    HW245979   6.707   6.907   1.188  0.2318 -0.0949 -0.0705
15057SOL     OW45980   7.502   4.521   0.721  0.9115  0.0834 -0.1865
15057SOL    HW145981   7.504   4.461   0.646  0.3708 -1.2012  0.7919
15057SOL    HW245982   7.595   4.532   0.744  0.9657 -1.9697  0.8047
15058SOL     OW45983   1.224   1.049   7.019  0.4734  0.4009 -0.1122
15058SOL    HW145984   1.217   1.139   6.986  1.3294 -0.1985 -2.1240
15058SOL    HW245985   1.309   1.046   7.063  0.2374  0.6992  0.3607
15059SOL     OW45986   1.151   0.689   0.080 -0.6064  0.2615 -0.1684
15059SOL    HW145987   1.096   0.763   0.103  0.2892  0.5540  1.1831
15059SOL    HW245988   1.232   0.728   0.048 -0.6969 -0.1445 -0.8976
15060SOL     OW45989   0.026   3.103   0.341 -0.0212  0.3470 -0.1591
15060SOL    HW145990  -0.066   3.098   0.315 -0.0423  2.3833 -0.6790
15060SOL    HW245991   0.025   3.150   0.425  0.4201 -1.7979  1.1329
15061SOL     OW45992   5.830   2.335   2.796 -0.4155 -0.2398 -0.0696
15061SOL    HW145993   5.885   2.409   2.822 -0.1311 -1.1813  2.1938
15061SOL    HW245994   5.889   2.277   2.747 -0.2094  0.2045 -0.3585
15062SOL     OW45995   7.690   4.637   1.157 -0.1626 -0.3625  0.2122
15062SOL    HW145996   7.735   4.685   1.227  0.8687 -0.2868 -0.4855
15062SOL    HW245997   7.689   4.698   1.083  0.5115 -1.1215 -0.4492
15063SOL     OW45998   4.701   7.528   4.181  0.3462 -0.4381 -0.0326
15063SOL    HW145999   4.673   7.620   4.175 -0.0730 -0.5549  0.0429
15063SOL    HW246000   4.769   7.528   4.249  2.0803  0.1968 -1.6899
15064SOL     OW46001   4.697   5.744   4.598  0.5249  0.2074 -0.1404
15064SOL    HW146002   4.728   5.720   4.685 -0.4033  1.3780  0.5538
15064SOL    HW246003   4.711   5.666   4.544  2.1329 -0.1699  0.7741
15065SOL     OW46004   6.101   1.552   3.488  0.3406 -0.2151  0.0776
15065SOL    HW146005   6.083   1.484   3.553  1.2790  0.4105  1.0384
15065SOL    HW246006   6.073   1.515   3.405  0.0114 -1.4227  0.7090
15066SOL     OW46007   7.741   0.543   4.396 -0.2995  0.9024 -0.5133
15066SOL    HW146008   7.717   0.555   4.488 -1.1018 -0.1931 -0.5618
15066SOL    HW246009   7.754   0.448   4.387  1.1000  1.1285 -1.2227
15067SOL     OW46010   1.103   0.914   1.927  0.5095 -0.3338 -0.4317
15067SOL    HW146011   1.038   0.845   1.918  0.2749 -0.3850  1.3705
15067SOL    HW246012   1.176   0.885   1.871 -0.1516 -1.3216 -0.8123
15068SOL     OW46013   0.754   1.892   5.162  0.5048  0.6172  0.7991
15068SOL    HW146014   0.692   1.886   5.089  0.4362 -1.1848  0.9756
15068SOL    HW246015   0.840   1.887   5.121  0.4720 -0.0282  0.8001
15069SOL     OW46016   4.445   7.339   2.558 -0.3969 -0.2728 -0.8089
15069SOL    HW146017   4.425   7.418   2.508  0.7936  2.2898  2.4126
15069SOL    HW246018   4.363   7.318   2.604 -0.4664 -0.3568 -0.9718
15070SOL     OW46019   1.384   1.913   5.955 -0.4983 -0.4046 -0.2245
15070SOL    HW146020   1.401   2.007   5.949 -0.4856 -0.3787  0.1724
15070SOL    HW246021   1.433   1.875   5.883 -1.4268  0.0051 -1.0998
15071SOL     OW46022   1.461   5.302   1.383 -0.0043 -0.2039 -0.0758
15071SOL    HW146023   1.543   5.263   1.412  0.1005  0.2695  0.2652
15071SOL    HW246024   1.397   5.230   1.389  0.0626 -0.1732  1.1076
15072SOL     OW46025   4.097   4.700   3.863 -0.1904  0.2986 -0.7425
15072SOL    HW146026   4.180   4.657   3.886 -0.0205 -0.0034 -1.8518
15072SOL    HW246027   4.122   4.770   3.803 -0.8649 -0.9644 -2.6015
15073SOL     OW46028   0.071   7.487   3.138 -0.2739  0.2397 -0.8779
15073SOL    HW146029  -0.005   7.460   3.189 -0.2396  1.2056 -0.2847
15073SOL    HW246030   0.035   7.514   3.054 -0.4292 -0.5724 -1.0755
15074SOL     OW46031   4.230   2.320   7.636  0.3975 -0.5714  0.2805
15074SOL    HW146032   4.233   2.264   7.714 -0.2555 -2.7081 -1.1355
15074SOL    HW246033   4.141   2.310   7.603 -0.0130  2.0386  0.4059
15075SOL     OW46034   0.111   1.772   0.305 -0.0330 -0.4837  0.4631
15075SOL    HW146035   0.058   1.852   0.307  1.0735  0.2632  1.1149
15075SOL    HW246036   0.057   1.706   0.349 -0.7635  0.0185  0.3432
15076SOL     OW46037   6.792   0.915   0.312 -0.3804  0.0721 -0.5097
15076SOL    HW146038   6.808   0.843   0.373 -0.0113  1.4274  1.0684
15076SOL    HW246039   6.833   0.886   0.231  2.0111 -0.4778  0.7938
15077SOL     OW46040   5.222   5.470   2.822  0.4037  0.2121  0.1717
15077SOL    HW146041   5.226   5.375   2.817  3.1665  0.2243  0.5790
15077SOL    HW246042   5.186   5.497   2.737 -1.9317 -1.1759  0.6405
15078SOL     OW46043   1.370   2.559   3.583 -0.0909  0.1144  0.1417
15078SOL    HW146044   1.381   2.613   3.505 -0.9116 -0.1034 -0.1276
15078SOL    HW246045   1.394   2.617   3.655  0.6597  0.3232 -0.2604
15079SOL     OW46046   3.495   0.712   6.262  0.2537  0.6657 -0.4649
15079SOL    HW146047   3.538   0.796   6.280  0.0778  0.8575 -0.9188
15079SOL    HW246048   3.566   0.648   6.261  0.3836  0.8055 -0.0717
15080SOL     OW46049   1.153   0.994   2.508  0.1233  0.2153  0.0899
15080SOL    HW146050   1.222   0.928   2.519 -0.9917 -0.9353  0.3548
15080SOL    HW246051   1.142   1.001   2.414  0.3916  0.1669  0.0543
15081SOL     OW46052   0.648   3.434   3.232 -0.0821 -0.4335  0.6425
15081SOL    HW146053   0.710   3.374   3.275  1.0197 -0.4580 -0.8872
15081SOL    HW246054   0.704   3.503   3.197 -0.9782 -0.2414 -0.4354
15082SOL     OW46055   7.092   3.503   1.073 -0.3940 -0.1730 -0.4697
15082SOL    HW146056   7.062   3.442   1.140  1.9166 -1.0106 -0.1111
15082SOL    HW246057   7.080   3.456   0.991 -2.2811  0.4666 -0.6032
15083SOL     OW46058   5.048   6.980   0.491  0.2614 -0.2096  0.3202
15083SOL    HW146059   5.031   7.007   0.581  0.7714  3.0449 -0.3994
15083SOL    HW246060   4.966   6.996   0.445  0.4355 -0.3652 -0.0552
15084SOL     OW46061   6.070   2.793   6.005 -0.1330  0.1990 -0.6518
15084SOL    HW146062   6.058   2.729   6.075  0.0720  0.9734  0.1067
15084SOL    HW246063   6.146   2.762   5.956 -0.1530 -0.2342 -0.4132
15085SOL     OW46064   1.849   3.179   2.685 -0.5985 -0.2351 -0.7763
15085SOL    HW146065   1.881   3.228   2.609 -2.0727  3.2833  0.6455
15085SOL    HW246066   1.916   3.193   2.752 -2.3245  2.7106  0.5672
15086SOL     OW46067   2.516   4.715   4.690 -0.2703 -0.2512 -0.1216
15086SOL    HW146068   2.473   4.766   4.622  0.7349 -0.5410 -1.0002
15086SOL    HW246069   2.521   4.626   4.654 -1.5495 -0.9000  1.1825
15087SOL     OW46070   6.545   0.195   2.661  0.2430  0.0600 -0.3866
15087SOL    HW146071   6.539   0.193   2.757 -3.2910  2.5448 -0.3732
15087SOL    HW246072   6.631   0.233   2.643 -0.0392  2.0820  1.9601
15088SOL     OW46073   5.149   2.744   4.492 -0.1904  0.3466  0.2576
15088SOL    HW146074   5.133   2.664   4.442  2.6517  0.4699 -1.0369
15088SOL    HW246075   5.112   2.814   4.437 -1.0133  0.0935  0.4853
15089SOL     OW46076   6.837   7.339   4.997 -0.6225 -0.4504  0.2492
15089SOL    HW146077   6.795   7.361   5.080  0.7518  2.5729  0.2765
15089SOL    HW246078   6.792   7.393   4.932  1.4038  0.8828 -0.1293
15090SOL     OW46079   6.810   5.779   7.570 -0.0454 -0.2081  0.6707
15090SOL    HW146080   6.863   5.814   7.641 -2.7338  1.7957  1.8952
15090SOL    HW246081   6.779   5.856   7.522 -0.4577 -1.3739 -1.0611
15091SOL     OW46082   1.787   4.194   5.570  0.5035  0.7971 -0.1109
15091SOL    HW146083   1.720   4.175   5.503  1.4651  0.8456 -1.1095
15091SOL    HW246084   1.767   4.283   5.597 -0.0326  0.7021 -0.1645
15092SOL     OW46085   1.196   7.400   1.238  0.1588  0.2278 -0.0030
15092SOL    HW146086   1.226   7.412   1.328  1.9260  1.1374 -0.6676
15092SOL    HW246087   1.235   7.317   1.211  0.7017  0.5921 -0.3412
15093SOL     OW46088   5.484   3.275   7.401 -0.5257  0.0638 -0.3319
15093SOL    HW146089   5.538   3.225   7.340 -0.0973  1.2394 -0.9478
15093SOL    HW246090   5.544   3.339   7.440 -1.0475  0.0822  0.4689
15094SOL     OW46091   7.201   1.120   5.242 -0.0605 -0.1747  0.2701
15094SOL    HW146092   7.243   1.180   5.303 -1.0093  0.7141  0.0650
15094SOL    HW246093   7.271   1.092   5.183  1.0005 -1.4138  1.9885
15095SOL     OW46094   3.709   2.967   2.520  0.6058 -0.4167 -0.4058
15095SOL    HW146095   3.779   2.967   2.585 -0.2576  1.5100  0.5943
15095SOL    HW246096   3.746   3.014   2.445  1.1303 -1.4280 -0.8009
15096SOL     OW46097   6.433   2.138   7.312  0.0786 -0.9588  0.3705
15096SOL    HW146098   6.397   2.077   7.247 -0.3828  1.4797 -1.8198
15096SOL    HW246099   6.372   2.211   7.314  1.0272 -0.1293  2.2756
15097SOL     OW46100   1.690   3.209   7.738  0.3140 -0.0182 -0.2139
15097SOL    HW146101   1.682   3.261   7.658  0.5921 -0.2789 -0.4121
15097SOL    HW246102   1.620   3.145   7.733 -1.5950  1.8015  1.1623
15098SOL     OW46103   7.183   5.093   5.574 -0.1430 -0.8481 -0.0006
15098SOL    HW146104   7.119   5.082   5.644  0.3705  2.5952  1.1897
15098SOL    HW246105   7.133   5.134   5.503  0.3554  0.3956  0.3415
15099SOL     OW46106   1.701   6.807   0.185  0.3741 -0.1115 -0.3116
15099SOL    HW146107   1.653   6.729   0.159  0.2457 -0.0426 -0.2803
15099SOL    HW246108   1.791   6.777   0.196  0.0958 -0.5448  0.9661
15100SOL     OW46109   0.058   1.302   3.191  0.0746 -0.0784 -0.1767
15100SOL    HW146110   0.111   1.248   3.250 -0.1821  0.0913  0.2140
15100SOL    HW246111   0.039   1.381   3.242  0.4723  0.3984 -0.7499
15101SOL     OW46112   1.567   2.120   6.763  0.2470  0.1168  0.2003
15101SOL    HW146113   1.642   2.170   6.795  0.5911 -0.8726  0.9917
15101SOL    HW246114   1.565   2.136   6.668  1.4269  0.1934  0.1832
15102SOL     OW46115   6.048   4.522   4.151 -0.1090  0.0918  0.0789
15102SOL    HW146116   6.143   4.526   4.141 -0.2693  0.5547 -1.6267
15102SOL    HW246117   6.021   4.455   4.089 -1.0385  1.3446 -0.9340
15103SOL     OW46118   2.602   6.267   5.683  0.1766 -0.3476  0.2256
15103SOL    HW146119   2.628   6.249   5.773  1.4484  2.6068  0.5610
15103SOL    HW246120   2.525   6.323   5.690  0.7366  0.5436 -0.4575
15104SOL     OW46121   0.224   2.531   6.432 -0.3409 -0.4476 -0.5843
15104SOL    HW146122   0.174   2.552   6.511  0.3864  0.3778 -0.3288
15104SOL    HW246123   0.309   2.503   6.465  0.6159  1.7016 -1.1058
15105SOL     OW46124   5.013   3.136   7.380  0.7281 -0.1885 -0.7777
15105SOL    HW146125   5.064   3.214   7.400  0.9917 -0.0452 -1.9037
15105SOL    HW246126   4.969   3.157   7.297  0.6089 -1.1341 -0.9682
15106SOL     OW46127   6.502   5.113   7.884 -0.2026  0.2940  0.1999
15106SOL    HW146128   6.565   5.181   7.908  1.2573 -1.0468  0.3108
15106SOL    HW246129   6.468   5.140   7.799  1.6145  0.3486 -0.5462
15107SOL     OW46130   8.003   5.631   4.379  0.0295  0.0736  0.0416
15107SOL    HW146131   7.922   5.676   4.353 -0.4315 -0.7270  0.0861
15107SOL    HW246132   7.978   5.540   4.390  0.5584  0.1147  1.7923
15108SOL     OW46133   0.254   2.826   2.879 -0.0132 -0.1354  0.0318
15108SOL    HW146134   0.288   2.870   2.956  1.4730  0.5318 -0.9690
15108SOL    HW246135   0.225   2.897   2.821 -1.6700 -0.6380  0.1725
15109SOL     OW46136   4.635   4.202   0.422  0.6035  0.0884  0.5594
15109SOL    HW146137   4.635   4.251   0.504  1.4046  0.1921  0.5021
15109SOL    HW246138   4.684   4.258   0.361 -0.3324  0.1986 -0.1062
15110SOL     OW46139   4.894   0.370   7.511  0.2766  0.0428  0.4151
15110SOL    HW146140   4.961   0.302   7.509 -0.1043 -0.3597  1.0446
15110SOL    HW246141   4.883   0.396   7.419  0.6563 -0.5140  0.2105
15111SOL     OW46142   0.378   0.968   5.953  0.4979  0.0618 -0.0930
15111SOL    HW146143   0.389   0.918   6.034  1.9164  1.1539  0.4266
15111SOL    HW246144   0.451   0.939   5.898 -1.0008 -1.4088 -1.4327
15112SOL     OW46145   1.148   6.523   7.506  0.2216  0.2478 -0.1895
15112SOL    HW146146   1.181   6.477   7.428 -0.5149  1.7931 -1.4632
15112SOL    HW246147   1.056   6.496   7.512 -0.1757  1.3751 -0.8600
15113SOL     OW46148   6.849   4.628   5.707  0.4248  0.0293 -0.1301
15113SOL    HW146149   6.787   4.604   5.776  1.5789  1.8904  1.6606
15113SOL    HW246150   6.840   4.558   5.642 -0.2536 -2.1739  2.1716
15114SOL     OW46151   5.807   2.057   6.643 -0.2599 -0.1118  0.3933
15114SOL    HW146152   5.827   2.061   6.737  1.3999 -0.4817  0.0793
15114SOL    HW246153   5.854   1.979   6.612  0.3218  0.7624 -0.9913
15115SOL     OW46154   7.872   1.413   2.667 -0.2115 -0.4876  0.2103
15115SOL    HW146155   7.817   1.474   2.716  0.1844  0.2223 -0.2186
15115SOL    HW246156   7.865   1.441   2.576  2.0500  0.5971  0.3029
15116SOL     OW46157   2.244   7.941   3.570 -0.4003  0.5674 -0.0727
15116SOL    HW146158   2.305   7.884   3.617  1.0306  0.4528 -1.9747
15116SOL    HW246159   2.162   7.891   3.569  0.7195 -1.3885 -1.4104
15117SOL     OW46160   0.080   5.450   5.866  0.2030 -0.4088 -0.0882
15117SOL    HW146161   0.132   5.464   5.945  2.1440 -0.9693 -1.1884
15117SOL    HW246162   0.142   5.413   5.803 -1.0835  0.6947 -2.1178
15118SOL     OW46163   2.244   0.297   6.901 -0.1310  0.4168 -1.2916
15118SOL    HW146164   2.160   0.313   6.858  0.4655  2.4232 -1.8066
15118SOL    HW246165   2.303   0.361   6.863  0.8494  1.2162  1.3704
15119SOL     OW46166   5.395   3.334   1.766 -0.0357 -0.6511  0.1262
15119SOL    HW146167   5.386   3.241   1.744 -0.0643 -0.2351 -1.8617
15119SOL    HW246168   5.336   3.378   1.705  0.1223  0.7033  0.9109
15120SOL     OW46169   7.256   2.331   4.938  0.3611 -0.0878  0.4852
15120SOL    HW146170   7.173   2.380   4.943 -0.6733 -1.7529  0.3449
15120SOL    HW246171   7.324   2.399   4.942 -1.0140  1.4565 -0.8054
15121SOL     OW46172   6.555   1.364   5.721 -0.4871 -0.2446 -0.4301
15121SOL    HW146173   6.543   1.374   5.627 -0.4096 -2.0283 -0.6726
15121SOL    HW246174   6.641   1.323   5.730 -0.1843  0.5547  0.4729
15122SOL     OW46175   2.232   1.815   2.106 -0.3355 -0.4319 -0.0896
15122SOL    HW146176   2.323   1.841   2.093  0.3257 -1.2687  2.3092
15122SOL    HW246177   2.193   1.889   2.152 -1.0907  0.1715 -1.6185
15123SOL     OW46178   0.329   6.897   5.780  0.4604  0.1715  0.0615
15123SOL    HW146179   0.282   6.830   5.730  0.5686 -0.8121  1.2120
15123SOL    HW246180   0.419   6.894   5.746  0.2559  0.3577 -0.4980
15124SOL     OW46181   2.128   5.355   5.288  0.2853  0.3691 -0.4671
15124SOL    HW146182   2.196   5.290   5.307 -0.9123 -0.8055 -0.0179
15124SOL    HW246183   2.108   5.395   5.372  0.2466  0.5400 -0.5568
15125SOL     OW46184   3.953   4.835   7.343 -0.6008 -0.2806 -0.4041
15125SOL    HW146185   3.867   4.850   7.381 -0.8771 -0.6035 -0.8944
15125SOL    HW246186   3.939   4.768   7.276  0.0250 -0.3206 -0.5055
15126SOL     OW46187   0.469   7.648   7.521 -0.2008  0.3514  0.2498
15126SOL    HW146188   0.440   7.664   7.430  1.5955  0.8332 -0.2701
15126SOL    HW246189   0.423   7.568   7.546  0.1205 -0.4472 -1.5064
15127SOL     OW46190   2.668   5.111   2.951 -0.2247 -0.0617  0.0430
15127SOL    HW146191   2.576   5.137   2.962  0.1624  0.9297  1.0830
15127SOL    HW246192   2.717   5.171   3.006  1.1685  0.0892 -1.3018
15128SOL     OW46193   4.620   5.843   5.923 -0.9002  0.4536 -0.0118
15128SOL    HW146194   4.526   5.826   5.914 -0.9540 -0.2475  1.5611
15128SOL    HW246195   4.642   5.810   6.010  1.4091 -2.1914 -1.4448
15129SOL     OW46196   4.797   5.948   1.176  0.5003 -0.3253  0.2489
15129SOL    HW146197   4.854   5.877   1.208  1.2111 -0.2679 -0.8286
15129SOL    HW246198   4.789   5.931   1.082 -0.2602  0.3791  0.1832
15130SOL     OW46199   5.766   0.525   7.320  0.0218  0.1183  0.0245
15130SOL    HW146200   5.833   0.481   7.266 -0.7454 -2.1023  0.7550
15130SOL    HW246201   5.814   0.558   7.396  1.0004  2.6939 -1.5862
15131SOL     OW46202   3.881   1.827   1.400  0.2005 -0.3561  0.2087
15131SOL    HW146203   3.934   1.760   1.443  0.1384 -1.0799 -0.7999
15131SOL    HW246204   3.903   1.819   1.307  1.5889  2.3000  0.2180
15132SOL     OW46205   1.238   0.117   1.249 -0.0831 -0.0572 -0.6546
15132SOL    HW146206   1.187   0.192   1.280 -0.2877  0.0670 -1.2743
15132SOL    HW246207   1.313   0.113   1.308  0.1792  0.9408 -0.8968
15133SOL     OW46208   1.930   5.162   7.092 -0.0818 -0.0203 -0.4490
15133SOL    HW146209   1.859   5.135   7.150 -0.3101 -0.4231 -0.9090
15133SOL    HW246210   1.886   5.197   7.015  0.2180 -0.2731 -0.7395
15134SOL     OW46211   1.572   0.474   3.012  1.0911  0.0199 -0.2186
15134SOL    HW146212   1.584   0.392   3.060  1.7452  0.3649  0.2259
15134SOL    HW246213   1.577   0.542   3.080 -0.5682  0.3772 -0.4162
15135SOL     OW46214   0.542   4.118   7.169  0.0205  0.1541  0.1300
15135SOL    HW146215   0.610   4.096   7.105  0.9596 -1.8778  1.6970
15135SOL    HW246216   0.462   4.127   7.118  1.0075  0.1099 -1.4822
15136SOL     OW46217   6.206   2.623   2.521 -0.4309 -0.6770 -0.1008
15136SOL    HW146218   6.117   2.591   2.506 -0.3216 -2.2187  2.0487
15136SOL    HW246219   6.195   2.715   2.544 -1.2120 -0.2656 -1.9171
15137SOL     OW46220   3.421   7.825   6.788 -0.3650 -0.6242  0.3122
15137SOL    HW146221   3.512   7.836   6.761 -0.6066 -0.6109 -0.5211
15137SOL    HW246222   3.384   7.914   6.787 -0.2347 -0.5444  1.2539
15138SOL     OW46223   4.963   7.895   7.586  0.2045 -0.5167 -0.1347
15138SOL    HW146224   4.895   7.957   7.561 -1.0802 -1.1595  1.5619
15138SOL    HW246225   4.925   7.809   7.566  1.0288 -0.8533 -0.3007
15139SOL     OW46226   6.749   3.271   7.083 -0.2235 -0.0812 -0.6151
15139SOL    HW146227   6.720   3.195   7.032 -0.3958  0.8854 -2.0092
15139SOL    HW246228   6.833   3.245   7.120 -0.5609 -1.1591 -0.5688
15140SOL     OW46229   2.580   7.313   0.834 -0.6346  0.2360  0.0567
15140SOL    HW146230   2.542   7.385   0.885 -0.9025  0.2547 -0.1628
15140SOL    HW246231   2.532   7.235   0.864  0.0025  0.0654  0.6560
15141SOL     OW46232   5.298   7.158   4.801 -0.1833  0.6506 -0.3525
15141SOL    HW146233   5.224   7.218   4.792 -0.1503  0.6281 -0.7702
15141SOL    HW246234   5.340   7.184   4.883 -1.2324  0.0344  0.4029
15142SOL     OW46235   3.450   4.698   2.738  0.2676  0.3197  0.3844
15142SOL    HW146236   3.415   4.786   2.724 -0.0189  0.2228  0.4704
15142SOL    HW246237   3.378   4.640   2.711  0.5577  0.1101  0.0513
15143SOL     OW46238   5.755   5.046   5.136  0.2845  0.5436  0.3277
15143SOL    HW146239   5.747   5.140   5.153 -1.5622  0.3144  0.9100
15143SOL    HW246240   5.781   5.041   5.044  0.2283  1.6252  0.2413
15144SOL     OW46241   0.849   1.110   7.516  0.4130 -0.1472 -0.6090
15144SOL    HW146242   0.801   1.053   7.576  0.3991 -0.5009 -0.9516
15144SOL    HW246243   0.848   1.196   7.558 -1.5076  0.1321 -1.1450
15145SOL     OW46244   3.499   0.916   7.803 -0.6220 -0.1951  0.4561
15145SOL    HW146245   3.495   0.943   7.711  1.2437 -0.1440  0.3528
15145SOL    HW246246   3.438   0.975   7.848 -2.1737 -0.7283 -0.8165
15146SOL     OW46247   3.540   2.190   0.162 -0.0934  0.5189 -0.2866
15146SOL    HW146248   3.542   2.169   0.068  1.5953  0.6389 -0.2964
15146SOL    HW246249   3.453   2.163   0.190 -0.0796 -0.9740 -1.5582
15147SOL     OW46250   3.988   6.578   1.129 -0.3396 -1.0687 -0.1536
15147SOL    HW146251   4.068   6.628   1.139 -0.1848 -1.3488  0.0140
15147SOL    HW246252   4.002   6.524   1.052 -0.3356 -1.1805 -0.0745
15148SOL     OW46253   2.637   6.973   5.439  0.4873  0.3743  0.4793
15148SOL    HW146254   2.639   6.878   5.444 -1.0533  0.3446  1.0996
15148SOL    HW246255   2.729   6.999   5.432  0.8804 -1.2000 -0.8832
15149SOL     OW46256   4.045   2.044   0.778  0.0303 -0.4650 -0.0006
15149SOL    HW146257   4.043   2.034   0.873 -0.7874  0.8087  0.1361
15149SOL    HW246258   4.100   2.121   0.764 -0.0635 -0.4968 -0.5478
15150SOL     OW46259   3.199   4.862   6.452 -0.5124 -0.2984  0.3121
15150SOL    HW146260   3.172   4.949   6.423  1.5971 -0.1084 -1.3447
15150SOL    HW246261   3.134   4.803   6.415 -0.7085  0.3997 -0.4904
15151SOL     OW46262   0.111   1.436   7.805  0.2337  0.0740 -0.6134
15151SOL    HW146263   0.063   1.429   7.723  0.6659 -0.9075 -0.7948
15151SOL    HW246264   0.199   1.406   7.784  0.3408 -0.2214  0.2131
15152SOL     OW46265   5.498   4.196   5.953 -0.2970 -0.1627  0.0168
15152SOL    HW146266   5.442   4.250   6.010 -0.9321 -0.6574 -0.1232
15152SOL    HW246267   5.584   4.201   5.993 -0.5327  0.2673  0.4867
15153SOL     OW46268   7.367   4.723   2.010 -0.4729 -0.6387 -0.6274
15153SOL    HW146269   7.300   4.776   1.967  1.0668  1.6365 -0.4162
15153SOL    HW246270   7.449   4.748   1.966  0.9097  0.3475  2.2069
15154SOL     OW46271   1.415   5.967   1.858 -0.7939  0.3151 -0.7096
15154SOL    HW146272   1.465   6.044   1.834 -1.9173  0.7937 -1.5902
15154SOL    HW246273   1.444   5.946   1.947 -1.5315  2.6403  0.1392
15155SOL     OW46274   4.972   1.759   7.957 -0.2814  0.2453  0.1625
15155SOL    HW146275   4.894   1.726   8.002  0.7430 -1.6943  0.6004
15155SOL    HW246276   4.996   1.689   7.896  1.7448  0.2996  0.8217
15156SOL     OW46277   1.103   1.201   0.246 -0.3146  0.1801  0.0456
15156SOL    HW146278   1.168   1.191   0.316  0.7291  0.8871 -0.7776
15156SOL    HW246279   1.019   1.185   0.288  0.3918 -0.8136  1.1371
15157SOL     OW46280   3.427   0.519   0.255  0.6914  0.0207  0.6955
15157SOL    HW146281   3.461   0.608   0.244 -0.3703  0.1546 -2.3936
15157SOL    HW246282   3.375   0.503   0.177 -1.1296 -2.4960  2.2584
15158SOL     OW46283   1.581   7.472   4.744  0.2432 -0.2584  0.6905
15158SOL    HW146284   1.609   7.545   4.798  1.5166  1.2643 -1.8511
15158SOL    HW246285   1.661   7.436   4.707 -0.6124  0.2341 -1.8864
15159SOL     OW46286   3.073   0.422   7.088  0.4381 -0.6534  0.0366
15159SOL    HW146287   3.089   0.418   6.993  1.0912 -1.4908  0.1736
15159SOL    HW246288   2.993   0.370   7.101 -0.3157  0.4007 -0.1740
15160SOL     OW46289   0.187   1.652   4.467  0.3461 -0.6153 -0.2971
15160SOL    HW146290   0.157   1.663   4.558  1.6338 -1.0057  0.1938
15160SOL    HW246291   0.115   1.606   4.424 -0.0382 -0.9627  0.6762
15161SOL     OW46292   1.603   1.111   4.768  0.1453  0.0857 -0.4196
15161SOL    HW146293   1.692   1.075   4.777  0.1331 -0.9703 -3.4543
15161SOL    HW246294   1.547   1.047   4.812  0.8583  1.2560  2.4133
15162SOL     OW46295   3.248   5.804   3.511  0.2612 -0.3823  0.4474
15162SOL    HW146296   3.282   5.841   3.592 -0.9770 -1.0246  1.2827
15162SOL    HW246297   3.191   5.872   3.476 -1.1488 -1.0130  1.4192
15163SOL     OW46298   6.018   2.251   1.042 -0.4470  0.0743 -0.1927
15163SOL    HW146299   6.077   2.271   1.114 -0.3309 -1.1055  0.0605
15163SOL    HW246300   6.075   2.248   0.965 -0.3579  0.0147 -0.1248
15164SOL     OW46301   4.322   6.897   0.298 -0.0585 -0.7220 -0.5818
15164SOL    HW146302   4.394   6.873   0.240  1.4796 -0.1924  1.0595
15164SOL    HW246303   4.305   6.817   0.349 -0.1825 -0.6396 -0.4930
15165SOL     OW46304   7.933   5.832   7.195 -0.1626  0.0715 -0.2167
15165SOL    HW146305   8.014   5.800   7.154 -0.2756  0.0821 -0.4474
15165SOL    HW246306   7.960   5.858   7.284  0.2395  0.7600 -0.5290
15166SOL     OW46307   5.221   6.891   1.925 -0.1441 -0.3324  0.1077
15166SOL    HW146308   5.302   6.859   1.964  1.0010  1.9687 -0.2586
15166SOL    HW246309   5.214   6.844   1.842  0.5115 -0.9237  0.3780
15167SOL     OW46310   0.107   2.900   2.233  0.5294 -0.2527 -0.3088
15167SOL    HW146311   0.093   2.939   2.319  0.5177  0.8384 -0.7841
15167SOL    HW246312   0.029   2.846   2.219  0.2764 -0.0142  0.1474
15168SOL     OW46313   7.677   3.182   7.870 -0.1015  0.0214  0.3610
15168SOL    HW146314   7.738   3.250   7.900  0.3439 -0.8258  1.4417
15168SOL    HW246315   7.733   3.117   7.827 -0.7095  1.1303 -2.2842
15169SOL     OW46316   2.160   6.936   7.554 -0.3546 -0.1659 -0.1553
15169SOL    HW146317   2.147   6.843   7.570  1.3012 -0.5946 -1.0582
15169SOL    HW246318   2.238   6.959   7.605 -1.0729  0.8925  0.5256
15170SOL     OW46319   0.336   3.284   2.811 -0.2018 -0.8781  0.2410
15170SOL    HW146320   0.280   3.358   2.832  0.7767  0.1223 -0.5161
15170SOL    HW246321   0.364   3.250   2.896 -1.3359 -0.9319  0.6085
15171SOL     OW46322   4.941   6.489   2.261  0.1190  0.8862  0.0910
15171SOL    HW146323   4.954   6.456   2.172  0.2238  0.2651  0.3347
15171SOL    HW246324   5.016   6.455   2.310 -1.5643 -1.5212  1.1720
15172SOL     OW46325   1.729   3.989   3.674  0.1700 -0.1739 -0.2928
15172SOL    HW146326   1.732   4.084   3.670 -0.5064 -0.1581 -0.5557
15172SOL    HW246327   1.811   3.960   3.634  0.3596  0.2939 -0.2438
15173SOL     OW46328   5.545   2.405   5.550  0.0710  0.1202  0.2759
15173SOL    HW146329   5.502   2.375   5.470  1.4880 -2.4759  0.3947
15173SOL    HW246330   5.511   2.348   5.619  1.5292 -0.1116  0.8455
15174SOL     OW46331   5.155   6.356   1.184 -0.1743 -0.3178  0.4857
15174SOL    HW146332   5.109   6.433   1.151  1.7581 -0.3977 -2.8942
15174SOL    HW246333   5.222   6.391   1.242 -0.4481  0.3633  0.4004
15175SOL     OW46334   7.220   5.592   5.311  0.3839 -0.1668  0.0641
15175SOL    HW146335   7.221   5.627   5.399  1.6168 -0.0271  0.0035
15175SOL    HW246336   7.279   5.516   5.314  0.5190 -0.0977 -0.6630
15176SOL     OW46337   2.757   5.688   2.619 -0.4342 -0.3230  0.4834
15176SOL    HW146338   2.729   5.598   2.638  1.8305 -1.0842  0.5024
15176SOL    HW246339   2.842   5.696   2.662  0.0372  1.3781 -0.6861
15177SOL     OW46340   7.801   5.953   7.825  0.2962 -0.5389 -0.6515
15177SOL    HW146341   7.724   5.927   7.876  0.0732  2.4905  0.7870
15177SOL    HW246342   7.769   6.018   7.763  1.3665 -0.8788 -1.6136
15178SOL     OW46343   4.331   7.258   0.447 -0.0210  0.3047 -0.1337
15178SOL    HW146344   4.272   7.266   0.372 -0.5844 -0.4035  0.2241
15178SOL    HW246345   4.418   7.256   0.408 -0.2888  0.2870 -0.7459
15179SOL     OW46346   0.152   3.363   1.107  0.1219  0.2637 -0.2718
15179SOL    HW146347   0.080   3.427   1.113  0.5506  0.6160  1.5620
15179SOL    HW246348   0.231   3.415   1.122  0.4778 -0.6605  1.2156
15180SOL     OW46349   3.985   7.147   0.421 -0.6259 -0.5737 -0.5524
15180SOL    HW146350   4.027   7.231   0.406  1.2024 -1.7162 -2.3157
15180SOL    HW246351   4.014   7.092   0.348 -0.5602 -3.1647  1.2785
15181SOL     OW46352   2.035   7.864   2.278  0.5463 -0.0530  0.1593
15181SOL    HW146353   2.127   7.843   2.294  0.5617  0.4479  0.7610
15181SOL    HW246354   1.995   7.780   2.255  1.0644 -0.3450  0.3079
15182SOL     OW46355   4.980   2.136   6.288 -0.2377  0.0833  0.0106
15182SOL    HW146356   5.040   2.091   6.348  0.7934 -0.8035 -1.5924
15182SOL    HW246357   4.895   2.094   6.303  0.6139 -2.2306 -1.1604
15183SOL     OW46358   5.746   3.998   0.106  0.1280 -0.3117 -0.0110
15183SOL    HW146359   5.705   3.996   0.020  0.8245  1.4535 -0.4385
15183SOL    HW246360   5.684   4.045   0.162  0.9370  1.1930 -0.3306
15184SOL     OW46361   0.306   4.071   1.181  0.0901 -0.6204  0.2551
15184SOL    HW146362   0.339   4.104   1.264  0.7201 -0.8567  0.1139
15184SOL    HW246363   0.333   4.136   1.117 -0.5734 -0.3380  0.2623
15185SOL     OW46364   7.932   7.369   2.730  0.6302  0.6934  0.0470
15185SOL    HW146365   7.874   7.311   2.778  0.0270 -0.0731 -1.5282
15185SOL    HW246366   8.008   7.315   2.707  0.3145  0.6536 -0.9583
15186SOL     OW46367   3.302   2.690   7.408 -0.5426 -0.5442 -0.1614
15186SOL    HW146368   3.353   2.725   7.481 -0.0371  0.4144 -0.9571
15186SOL    HW246369   3.286   2.765   7.351 -2.5131 -0.8934 -0.1562
15187SOL     OW46370   2.164   0.236   6.110 -0.0112  0.1906  0.3544
15187SOL    HW146371   2.133   0.242   6.020 -3.1321  1.0780  1.3664
15187SOL    HW246372   2.178   0.327   6.137 -0.8419  0.0568  1.2818
15188SOL     OW46373   4.038   6.898   2.966  0.0887 -0.0330 -0.1842
15188SOL    HW146374   4.047   6.941   3.051  0.0076 -0.2516 -0.0637
15188SOL    HW246375   4.076   6.811   2.979 -1.6509 -0.7633  0.1672
15189SOL     OW46376   0.740   2.754   4.461 -0.3423 -0.4062 -0.3297
15189SOL    HW146377   0.688   2.807   4.522  0.2651 -2.1728  1.8413
15189SOL    HW246378   0.817   2.808   4.444 -1.0082  0.5568 -0.3656
15190SOL     OW46379   5.882   1.371   4.773  0.1641 -0.2783  0.0674
15190SOL    HW146380   5.813   1.350   4.835  0.0627 -1.5576 -0.4566
15190SOL    HW246381   5.963   1.342   4.816  0.1414 -0.7504 -0.2018
15191SOL     OW46382   2.703   6.375   0.445 -0.4599 -0.1436 -0.0836
15191SOL    HW146383   2.795   6.352   0.438  0.2036  1.6096  1.7354
15191SOL    HW246384   2.665   6.307   0.500  0.1080 -0.1214  0.3468
15192SOL     OW46385   7.730   0.406   6.802 -0.4037 -0.5033 -0.2957
15192SOL    HW146386   7.764   0.496   6.805  0.6951 -0.9261  0.7189
15192SOL    HW246387   7.804   0.354   6.771 -0.8053 -1.1758 -0.1371
15193SOL     OW46388   6.432   6.254   0.283  0.4564  0.2830  0.3840
15193SOL    HW146389   6.367   6.321   0.306 -0.3010 -0.5749  0.8386
15193SOL    HW246390   6.416   6.236   0.190  1.3097  1.4029  0.0038
15194SOL     OW46391   6.598   3.671   0.114 -0.1960  0.3656 -0.2650
15194SOL    HW146392   6.680   3.719   0.102 -0.8472  1.4269 -0.6672
15194SOL    HW246393   6.553   3.718   0.185 -1.4446  1.2557 -1.5746
15195SOL     OW46394   7.351   6.288   3.816 -0.2779  0.1272 -0.5553
15195SOL    HW146395   7.391   6.334   3.890 -0.4030  0.9153 -0.9681
15195SOL    HW246396   7.285   6.348   3.783 -1.8190 -1.1247  0.0713
15196SOL     OW46397   4.442   0.554   7.093  0.0003 -0.5002 -0.0389
15196SOL    HW146398   4.426   0.621   7.159  0.2944  0.1885 -0.6528
15196SOL    HW246399   4.421   0.471   7.136 -1.7143  0.0813  0.3074
15197SOL     OW46400   5.241   5.987   4.920  0.7900 -0.1698  0.9655
15197SOL    HW146401   5.301   6.060   4.938 -0.9021  1.4860  0.1782
15197SOL    HW246402   5.273   5.949   4.839 -0.1277  1.7748 -0.3725
15198SOL     OW46403   3.742   5.403   0.416 -0.1156  0.4950 -0.5240
15198SOL    HW146404   3.820   5.433   0.464 -0.3028 -0.2534  0.2713
15198SOL    HW246405   3.726   5.315   0.450 -0.1121 -0.1565 -2.1684
15199SOL     OW46406   7.927   1.597   1.439  0.3090  0.3460  0.2785
15199SOL    HW146407   7.959   1.583   1.528 -0.5809 -1.3907  0.3677
15199SOL    HW246408   7.843   1.642   1.451  0.6976  1.1022  0.2410
15200SOL     OW46409   2.028   7.270   1.093  0.7561  0.3294 -0.0229
15200SOL    HW146410   2.018   7.364   1.080 -0.3007  0.1381 -0.6875
15200SOL    HW246411   1.983   7.252   1.175 -0.9508  0.0993 -0.9660
15201SOL     OW46412   1.759   7.230   6.995 -0.4594  0.1199 -0.0613
15201SOL    HW146413   1.693   7.167   6.967 -0.4218 -0.1290  0.3943
15201SOL    HW246414   1.711   7.311   7.007 -0.4305  0.2991 -1.0731
15202SOL     OW46415   6.439   4.416   7.467 -0.3437  0.2872  0.0774
15202SOL    HW146416   6.371   4.440   7.531  0.0067  2.6874 -0.3742
15202SOL    HW246417   6.391   4.404   7.385 -0.5914 -1.2664  0.4148
15203SOL     OW46418   2.007   0.353   6.757 -0.0562  0.0075 -0.3771
15203SOL    HW146419   2.040   0.305   6.682 -0.4515  0.5699 -0.9252
15203SOL    HW246420   1.914   0.367   6.738 -0.3086 -0.3705  0.4986
15204SOL     OW46421   0.712   2.852   6.630 -0.5395 -0.0575 -0.0562
15204SOL    HW146422   0.764   2.896   6.697  1.0009 -0.6637 -0.7910
15204SOL    HW246423   0.634   2.822   6.675  0.7086 -0.9410  1.6109
15205SOL     OW46424   4.989   7.487   7.492  0.1059  0.5168 -0.0995
15205SOL    HW146425   4.947   7.444   7.567 -0.0314  0.3981 -0.2436
15205SOL    HW246426   5.081   7.459   7.497 -0.5302 -2.3732 -1.9441
15206SOL     OW46427   3.130   5.989   0.292 -0.0169  0.1596  0.4673
15206SOL    HW146428   3.157   6.081   0.286  0.9538 -0.1320  0.1861
15206SOL    HW246429   3.180   5.954   0.365  3.1309 -1.2459 -2.0962
15207SOL     OW46430   3.615   1.610   3.368 -0.0447  0.5175 -0.4514
15207SOL    HW146431   3.607   1.633   3.461 -2.3901  1.0493 -0.7164
15207SOL    HW246432   3.617   1.694   3.323  0.8020  0.2559 -0.9188
15208SOL     OW46433   2.445   7.922   4.362 -0.0787  0.2482  0.1678
15208SOL    HW146434   2.457   8.008   4.400  0.2659  0.1566  0.2715
15208SOL    HW246435   2.532   7.883   4.361 -0.4035 -0.5738  1.2596
15209SOL     OW46436   0.991   3.526   3.311 -0.1316 -0.0252 -0.9485
15209SOL    HW146437   0.917   3.538   3.252  0.6575  1.4258 -1.7149
15209SOL    HW246438   0.996   3.609   3.359 -0.8334 -1.1970  1.3266
15210SOL     OW46439   0.107   0.665   2.173 -0.0926 -0.2327  0.4813
15210SOL    HW146440   0.018   0.695   2.156  0.5049  0.6897 -1.2699
15210SOL    HW246441   0.118   0.589   2.116 -0.3390 -1.5403  2.0951
15211SOL     OW46442   3.984   3.199   7.119 -0.0794 -0.2226 -0.0587
15211SOL    HW146443   3.959   3.171   7.030 -1.0808 -0.2078  0.2030
15211SOL    HW246444   3.977   3.119   7.172 -1.2506  0.1356  0.3494
15212SOL     OW46445   5.706   1.266   6.069 -0.2887 -0.0411  0.3525
15212SOL    HW146446   5.668   1.354   6.064 -0.4584 -0.1705 -2.1954
15212SOL    HW246447   5.631   1.207   6.063 -0.1976 -0.4123  2.3267
15213SOL     OW46448   1.831   5.035   5.717  0.1868  0.2677  0.6179
15213SOL    HW146449   1.762   5.101   5.703 -0.9635 -0.9920  0.1406
15213SOL    HW246450   1.892   5.049   5.644 -1.0902 -0.4321 -0.6462
15214SOL     OW46451   3.175   2.329   2.441  0.0324 -0.1003  0.4464
15214SOL    HW146452   3.232   2.391   2.397  2.3920  0.1663  3.5372
15214SOL    HW246453   3.214   2.243   2.424  1.0948  0.0254  2.0613
15215SOL     OW46454   4.633   4.709   6.725  0.0101 -0.3025 -0.1850
15215SOL    HW146455   4.710   4.684   6.673 -0.0422  1.2381 -1.0587
15215SOL    HW246456   4.564   4.725   6.660 -0.4162  0.4594  0.4354
15216SOL     OW46457   4.920   6.736   1.937  0.2507 -0.4407  0.4226
15216SOL    HW146458   4.979   6.752   2.011  0.8891 -1.0669  0.0615
15216SOL    HW246459   4.915   6.821   1.893 -3.1560  1.0553  3.2445
15217SOL     OW46460   7.798   6.927   2.397 -0.0750 -0.2262  0.2906
15217SOL    HW146461   7.770   6.887   2.315  0.9559 -0.3787 -0.0010
15217SOL    HW246462   7.892   6.912   2.400 -0.0211  0.2292  1.2586
15218SOL     OW46463   6.309   0.227   3.007 -0.5600  0.4715 -0.0379
15218SOL    HW146464   6.271   0.280   3.077 -0.6418 -1.1216  1.1732
15218SOL    HW246465   6.236   0.174   2.974 -0.2140  0.1643 -0.3238
15219SOL     OW46466   3.556   3.987   6.140  0.1474 -0.4574  0.2493
15219SOL    HW146467   3.600   3.981   6.225 -1.9428  0.8787  1.4895
15219SOL    HW246468   3.560   3.897   6.105  0.3563 -1.2156  2.1130
15220SOL     OW46469   3.603   7.785   3.078 -0.4973 -0.0373  0.6849
15220SOL    HW146470   3.605   7.725   3.152 -3.2213  0.1765  1.0377
15220SOL    HW246471   3.621   7.871   3.117 -0.6097 -0.0935  0.8614
15221SOL     OW46472   3.776   6.411   6.210 -0.2948  0.1448  0.1516
15221SOL    HW146473   3.690   6.452   6.215 -1.1064 -1.4382  0.1061
15221SOL    HW246474   3.767   6.331   6.262  1.2644  0.1246  0.4332
15222SOL     OW46475   2.458   7.696   2.020 -0.1244 -0.6119 -0.4624
15222SOL    HW146476   2.546   7.687   1.981 -0.4405 -0.6353 -1.1860
15222SOL    HW246477   2.421   7.773   1.976 -1.1093 -1.5960 -1.4230
15223SOL     OW46478   3.889   7.826   4.078 -0.4399  0.6844 -0.0149
15223SOL    HW146479   3.832   7.776   4.137 -0.3774  0.7067  0.0637
15223SOL    HW246480   3.895   7.913   4.118  0.5301  0.3689  0.5571
15224SOL     OW46481   6.461   2.130   5.455  0.3182 -0.6510  0.1628
15224SOL    HW146482   6.428   2.179   5.379  0.9212  0.0847  0.3681
15224SOL    HW246483   6.508   2.195   5.507  0.3827 -1.2702  0.8902
15225SOL     OW46484   6.645   3.887   6.256 -0.1425  0.2850 -0.1896
15225SOL    HW146485   6.586   3.819   6.225  0.9107 -0.1119 -1.4353
15225SOL    HW246486   6.715   3.889   6.191  0.6935  1.4288  0.7019
15226SOL     OW46487   7.588   4.684   0.472 -0.1075  0.1522  0.3043
15226SOL    HW146488   7.673   4.645   0.453 -0.9276 -1.9120  0.5432
15226SOL    HW246489   7.606   4.748   0.541  1.1352 -0.8989  0.9983
15227SOL     OW46490   0.783   3.976   6.035 -0.0304  0.0057  0.7116
15227SOL    HW146491   0.813   4.013   5.953  1.4756  0.4460  1.4244
15227SOL    HW246492   0.764   3.884   6.014 -0.1357  0.2297 -0.2202
15228SOL     OW46493   3.235   7.651   1.839 -1.0889  0.1677 -0.3453
15228SOL    HW146494   3.165   7.588   1.855 -0.6026 -0.4401 -0.5645
15228SOL    HW246495   3.205   7.732   1.880 -2.0417 -0.0039 -0.6778
15229SOL     OW46496   7.261   4.854   3.573 -0.6453 -0.0203  0.2294
15229SOL    HW146497   7.284   4.900   3.653 -0.1268  0.8116 -0.3826
15229SOL    HW246498   7.331   4.790   3.561  0.2693  1.0667 -0.4896
15230SOL     OW46499   5.920   0.684   0.249 -0.2775 -0.2750  0.2230
15230SOL    HW146500   5.977   0.748   0.292 -0.6692  0.0073  0.3330
15230SOL    HW246501   5.840   0.733   0.228  0.0236 -0.3157 -1.1237
15231SOL     OW46502   6.516   6.441   4.643  0.3061  0.4202  0.1414
15231SOL    HW146503   6.556   6.524   4.671  0.1304  0.4276  0.3786
15231SOL    HW246504   6.435   6.436   4.693 -0.2416  0.6449 -0.7099
15232SOL     OW46505   6.341   3.110   1.743 -0.3987  0.2204 -0.1927
15232SOL    HW146506   6.396   3.128   1.667 -3.0953 -1.0633 -2.6365
15232SOL    HW246507   6.258   3.153   1.723 -0.5803  1.6877  3.1050
15233SOL     OW46508   7.832   4.382   2.074  0.8338  0.4716 -0.0935
15233SOL    HW146509   7.878   4.416   1.997  1.8430  0.1034  0.3271
15233SOL    HW246510   7.759   4.332   2.039  1.8401 -0.5000 -0.8605
15234SOL     OW46511   2.051   1.121   4.004  0.2149  0.0399 -0.0033
15234SOL    HW146512   2.009   1.187   3.949 -0.5808  1.5011  2.1915
15234SOL    HW246513   2.034   1.151   4.094  1.9985 -1.8361  1.0499
15235SOL     OW46514   2.963   1.806   4.579  0.2371  0.1081 -0.5448
15235SOL    HW146515   2.933   1.881   4.630  0.5228  1.8381 -2.7518
15235SOL    HW246516   2.892   1.743   4.584  0.1397  0.3284  1.6743
15236SOL     OW46517   6.677   7.348   6.829 -0.1345  0.4988  0.1487
15236SOL    HW146518   6.597   7.325   6.877  0.2146  0.6688  0.8221
15236SOL    HW246519   6.748   7.323   6.888  0.2839  2.3452  0.4952
15237SOL     OW46520   3.782   0.204   7.665 -0.3828  0.1773 -0.0827
15237SOL    HW146521   3.819   0.210   7.577 -1.1976 -0.0829 -0.4520
15237SOL    HW246522   3.842   0.255   7.720  1.4770 -1.6137 -0.3389
15238SOL     OW46523   0.910   6.050   5.270 -0.5690  0.3970 -0.6419
15238SOL    HW146524   0.868   5.965   5.266 -1.3369  0.7008  0.3356
15238SOL    HW246525   0.990   6.041   5.219 -0.3717 -1.0634 -0.1053
15239SOL     OW46526   7.522   6.814   1.330  0.5364 -0.5373 -0.1555
15239SOL    HW146527   7.601   6.764   1.354  0.5642 -0.9224 -1.0326
15239SOL    HW246528   7.498   6.781   1.244  0.2521  0.6033 -0.5298
15240SOL     OW46529   1.349   6.835   0.844 -0.2985 -0.0393 -0.1293
15240SOL    HW146530   1.328   6.743   0.862 -0.8177  0.1552  0.2679
15240SOL    HW246531   1.369   6.837   0.750  0.8615 -0.7703  0.0793
15241SOL     OW46532   3.999   2.831   4.864  0.1883 -0.0734  0.1710
15241SOL    HW146533   4.048   2.913   4.857  0.5094 -0.3202 -0.5569
15241SOL    HW246534   4.065   2.765   4.883 -0.2583  0.0603  2.4303
15242SOL     OW46535   6.250   0.435   7.152  0.4239  0.4944  0.3970
15242SOL    HW146536   6.298   0.493   7.211  0.4351 -0.6166  1.5219
15242SOL    HW246537   6.316   0.375   7.118  0.5362  1.5131 -1.3021
15243SOL     OW46538   1.381   3.725   2.708  0.4730  0.1593 -0.4952
15243SOL    HW146539   1.399   3.643   2.662  1.8008  0.3327 -0.3171
15243SOL    HW246540   1.389   3.792   2.641 -0.4767  0.1614 -0.6110
15244SOL     OW46541   3.629   0.448   3.260 -0.1308  0.6984 -0.2760
15244SOL    HW146542   3.615   0.486   3.346  1.3074  0.5609  0.0393
15244SOL    HW246543   3.657   0.521   3.205  0.4052  0.5254 -0.2407
15245SOL     OW46544   7.070   7.331   0.382 -0.1433  0.2220  0.3770
15245SOL    HW146545   6.984   7.372   0.374 -0.3383 -0.0448  1.0217
15245SOL    HW246546   7.066   7.282   0.465  0.6948  0.3700  0.5161
15246SOL     OW46547   4.797   3.668   7.007 -0.0807  0.0232  0.1095
15246SOL    HW146548   4.732   3.672   6.937 -0.6475  0.1751  0.6301
15246SOL    HW246549   4.816   3.759   7.027 -1.9807  0.0947  1.9890
15247SOL     OW46550   2.170   0.186   3.492  0.2592 -0.1839 -0.4017
15247SOL    HW146551   2.082   0.175   3.458 -0.0706 -2.3734  0.9165
15247SOL    HW246552   2.195   0.098   3.522  2.1739  0.7237  0.9000
15248SOL     OW46553   5.671   5.506   6.914  0.2747 -0.1120  0.5984
15248SOL    HW146554   5.731   5.440   6.949 -1.1253 -2.1968 -0.7065
15248SOL    HW246555   5.590   5.459   6.898 -0.6016  1.7944 -1.0199
15249SOL     OW46556   3.416   4.178   1.532  0.4259 -0.4188 -0.1505
15249SOL    HW146557   3.402   4.237   1.458 -0.1502 -1.4543 -0.9056
15249SOL    HW246558   3.392   4.228   1.609  0.5925  0.5355 -0.7009
15250SOL     OW46559   2.655   1.335   1.120 -0.5079  0.2607 -0.0527
15250SOL    HW146560   2.678   1.353   1.211  1.1040  0.3882 -0.4538
15250SOL    HW246561   2.686   1.412   1.072  1.2933 -1.0247 -1.0585
15251SOL     OW46562   5.903   3.800   7.116  0.0842 -0.1753 -0.0707
15251SOL    HW146563   5.938   3.810   7.028 -3.3278 -1.4416 -1.7586
15251SOL    HW246564   5.885   3.890   7.145 -0.7363  0.1972 -1.6368
15252SOL     OW46565   3.190   1.605   2.607 -0.5574 -0.1525 -0.5943
15252SOL    HW146566   3.266   1.582   2.554  0.0041  2.6714 -1.2235
15252SOL    HW246567   3.120   1.549   2.575  1.3524 -3.5820  0.6677
15253SOL     OW46568   7.228   4.626   0.521  0.1689 -0.2671 -1.0014
15253SOL    HW146569   7.304   4.598   0.471  0.0322  0.5304 -1.6662
15253SOL    HW246570   7.246   4.717   0.545  0.5596 -0.8422  1.0501
15254SOL     OW46571   7.542   7.348   7.168  0.4769 -0.1212  0.3636
15254SOL    HW146572   7.628   7.331   7.206  1.1453  1.3259 -0.4236
15254SOL    HW246573   7.539   7.443   7.156 -0.4587 -0.3241 -1.3790
15255SOL     OW46574   4.040   1.544   3.388 -0.7085  0.6428  0.0532
15255SOL    HW146575   4.028   1.627   3.434 -0.6714  1.2894 -1.0599
15255SOL    HW246576   4.044   1.568   3.295  2.0142 -0.2673 -0.1586
15256SOL     OW46577   6.756   4.816   1.416 -0.0522  0.2733 -0.3101
15256SOL    HW146578   6.698   4.842   1.488  0.3467 -0.4684  0.2884
15256SOL    HW246579   6.733   4.725   1.397  1.8662 -0.5271  0.9272
15257SOL     OW46580   0.083   6.785   6.701 -0.1768  0.2704  0.4819
15257SOL    HW146581   0.062   6.706   6.651 -0.4024 -0.7370  2.0971
15257SOL    HW246582   0.000   6.810   6.742  0.0265  1.0208  0.4509
15258SOL     OW46583   5.341   6.863   0.496 -0.2707 -0.2263 -0.1296
15258SOL    HW146584   5.365   6.872   0.403 -3.6637 -0.6654 -1.1834
15258SOL    HW246585   5.288   6.941   0.514  0.8040  0.1364  1.6693
15259SOL     OW46586   2.241   7.980   1.418  0.1875 -0.3306  0.2722
15259SOL    HW146587   2.193   7.922   1.359 -0.2348 -0.0754  0.3617
15259SOL    HW246588   2.235   8.066   1.377  0.7948 -0.3471  0.1512
15260SOL     OW46589   3.958   7.719   5.340 -0.1617 -0.6730  0.0677
15260SOL    HW146590   3.904   7.741   5.416 -0.4022 -1.1187  0.0264
15260SOL    HW246591   4.044   7.700   5.377 -0.1750 -0.5113  0.1863
15261SOL     OW46592   1.709   7.885   6.931  0.0461 -0.0115  0.6817
15261SOL    HW146593   1.679   7.954   6.871  1.5825  1.5281  1.5875
15261SOL    HW246594   1.756   7.823   6.875 -2.4970 -1.1488 -0.3582
15262SOL     OW46595   2.266   3.887   4.864  0.1412  0.0177 -0.3939
15262SOL    HW146596   2.240   3.941   4.789 -0.6746 -1.0836 -0.9204
15262SOL    HW246597   2.362   3.887   4.861  0.1274  0.4300 -1.1175
15263SOL     OW46598   2.647   1.097   1.407  0.3606 -0.8347 -0.4333
15263SOL    HW146599   2.616   1.173   1.357  0.2666 -1.3881 -1.2197
15263SOL    HW246600   2.614   1.021   1.360 -0.2885 -1.3677  0.8276
15264SOL     OW46601   3.737   0.329   0.086  0.3675 -0.5126  0.8698
15264SOL    HW146602   3.764   0.288   0.168 -0.2780  0.3027  1.5200
15264SOL    HW246603   3.661   0.278   0.058  1.9243 -2.2308 -0.4760
15265SOL     OW46604   7.744   1.741   2.023 -0.1636  0.3215 -0.0242
15265SOL    HW146605   7.666   1.779   2.064 -1.5282 -1.0749 -1.1741
15265SOL    HW246606   7.760   1.661   2.073 -0.5300 -0.2794 -0.8499
15266SOL     OW46607   4.157   5.504   4.514 -0.1728  0.3221  0.0467
15266SOL    HW146608   4.106   5.498   4.595 -0.4655  0.0028 -0.1561
15266SOL    HW246609   4.244   5.530   4.542  0.1285 -1.2106  0.6150
15267SOL     OW46610   5.261   5.055   1.831  0.0418 -0.0759  0.1489
15267SOL    HW146611   5.182   5.001   1.837 -0.0038  0.0458  0.7653
15267SOL    HW246612   5.267   5.097   1.917  0.0220  0.9694 -0.3512
15268SOL     OW46613   6.108   6.480   0.826 -0.0409  0.0634  0.1643
15268SOL    HW146614   6.195   6.470   0.786  0.5290 -0.2014  1.4321
15268SOL    HW246615   6.091   6.574   0.823  0.5296  0.1767  0.4001
15269SOL     OW46616   7.923   7.692   1.525 -0.3202 -0.4930  0.0849
15269SOL    HW146617   7.977   7.615   1.542  0.8254  0.1234 -0.6375
15269SOL    HW246618   7.984   7.765   1.530 -1.2577  0.3058  0.0462
15270SOL     OW46619   5.608   7.171   6.104 -0.3565  0.2025  0.5116
15270SOL    HW146620   5.602   7.157   6.199  1.2695 -2.3412  0.3653
15270SOL    HW246621   5.702   7.169   6.086 -0.6433  0.5011 -1.1814
15271SOL     OW46622   1.445   1.283   3.815  0.3375 -0.7278  0.3439
15271SOL    HW146623   1.526   1.333   3.820  0.5517 -1.0913  0.5245
15271SOL    HW246624   1.472   1.195   3.788  0.1842 -1.2517  1.7827
15272SOL     OW46625   7.029   3.053   6.523 -0.1177 -0.3524  0.2368
15272SOL    HW146626   7.041   2.996   6.599 -0.6245  1.2073  1.5336
15272SOL    HW246627   7.093   3.021   6.459  0.8304 -1.2404  1.5841
15273SOL     OW46628   5.481   0.185   4.245 -0.2692 -0.4041  0.4003
15273SOL    HW146629   5.451   0.230   4.324  1.2765 -0.2938  0.9602
15273SOL    HW246630   5.434   0.228   4.174 -1.1232  0.0073  1.1873
15274SOL     OW46631   0.984   6.067   3.500  0.0186 -0.4133  0.7253
15274SOL    HW146632   0.921   5.995   3.491 -0.3644 -0.1162  0.9391
15274SOL    HW246633   0.929   6.144   3.511  0.4137  0.0530 -0.4679
15275SOL     OW46634   6.462   0.855   1.600  0.0314 -0.0761 -0.6836
15275SOL    HW146635   6.499   0.813   1.678 -0.8099  0.4950  0.0339
15275SOL    HW246636   6.413   0.785   1.556  0.6945 -0.4564 -0.8322
15276SOL     OW46637   1.780   0.029   1.367 -0.0744 -0.3507  0.2578
15276SOL    HW146638   1.834   0.107   1.375 -1.4017  0.3945  2.7762
15276SOL    HW246639   1.832  -0.041   1.407  0.9254 -0.7470 -1.6016
15277SOL     OW46640   0.686   0.410   0.392  0.0337 -0.3120 -0.0829
15277SOL    HW146641   0.676   0.444   0.480 -1.7656 -0.6868 -0.1030
15277SOL    HW246642   0.616   0.452   0.342  1.2415  0.1668 -1.4320
15278SOL     OW46643   7.430   7.133   3.785  0.1780  0.8483 -0.0318
15278SOL    HW146644   7.372   7.127   3.709 -0.4349 -0.1458  0.5062
15278SOL    HW246645   7.508   7.179   3.752 -0.1258  0.5327 -1.2239
15279SOL     OW46646   3.280   5.174   6.227  0.1171  0.2404  0.0438
15279SOL    HW146647   3.322   5.126   6.156  1.5608  0.6344  0.6027
15279SOL    HW246648   3.207   5.118   6.254 -1.5916  0.8550 -2.8494
15280SOL     OW46649   4.109   0.706   3.808  0.0165  0.4248  0.3767
15280SOL    HW146650   4.088   0.652   3.731 -0.9634  0.8737  0.3088
15280SOL    HW246651   4.195   0.743   3.789 -0.1296  0.3728 -0.4227
15281SOL     OW46652   3.092   3.454   7.727 -0.0810  1.1609 -0.0834
15281SOL    HW146653   3.170   3.496   7.764  1.4767 -0.8541 -0.8773
15281SOL    HW246654   3.064   3.392   7.795  0.1454  0.5865 -0.5000
15282SOL     OW46655   2.496   6.560   1.057  0.0883 -0.5942  0.3407
15282SOL    HW146656   2.414   6.570   1.105 -0.2015 -0.9500 -0.0678
15282SOL    HW246657   2.469   6.538   0.968  0.6191 -0.0514  0.0376
15283SOL     OW46658   0.208   3.697   3.352  0.0934  0.1540  0.1272
15283SOL    HW146659   0.201   3.667   3.261  0.8396 -0.2520  0.1914
15283SOL    HW246660   0.129   3.664   3.395 -0.0135 -0.0889 -0.2551
15284SOL     OW46661   0.202   4.422   3.577  0.1672 -0.8131  0.2185
15284SOL    HW146662   0.141   4.355   3.546 -1.5458  0.2310  1.1980
15284SOL    HW246663   0.234   4.465   3.498 -3.2040  1.0201 -0.3295
15285SOL     OW46664   1.812   2.322   3.154  0.0837 -0.1532  0.3914
15285SOL    HW146665   1.726   2.359   3.135  0.0216  1.1786  2.8253
15285SOL    HW246666   1.833   2.355   3.241  2.7298 -1.1001  0.1952
15286SOL     OW46667   0.076   2.405   2.560  0.4687 -0.7965  0.4500
15286SOL    HW146668  -0.007   2.441   2.591 -0.8950 -2.8859 -0.5951
15286SOL    HW246669   0.092   2.450   2.477  0.1626 -0.7372  0.4239
15287SOL     OW46670   7.321   7.268   1.223  0.0187 -0.2226 -0.5598
15287SOL    HW146671   7.237   7.314   1.216 -0.2029 -0.7672 -1.7758
15287SOL    HW246672   7.347   7.279   1.314 -1.0338  0.5487 -0.3308
15288SOL     OW46673   7.838   2.122   3.733  0.2115 -1.0287 -0.1786
15288SOL    HW146674   7.832   2.194   3.671 -1.8403 -0.4988  0.5529
15288SOL    HW246675   7.873   2.049   3.682 -1.3896 -0.6080 -1.9867
15289SOL     OW46676   6.125   6.771   3.587 -0.0659  0.0586  0.4972
15289SOL    HW146677   6.033   6.764   3.562 -0.2448  1.6768  0.5946
15289SOL    HW246678   6.137   6.704   3.654 -0.7435 -1.2513 -0.6386
15290SOL     OW46679   1.558   0.047   6.385  0.0505 -0.3432 -0.0762
15290SOL    HW146680   1.521  -0.039   6.403 -0.6523  0.0606  0.4965
15290SOL    HW246681   1.502   0.084   6.316  1.1951 -0.8772 -1.3369
15291SOL     OW46682   4.010   1.304   7.773  0.6025 -0.4303 -0.2098
15291SOL    HW146683   4.028   1.233   7.712 -0.2317 -0.8829  0.0582
15291SOL    HW246684   4.095   1.345   7.787  0.7667 -0.0827 -1.9454
15292SOL     OW46685   4.233   3.816   5.363 -0.5665 -0.2047 -0.0893
15292SOL    HW146686   4.234   3.911   5.355 -2.0248  0.0285  1.7810
15292SOL    HW246687   4.313   3.787   5.319 -0.1062  1.8691 -0.7193
15293SOL     OW46688   3.111   2.830   3.211 -0.3757  0.5019  0.1232
15293SOL    HW146689   3.189   2.870   3.174  0.2121 -0.0077  0.7922
15293SOL    HW246690   3.048   2.902   3.217 -0.0579  0.8557 -0.6748
15294SOL     OW46691   1.156   1.212   5.470  1.0276  0.7525 -0.3031
15294SOL    HW146692   1.061   1.222   5.475  0.7647 -1.7096  0.8609
15294SOL    HW246693   1.189   1.263   5.544  0.5618  1.0725 -0.3099
15295SOL     OW46694   4.684   1.494   5.529  0.2350 -0.3151  0.1327
15295SOL    HW146695   4.592   1.521   5.536 -0.3165 -2.1566  0.5776
15295SOL    HW246696   4.690   1.454   5.442  0.5381 -0.4802  0.2303
15296SOL     OW46697   2.933   5.507   6.139 -0.2393 -0.1689  0.0245
15296SOL    HW146698   2.905   5.569   6.072 -0.2548 -1.1943 -0.9362
15296SOL    HW246699   2.900   5.544   6.221  1.5077  2.1753 -0.2274
15297SOL     OW46700   1.076   0.066   5.153 -0.0837 -0.5023  0.2436
15297SOL    HW146701   1.170   0.079   5.162 -0.3750  3.8640 -0.5822
15297SOL    HW246702   1.060   0.072   5.059 -1.1826 -1.5268  0.3440
15298SOL     OW46703   4.178   1.065   7.955  0.0528 -0.3975  0.1090
15298SOL    HW146704   4.192   0.995   7.892 -1.0206 -0.5371 -0.0050
15298SOL    HW246705   4.228   1.139   7.922  0.9475 -1.0112  0.0659
15299SOL     OW46706   3.627   3.344   1.328  0.3262  0.3574  0.0573
15299SOL    HW146707   3.554   3.381   1.378 -0.8233  0.2694 -1.4777
15299SOL    HW246708   3.637   3.403   1.254  1.8849  0.3984  0.2739
15300SOL     OW46709   0.451   7.458   6.412  0.7756  0.7739  0.5387
15300SOL    HW146710   0.543   7.480   6.402  1.0569 -0.8724 -1.2894
15300SOL    HW246711   0.450   7.381   6.469  0.7824 -0.4086 -0.9774
15301SOL     OW46712   4.148   0.451   2.926 -0.3144 -0.2697  0.4636
15301SOL    HW146713   4.163   0.413   3.013 -3.1484 -1.4782  0.5129
15301SOL    HW246714   4.085   0.521   2.940 -2.8151 -2.0973 -0.7906
15302SOL     OW46715   3.805   3.938   5.033  0.2165  0.1548  0.3464
15302SOL    HW146716   3.898   3.959   5.028  0.0984  1.3156  2.0655
15302SOL    HW246717   3.801   3.852   5.075  0.4941  0.5757  1.2419
15303SOL     OW46718   2.321   6.956   6.628  0.2221  0.5713  0.9422
15303SOL    HW146719   2.280   7.024   6.574 -1.4394  0.2597  1.7629
15303SOL    HW246720   2.357   6.894   6.565 -0.8291  0.7111  0.1738
15304SOL     OW46721   3.520   0.830   3.082 -0.3300 -0.0487  0.5097
15304SOL    HW146722   3.548   0.830   3.173  0.8734 -1.9267  0.1776
15304SOL    HW246723   3.457   0.759   3.076 -0.0200 -0.2627 -0.2355
15305SOL     OW46724   5.016   4.624   2.703 -0.4611 -0.6614 -0.1417
15305SOL    HW146725   5.082   4.557   2.683 -1.3492 -1.9046  0.8837
15305SOL    HW246726   4.990   4.605   2.793 -0.4384  1.3734  0.3416
15306SOL     OW46727   5.541   6.640   4.153  0.1633 -0.0815  0.2728
15306SOL    HW146728   5.630   6.675   4.155  0.1998 -0.1495  2.4840
15306SOL    HW246729   5.484   6.717   4.155  0.2102 -0.0565  0.9056
15307SOL     OW46730   5.937   0.712   3.283  0.4918 -0.1952  0.3896
15307SOL    HW146731   5.911   0.626   3.316  0.6982 -0.5005 -0.2189
15307SOL    HW246732   5.912   0.710   3.191 -1.4803  1.2030  0.8410
15308SOL     OW46733   6.131   0.120   3.712  0.3110  0.3945  0.0201
15308SOL    HW146734   6.142   0.039   3.762 -1.0893  0.8200  1.0980
15308SOL    HW246735   6.220   0.146   3.688  0.9241 -0.5550  1.1337
15309SOL     OW46736   3.286   0.884   0.146  0.0305 -0.4554 -0.5844
15309SOL    HW146737   3.262   0.836   0.226  0.6784  2.2243  1.3665
15309SOL    HW246738   3.382   0.886   0.148  0.0258  1.8791  0.1021
15310SOL     OW46739   0.322   0.322   4.419  0.4088  0.0065  0.5857
15310SOL    HW146740   0.298   0.387   4.484  0.3397 -0.3082  0.8821
15310SOL    HW246741   0.240   0.279   4.396  0.6541 -1.0029  1.5244
15311SOL     OW46742   5.314   1.830   7.095  0.1393  0.1679 -0.1962
15311SOL    HW146743   5.289   1.825   7.188 -0.6598  0.6184 -0.3825
15311SOL    HW246744   5.252   1.891   7.056  0.5898  0.1312 -0.9993
15312SOL     OW46745   6.396   6.747   0.824 -0.5670 -0.3401 -0.6795
15312SOL    HW146746   6.304   6.768   0.811 -0.3576  0.8056 -0.3467
15312SOL    HW246747   6.395   6.660   0.865 -1.5085 -0.1719 -0.3296
15313SOL     OW46748   2.871   3.612   7.037  0.0624  0.1234  0.5983
15313SOL    HW146749   2.811   3.686   7.040 -0.5581 -0.3456  0.0348
15313SOL    HW246750   2.837   3.550   7.102  0.2542  0.0945  0.6725
15314SOL     OW46751   4.074   3.399   4.029 -0.5115  0.0728  0.6681
15314SOL    HW146752   4.060   3.491   4.008  0.3082 -0.2089 -1.3828
15314SOL    HW246753   4.169   3.391   4.039 -0.4501 -0.7766 -0.4778
15315SOL     OW46754   5.291   5.712   1.161  0.3418  0.0802  0.1559
15315SOL    HW146755   5.279   5.778   1.092  2.2325  1.1872  0.7992
15315SOL    HW246756   5.385   5.699   1.166  0.0372 -2.8505 -0.0228
15316SOL     OW46757   5.602   6.584   3.897  0.1345 -0.1397 -0.0196
15316SOL    HW146758   5.567   6.570   3.986 -0.4482  0.9842 -0.0570
15316SOL    HW246759   5.688   6.543   3.899 -0.2326 -0.9232  0.7907
15317SOL     OW46760   5.002   6.776   3.811  0.5873 -0.8375  0.8019
15317SOL    HW146761   4.907   6.783   3.798  0.9498  1.8753 -1.3308
15317SOL    HW246762   5.021   6.683   3.795 -1.4654 -1.0414 -0.9790
15318SOL     OW46763   1.347   5.737   4.837  0.1881 -0.5396  0.0448
15318SOL    HW146764   1.305   5.824   4.839  1.6828  0.2183 -0.0470
15318SOL    HW246765   1.275   5.677   4.819 -1.0496  0.5757  0.9643
15319SOL     OW46766   3.899   4.819   0.680  0.3108  0.1996  0.3113
15319SOL    HW146767   3.821   4.764   0.687  0.5201 -0.2011 -0.4179
15319SOL    HW246768   3.874   4.902   0.720 -0.3885 -0.0327  0.3642
15320SOL     OW46769   2.575   2.358   2.596  0.2141 -0.0862 -0.5033
15320SOL    HW146770   2.501   2.374   2.655  0.9228 -0.2596  0.4394
15320SOL    HW246771   2.634   2.302   2.646  0.1182 -1.5215 -1.9318
15321SOL     OW46772   7.257   4.115   3.723 -0.0834 -1.1417 -0.0450
15321SOL    HW146773   7.179   4.060   3.727 -0.1955 -1.0659 -1.0697
15321SOL    HW246774   7.245   4.178   3.795 -2.7434  1.1596 -2.2380
15322SOL     OW46775   4.697   1.560   0.444  0.0334  0.4158 -0.3764
15322SOL    HW146776   4.779   1.581   0.488 -0.1850 -0.0747  0.2852
15322SOL    HW246777   4.715   1.479   0.396  0.1898  0.7969 -0.9725
15323SOL     OW46778   2.606   0.749   4.924 -0.5842 -1.0966 -0.3696
15323SOL    HW146779   2.529   0.747   4.981 -0.5580 -1.9723 -0.3555
15323SOL    HW246780   2.677   0.716   4.978  0.3743  1.8953  0.3866
15324SOL     OW46781   4.140   2.771   6.911 -0.1958 -0.1360  0.0146
15324SOL    HW146782   4.120   2.741   7.000  1.1728  1.8005  1.0515
15324SOL    HW246783   4.231   2.745   6.898 -0.3715 -0.3582 -0.8328
15325SOL     OW46784   7.385   7.092   0.520 -0.0193 -0.1471 -0.0394
15325SOL    HW146785   7.359   7.166   0.466 -1.3156  0.1780  0.9740
15325SOL    HW246786   7.346   7.109   0.606  1.2061 -1.0949  0.7534
15326SOL     OW46787   6.511   6.183   2.538 -0.4000 -0.0628 -0.0697
15326SOL    HW146788   6.437   6.121   2.542 -1.2559  0.7527 -1.8002
15326SOL    HW246789   6.532   6.187   2.445 -0.1117  1.9355  0.0445
15327SOL     OW46790   2.975   5.505   5.005 -0.3739 -0.3357 -0.5128
15327SOL    HW146791   3.059   5.497   4.960  0.3570 -1.5519  0.9667
15327SOL    HW246792   2.954   5.598   5.000  0.3276 -0.2310 -2.1628
15328SOL     OW46793   1.816   3.440   7.185  0.1822  0.4042 -0.1002
15328SOL    HW146794   1.781   3.357   7.218  1.0568 -1.0035 -2.4445
15328SOL    HW246795   1.911   3.428   7.187  0.2924  0.8046 -1.6641
15329SOL     OW46796   5.634   0.221   3.986  0.4021  0.0800  0.0561
15329SOL    HW146797   5.606   0.263   3.905  0.5340  0.4904  0.2153
15329SOL    HW246798   5.638   0.293   4.049 -2.0523 -0.5707  1.0694
15330SOL     OW46799   0.525   6.232   4.345 -0.1075 -0.3739  0.2266
15330SOL    HW146800   0.517   6.171   4.418  2.6315  0.3159  1.2542
15330SOL    HW246801   0.589   6.296   4.375 -0.6020  1.2601 -1.9576
15331SOL     OW46802   0.357   4.225   0.977  0.2576  0.1582 -0.2587
15331SOL    HW146803   0.332   4.317   0.972 -0.2474 -0.0285 -1.4588
15331SOL    HW246804   0.352   4.194   0.887  0.3334 -1.0729  0.1459
15332SOL     OW46805   2.090   7.811   7.470  0.7865  0.3094 -0.5193
15332SOL    HW146806   1.997   7.810   7.495  0.7501 -0.9625 -0.6171
15332SOL    HW246807   2.104   7.725   7.431  1.8565  0.7387 -1.1040
15333SOL     OW46808   2.427   4.102   0.149 -0.1885 -0.1124 -0.3101
15333SOL    HW146809   2.401   4.067   0.063 -1.4662 -1.3903  0.5515
15333SOL    HW246810   2.438   4.024   0.204  0.9193  0.6691  0.6342
15334SOL     OW46811   2.889   5.270   1.657 -0.7148  0.0610 -0.2711
15334SOL    HW146812   2.870   5.213   1.582  0.6119 -1.4336  0.4655
15334SOL    HW246813   2.857   5.356   1.630 -2.2016 -0.8765 -1.6839
15335SOL     OW46814   1.507   5.542   4.097  0.7454 -0.5210  0.0413
15335SOL    HW146815   1.590   5.514   4.058  1.3847  0.2769  0.7900
15335SOL    HW246816   1.496   5.485   4.173  0.6726 -0.5283  0.0257
15336SOL     OW46817   3.771   4.543   1.423  0.3763  0.3438  0.1599
15336SOL    HW146818   3.772   4.549   1.519 -0.1795  1.1590  0.1302
15336SOL    HW246819   3.678   4.531   1.401  0.3327  1.4254 -0.3229
15337SOL     OW46820   4.867   7.076   1.017 -0.1931  0.6728 -0.6182
15337SOL    HW146821   4.829   7.025   1.089 -1.7808  1.0261 -1.1684
15337SOL    HW246822   4.932   7.132   1.059  0.9889 -1.1621  0.1168
15338SOL     OW46823   3.810   2.917   5.055 -0.0595  0.3049 -0.3860
15338SOL    HW146824   3.832   3.008   5.036 -0.1089  0.3406 -0.2715
15338SOL    HW246825   3.874   2.865   5.006 -0.7959  0.3819 -1.4688
15339SOL     OW46826   1.532   1.481   5.224  0.0414  0.0651  0.0342
15339SOL    HW146827   1.617   1.445   5.196  1.5803  1.6277  2.3793
15339SOL    HW246828   1.553   1.537   5.298 -2.7562  2.4935 -0.8171
15340SOL     OW46829   6.799   6.853   5.323 -0.2039 -0.5346 -0.0986
15340SOL    HW146830   6.804   6.925   5.385  0.1271 -1.1233  0.5697
15340SOL    HW246831   6.794   6.896   5.237  1.9028  0.3204  0.1296
15341SOL     OW46832   3.915   6.053   2.458  0.3068 -0.0785 -0.1598
15341SOL    HW146833   3.987   6.039   2.397 -0.2003 -0.2552 -0.7257
15341SOL    HW246834   3.889   6.144   2.446  0.5318  0.0313  0.1579
15342SOL     OW46835   5.849   7.294   2.561  0.3403 -0.6842 -0.3571
15342SOL    HW146836   5.907   7.265   2.631  0.6607  2.3714  0.7940
15342SOL    HW246837   5.779   7.342   2.605  2.0362  3.8691 -1.9538
15343SOL     OW46838   0.739   0.603   7.029  0.0672 -0.5402  0.3994
15343SOL    HW146839   0.675   0.571   7.092 -0.1450  1.7258  1.4042
15343SOL    HW246840   0.701   0.684   6.994  1.6174 -0.0482 -0.2304
15344SOL     OW46841   6.309   1.067   5.582  0.0205  0.4419 -0.1607
15344SOL    HW146842   6.297   1.137   5.517  2.7323  0.0957 -1.1661
15344SOL    HW246843   6.295   1.110   5.666  2.3786  2.5210 -0.6989
15345SOL     OW46844   0.452   3.336   3.081  0.0882  0.0653  0.1803
15345SOL    HW146845   0.520   3.383   3.127  1.5587 -1.3038 -0.4987
15345SOL    HW246846   0.432   3.261   3.137  1.9311 -1.6479 -1.2829
15346SOL     OW46847   2.506   6.571   1.435 -0.5577  0.5307  0.2108
15346SOL    HW146848   2.566   6.635   1.396  0.9162 -0.9293 -0.0311
15346SOL    HW246849   2.548   6.546   1.517 -1.4328  0.3153  0.6039
15347SOL     OW46850   4.993   0.081   0.189 -0.3437 -0.0368  0.0434
15347SOL    HW146851   5.023   0.113   0.105 -0.3732 -0.2757 -0.0590
15347SOL    HW246852   4.914   0.030   0.169 -0.6096  0.2775  0.2639
15348SOL     OW46853   6.734   3.606   1.447  0.3374  0.2155  0.5040
15348SOL    HW146854   6.781   3.542   1.394  0.7782  0.8309  0.1472
15348SOL    HW246855   6.798   3.675   1.465 -0.4958  1.2266 -0.2556
15349SOL     OW46856   3.090   7.165   2.153  0.0621 -0.0215  0.7977
15349SOL    HW146857   3.108   7.073   2.131 -2.1794 -0.5915  1.0861
15349SOL    HW246858   3.128   7.177   2.240  1.6141 -0.2272  0.1767
15350SOL     OW46859   7.390   6.617   3.423  0.3188 -0.3884 -0.1272
15350SOL    HW146860   7.302   6.580   3.420 -0.2565  0.7984 -3.6528
15350SOL    HW246861   7.383   6.697   3.371  2.7136  1.7947  2.5777
15351SOL     OW46862   6.630   3.137   2.056  0.4881 -0.0576 -0.0153
15351SOL    HW146863   6.570   3.068   2.027 -1.5713  1.4974  0.3243
15351SOL    HW246864   6.702   3.090   2.098 -1.1001 -2.0147  0.6938
15352SOL     OW46865   5.385   2.052   7.347 -0.0751 -0.3918 -0.3843
15352SOL    HW146866   5.367   2.030   7.438 -0.9709  0.8848 -0.2123
15352SOL    HW246867   5.298   2.059   7.307  0.1424  1.9001 -0.5946
15353SOL     OW46868   6.163   3.718   1.495  0.5220  0.1185 -0.3988
15353SOL    HW146869   6.252   3.718   1.461  0.3207 -1.5117 -1.0319
15353SOL    HW246870   6.109   3.690   1.421 -0.2181 -1.1830  0.5757
15354SOL     OW46871   5.681   4.201   4.606 -0.4477  0.5530 -0.2114
15354SOL    HW146872   5.690   4.147   4.527 -3.3595  0.4441 -0.6033
15354SOL    HW246873   5.716   4.146   4.676 -0.2194 -0.4563 -1.0877
15355SOL     OW46874   7.402   2.222   6.345 -0.1297 -0.3493 -0.3073
15355SOL    HW146875   7.375   2.170   6.421 -1.2894  0.1808 -0.3363
15355SOL    HW246876   7.466   2.167   6.300 -0.1757 -1.0939  0.5022
15356SOL     OW46877   4.489   1.211   1.109 -0.3904  0.5915 -1.0292
15356SOL    HW146878   4.396   1.196   1.121 -0.0990  0.1871  1.0632
15356SOL    HW246879   4.531   1.133   1.144  0.7541  0.6822 -2.1173
15357SOL     OW46880   4.707   0.408   2.157 -0.0678  0.1700 -0.5450
15357SOL    HW146881   4.712   0.372   2.069  0.0570 -0.8066 -0.1510
15357SOL    HW246882   4.629   0.367   2.195  0.6763 -0.5387  0.2753
15358SOL     OW46883   5.087   2.189   3.678 -0.4751 -0.0958 -0.3777
15358SOL    HW146884   5.047   2.138   3.748  0.9886  0.7240  1.1419
15358SOL    HW246885   5.115   2.270   3.721  1.8248 -0.1971 -1.5220
15359SOL     OW46886   2.885   4.156   4.731  0.3286  0.1546 -0.4083
15359SOL    HW146887   2.888   4.183   4.639  0.7601  0.5713 -0.2764
15359SOL    HW246888   2.796   4.178   4.759 -0.7002 -2.3809 -1.4260
15360SOL     OW46889   1.282   2.058   3.478 -0.1113 -0.1432 -0.6222
15360SOL    HW146890   1.307   2.099   3.561 -1.6417  0.2345 -0.3119
15360SOL    HW246891   1.289   1.964   3.496 -0.8727 -0.0766  0.0994
15361SOL     OW46892   0.549   0.878   1.660 -0.4133 -0.3587 -0.0134
15361SOL    HW146893   0.457   0.851   1.666 -0.9587  1.5852  1.1188
15361SOL    HW246894   0.567   0.884   1.566 -1.3791 -0.9106 -0.2438
15362SOL     OW46895   5.054   6.433   7.065  0.2269  0.4034 -0.6907
15362SOL    HW146896   4.982   6.432   7.002  0.0076 -0.7073 -0.4487
15362SOL    HW246897   5.056   6.344   7.100  0.8502  0.7925  0.3001
15363SOL     OW46898   3.770   2.602   2.074  0.0499 -0.2273  0.1885
15363SOL    HW146899   3.839   2.637   2.131 -2.3502 -0.7260  3.7309
15363SOL    HW246900   3.689   2.642   2.106 -1.5562 -0.5939 -2.9787
15364SOL     OW46901   4.815   2.022   5.221  0.0206 -0.1559  0.5933
15364SOL    HW146902   4.893   2.058   5.178 -1.0116  0.2891 -0.9939
15364SOL    HW246903   4.751   2.093   5.217 -0.5161 -0.5513  1.7991
15365SOL     OW46904   4.711   3.918   7.409 -0.4103 -0.4312 -0.4036
15365SOL    HW146905   4.739   3.968   7.332  2.3623  1.5526  1.6874
15365SOL    HW246906   4.769   3.842   7.411  0.0467 -0.0765  0.1007
15366SOL     OW46907   3.795   3.509   2.337 -0.0373 -0.1422 -0.6774
15366SOL    HW146908   3.809   3.553   2.254  0.3626  0.5777 -0.2446
15366SOL    HW246909   3.717   3.551   2.374 -0.8821 -1.2262 -1.1756
15367SOL     OW46910   2.652   5.060   5.301  0.4634  0.2293 -0.2053
15367SOL    HW146911   2.681   5.136   5.250 -2.0524  0.8158 -0.9171
15367SOL    HW246912   2.661   5.088   5.392 -0.8180  1.5982 -0.4586
15368SOL     OW46913   1.955   1.955   2.368  0.1492  0.1236  0.2135
15368SOL    HW146914   2.006   1.879   2.396  0.7130  0.6201  0.5577
15368SOL    HW246915   1.865   1.923   2.362  0.3602 -0.5330  0.4947
15369SOL     OW46916   2.053   7.340   6.329 -0.3527  0.4533  0.0433
15369SOL    HW146917   2.111   7.412   6.353 -0.8370  1.0735 -0.6054
15369SOL    HW246918   2.075   7.322   6.237 -1.2625  0.7844 -0.2511
15370SOL     OW46919   2.986   1.756   0.973 -0.0878 -0.5101  0.0802
15370SOL    HW146920   3.022   1.828   1.025 -0.4278  0.0551 -0.4582
15370SOL    HW246921   3.000   1.678   1.027 -0.3160  0.0474  0.9542
15371SOL     OW46922   2.701   3.246   6.164 -0.1341 -0.7911 -0.1722
15371SOL    HW146923   2.697   3.226   6.071 -1.8971 -1.3055 -0.0169
15371SOL    HW246924   2.610   3.259   6.190  0.2243 -1.6476  1.6860
15372SOL     OW46925   7.752   3.214   7.019 -0.6050  0.2171 -0.5600
15372SOL    HW146926   7.663   3.233   6.992 -0.8441  1.0346  0.7086
15372SOL    HW246927   7.798   3.297   7.013 -0.3286  0.1285  0.2147
15373SOL     OW46928   5.064   3.267   5.889  0.2633 -0.7194  0.0827
15373SOL    HW146929   5.128   3.319   5.937  0.5790 -0.8002 -0.2416
15373SOL    HW246930   5.084   3.176   5.912  1.3465 -0.8631 -1.2801
15374SOL     OW46931   5.328   6.571   3.826 -0.3465 -0.5881 -0.5122
15374SOL    HW146932   5.397   6.621   3.869 -1.6260  0.9252 -0.1263
15374SOL    HW246933   5.332   6.485   3.867  0.7328 -0.2485  0.1269
15375SOL     OW46934   6.910   3.704   4.534 -0.1900  0.1377  0.0239
15375SOL    HW146935   6.956   3.633   4.490  2.7223  0.5303  2.1264
15375SOL    HW246936   6.925   3.780   4.478  0.7499  0.0072  0.0810
15376SOL     OW46937   6.622   1.817   6.030  0.0173 -0.5300 -0.1480
15376SOL    HW146938   6.528   1.813   6.049  0.2977 -0.1587  1.4116
15376SOL    HW246939   6.626   1.838   5.936 -1.4698  0.5362 -0.0096
15377SOL     OW46940   3.096   1.928   0.139 -0.7600 -0.5252 -0.5695
15377SOL    HW146941   3.008   1.964   0.136 -0.6866 -0.4003 -1.2824
15377SOL    HW246942   3.084   1.835   0.156 -1.0047 -0.4265 -0.1808
15378SOL     OW46943   6.679   0.291   2.389 -0.0578  0.1434  0.0819
15378SOL    HW146944   6.641   0.378   2.375 -0.1834  0.2549  1.0764
15378SOL    HW246945   6.605   0.236   2.412  0.0667 -0.1635 -0.2417
15379SOL     OW46946   3.774   3.352   0.659  0.1267 -0.1571  0.4592
15379SOL    HW146947   3.739   3.368   0.747  1.0547 -0.4571  0.8989
15379SOL    HW246948   3.715   3.288   0.621  0.8540 -1.6221  1.6639
15380SOL     OW46949   0.691   5.900   0.595 -0.4142 -0.1439  0.6067
15380SOL    HW146950   0.625   5.950   0.642 -0.1759  1.5011 -0.7050
15380SOL    HW246951   0.646   5.820   0.567 -1.9197  0.9904 -0.3519
15381SOL     OW46952   3.139   1.311   6.612 -0.8118  0.0862 -0.1997
15381SOL    HW146953   3.060   1.257   6.618 -0.1977 -0.6224  2.6373
15381SOL    HW246954   3.208   1.249   6.589 -0.5681  0.1739  0.3039
15382SOL     OW46955   6.368   7.464   7.894 -0.2288 -0.0305  0.6356
15382SOL    HW146956   6.298   7.501   7.841  1.3526  0.1149 -1.4997
15382SOL    HW246957   6.333   7.380   7.926 -1.1272 -0.3206 -0.9969
15383SOL     OW46958   2.240   3.721   7.316 -0.3617 -0.1269  0.3557
15383SOL    HW146959   2.190   3.677   7.248  0.1574  1.5755 -1.1920
15383SOL    HW246960   2.296   3.653   7.352  1.0524 -0.6435 -2.5578
15384SOL     OW46961   1.293   6.224   1.603 -0.1563  0.5164  0.2060
15384SOL    HW146962   1.306   6.305   1.653 -2.8771  1.0769  0.1991
15384SOL    HW246963   1.222   6.179   1.649 -0.8644 -0.2883 -1.5690
15385SOL     OW46964   2.698   3.110   0.400  0.0327  0.3164 -0.4180
15385SOL    HW146965   2.763   3.070   0.458 -0.6633 -0.6030 -0.2576
15385SOL    HW246966   2.742   3.188   0.365  0.4623  0.9307  1.3733
15386SOL     OW46967   3.172   7.849   2.247  0.2654 -0.4525  0.6735
15386SOL    HW146968   3.092   7.806   2.278 -0.3081  0.1225  0.0597
15386SOL    HW246969   3.244   7.798   2.283 -0.3653 -0.2532  2.2794
15387SOL     OW46970   2.732   0.185   0.195 -0.6976 -0.6351 -0.4422
15387SOL    HW146971   2.825   0.165   0.179 -0.2232  0.8456  0.3494
15387SOL    HW246972   2.712   0.256   0.133 -0.9579 -0.1114  0.2366
15388SOL     OW46973   2.468   3.942   3.108 -0.2542  0.7257 -0.0423
15388SOL    HW146974   2.406   3.878   3.144  0.6038  1.0723  2.2078
15388SOL    HW246975   2.468   3.925   3.013  0.7508 -3.3735  0.5051
15389SOL     OW46976   7.952   3.841   7.374  0.0559 -0.2553 -0.1345
15389SOL    HW146977   7.906   3.873   7.452  1.1803 -0.3112  0.5789
15389SOL    HW246978   8.001   3.765   7.405 -2.6800 -2.8885 -1.8442
15390SOL     OW46979   6.759   7.776   2.839 -0.1923 -0.1585  0.1370
15390SOL    HW146980   6.710   7.837   2.894  0.5330 -0.4987  1.2093
15390SOL    HW246981   6.832   7.828   2.805 -0.9700  0.2064 -1.0126
15391SOL     OW46982   5.312   7.840   2.366 -0.5046  0.2404 -0.0461
15391SOL    HW146983   5.317   7.802   2.454 -3.0641 -0.7953 -0.2593
15391SOL    HW246984   5.225   7.880   2.362 -0.3693  0.4521 -2.0205
15392SOL     OW46985   0.614   7.550   3.203  0.7466 -0.2692  0.1844
15392SOL    HW146986   0.519   7.552   3.218  0.9402 -0.1060  1.5029
15392SOL    HW246987   0.635   7.638   3.172  0.4532 -0.3497 -0.2517
15393SOL     OW46988   2.507   1.256   3.397 -0.6487  0.2825  0.4519
15393SOL    HW146989   2.542   1.233   3.312  1.6088  1.7153  0.9145
15393SOL    HW246990   2.499   1.352   3.395 -1.8110  0.2346  1.4124
15394SOL     OW46991   5.142   1.544   4.215 -0.1394 -0.5693  0.1742
15394SOL    HW146992   5.061   1.555   4.264  0.1561 -1.0022  0.7654
15394SOL    HW246993   5.117   1.495   4.137 -0.8147  1.0543 -0.6835
15395SOL     OW46994   6.736   7.403   2.043  0.1307  0.1669 -0.1614
15395SOL    HW146995   6.685   7.418   2.123 -0.8237 -0.2457 -0.6726
15395SOL    HW246996   6.680   7.347   1.989  0.8538  0.2567 -1.0323
15396SOL     OW46997   2.438   0.525   3.933 -0.3833  0.2966  0.4805
15396SOL    HW146998   2.489   0.601   3.904  0.1176 -0.3490 -0.3885
15396SOL    HW246999   2.455   0.458   3.866  0.5844 -1.1741  2.1221
15397SOL     OW47000   3.534   0.357   7.765 -0.8448 -0.7717  0.3707
15397SOL    HW147001   3.604   0.312   7.717  2.4836  2.2702  1.9285
15397SOL    HW247002   3.540   0.320   7.854  0.1893  0.7977  0.9944
15398SOL     OW47003   7.775   2.415   3.100 -0.4434 -0.5306  0.0253
15398SOL    HW147004   7.861   2.423   3.058 -0.9498 -2.3474 -1.5025
15398SOL    HW247005   7.751   2.504   3.124  0.9724  0.2668 -1.3757
15399SOL     OW47006   6.062   5.055   4.001 -0.4793  0.2056 -0.0429
15399SOL    HW147007   6.094   5.034   4.089 -0.8114  0.3545  0.1140
15399SOL    HW247008   5.994   4.989   3.985 -0.8434  0.5558  0.0578
15400SOL     OW47009   4.741   2.015   6.342  0.0286 -0.2010 -0.1865
15400SOL    HW147010   4.686   2.026   6.265 -1.1572 -0.2742  0.6277
15400SOL    HW247011   4.717   1.930   6.378 -1.2052  0.8242  1.5970
15401SOL     OW47012   0.157   5.172   1.338 -0.0400 -0.0081  0.2282
15401SOL    HW147013   0.248   5.199   1.353 -0.6446  1.9058  0.7713
15401SOL    HW247014   0.158   5.132   1.251  1.1251  1.0594 -0.2804
15402SOL     OW47015   5.190   3.352   4.827  0.2249  0.2997  0.6224
15402SOL    HW147016   5.230   3.328   4.744 -0.7282  0.6450  0.0401
15402SOL    HW247017   5.130   3.423   4.804  0.4906  0.9067  1.7331
15403SOL     OW47018   5.592   7.083   3.116  0.2555  0.3336  0.4456
15403SOL    HW147019   5.628   7.067   3.028 -1.7090 -0.2185 -0.3242
15403SOL    HW247020   5.665   7.063   3.175  0.9681 -1.6519 -0.9567
15404SOL     OW47021   5.704   1.747   0.361  0.1758  0.2780  0.1752
15404SOL    HW147022   5.754   1.826   0.344 -0.6730  1.1675  1.5818
15404SOL    HW247023   5.656   1.730   0.280  2.2137 -0.2621 -0.9971
15405SOL     OW47024   2.457   7.351   6.950 -0.1476  0.1856 -0.2657
15405SOL    HW147025   2.446   7.281   6.885 -0.1766 -0.2328  0.1836
15405SOL    HW247026   2.492   7.424   6.900 -2.0124  0.5391 -1.1548
15406SOL     OW47027   6.226   4.681   2.084  0.2143 -0.1627 -0.3947
15406SOL    HW147028   6.159   4.670   2.151  1.1369  2.3402  1.0748
15406SOL    HW247029   6.284   4.606   2.096  0.1323  0.0111  1.3791
15407SOL     OW47030   7.852   7.662   4.839 -0.1244  0.2839  0.4251
15407SOL    HW147031   7.927   7.626   4.886 -0.8458 -1.5514  0.2736
15407SOL    HW247032   7.829   7.594   4.775 -1.2232  1.2963 -0.3058
15408SOL     OW47033   7.617   3.705   7.441  0.2027 -0.0360 -0.2379
15408SOL    HW147034   7.680   3.769   7.476 -0.7157  0.8581 -0.1703
15408SOL    HW247035   7.562   3.682   7.516 -0.1384 -0.0888 -0.5028
15409SOL     OW47036   2.896   4.920   1.925 -0.3273 -0.2087 -0.3643
15409SOL    HW147037   2.964   4.962   1.978 -0.8839  0.3477 -0.0740
15409SOL    HW247038   2.848   4.864   1.987  0.7677 -1.7660 -0.8595
15410SOL     OW47039   3.524   7.415   1.612 -0.2147  0.5071 -0.4844
15410SOL    HW147040   3.429   7.431   1.612 -0.0966  1.2537 -0.5218
15410SOL    HW247041   3.532   7.320   1.602 -1.0366 -0.1172  3.1682
15411SOL     OW47042   6.109   1.093   3.788  0.0521  0.4125 -0.4396
15411SOL    HW147043   6.143   1.016   3.833 -2.6604 -1.2770 -1.0945
15411SOL    HW247044   6.130   1.078   3.696 -0.2607  0.5772 -0.5380
15412SOL     OW47045   3.227   1.658   0.429 -0.0905  0.0876 -0.0825
15412SOL    HW147046   3.198   1.650   0.338 -0.9388 -0.1520  0.1991
15412SOL    HW247047   3.149   1.636   0.481 -0.0248  1.5786  0.7109
15413SOL     OW47048   0.028   2.097   4.661  0.3195 -0.4112 -0.4844
15413SOL    HW147049   0.090   2.038   4.704  0.3027 -1.6256 -2.0442
15413SOL    HW247050   0.071   2.182   4.664  0.8625 -0.7006  0.7901
15414SOL     OW47051   0.150   6.429   4.210 -0.2347 -0.2841 -0.5327
15414SOL    HW147052   0.244   6.420   4.194 -0.0237 -0.7210  0.8224
15414SOL    HW247053   0.121   6.341   4.235 -1.5428 -0.7528 -3.3775
15415SOL     OW47054   0.942   1.337   4.997 -0.3826  0.4089  0.1016
15415SOL    HW147055   1.015   1.390   4.968  1.3294 -1.8830 -0.0994
15415SOL    HW247056   0.926   1.276   4.925 -0.4118 -1.1229  1.3388
15416SOL     OW47057   7.311   1.287   6.231  0.1865 -0.1948 -0.5376
15416SOL    HW147058   7.256   1.218   6.267  1.3893 -1.8516 -1.7624
15416SOL    HW247059   7.355   1.325   6.307 -1.1576 -0.1294  0.2392
15417SOL     OW47060   4.316   2.639   5.553 -0.3248 -0.1369 -1.1572
15417SOL    HW147061   4.224   2.616   5.562 -0.4571  0.4612 -0.8730
15417SOL    HW247062   4.319   2.699   5.479 -0.9569  3.6273  1.5362
15418SOL     OW47063   0.518   6.278   3.995 -0.0549  0.3652  0.4060
15418SOL    HW147064   0.463   6.295   3.919  0.7627  0.2389 -0.2244
15418SOL    HW247065   0.485   6.337   4.062 -1.7137 -0.5104  0.4185
15419SOL     OW47066   6.005   2.138   0.632 -0.3305 -0.3698 -0.5397
15419SOL    HW147067   6.098   2.139   0.609  0.2368 -0.3368  1.5170
15419SOL    HW247068   6.001   2.087   0.713 -1.9081  0.7888  0.1626
15420SOL     OW47069   1.527   6.482   6.515 -0.2710 -0.0208  0.5178
15420SOL    HW147070   1.505   6.538   6.589  0.0656  2.1572 -0.9382
15420SOL    HW247071   1.468   6.407   6.523 -1.6666  1.1557  1.8420
15421SOL     OW47072   5.529   4.149   2.109  0.1719 -0.3333  0.6103
15421SOL    HW147073   5.582   4.188   2.039  0.3553  1.2299  1.5628
15421SOL    HW247074   5.466   4.094   2.063 -0.9349  2.0690 -0.9952
15422SOL     OW47075   0.783   3.831   7.884 -0.1908 -0.3264 -0.5106
15422SOL    HW147076   0.835   3.843   7.805  2.7083 -3.5679  0.6977
15422SOL    HW247077   0.710   3.775   7.857 -0.1462 -0.0648 -1.1796
15423SOL     OW47078   3.891   6.425   0.821  0.0706 -0.1225  0.1105
15423SOL    HW147079   3.911   6.519   0.818 -0.3045  0.0266  1.4964
15423SOL    HW247080   3.797   6.422   0.835  0.0506 -0.7214 -0.1508
15424SOL     OW47081   1.737   5.240   0.013  0.9192 -0.4132 -0.0489
15424SOL    HW147082   1.832   5.230   0.008  0.9696 -0.3698  0.7082
15424SOL    HW247083   1.707   5.162   0.059  0.4845 -0.8524 -1.0298
15425SOL     OW47084   3.519   6.635   4.601  0.1152 -0.1382  0.2858
15425SOL    HW147085   3.561   6.605   4.682 -1.2059  1.1335  1.5277
15425SOL    HW247086   3.440   6.581   4.594  0.4388 -0.5273 -0.3996
15426SOL     OW47087   6.548   2.428   2.314 -0.4252 -0.2381 -0.4766
15426SOL    HW147088   6.564   2.514   2.274 -1.0489 -0.7973 -1.9765
15426SOL    HW247089   6.606   2.426   2.390  0.5936  0.9753 -1.1880
15427SOL     OW47090   2.758   5.827   3.807 -0.5705  0.1059  0.3233
15427SOL    HW147091   2.841   5.805   3.850  0.3898 -0.2343 -1.6065
15427SOL    HW247092   2.783   5.854   3.719 -2.4173  1.3916  0.1383
15428SOL     OW47093   7.141   7.970   3.056 -0.2560 -1.0030  0.1471
15428SOL    HW147094   7.184   8.055   3.057 -1.0945 -0.5585  1.4437
15428SOL    HW247095   7.054   7.987   3.019  0.5738 -1.8735 -2.3712
15429SOL     OW47096   2.120   1.016   0.089 -0.1620 -0.3034  0.4909
15429SOL    HW147097   2.113   1.075   0.164 -2.5648 -0.6575  0.6202
15429SOL    HW247098   2.086   0.933   0.121  1.3672 -1.2752 -0.2586
15430SOL     OW47099   5.718   7.552   6.647 -0.4229 -0.0725  0.7659
15430SOL    HW147100   5.703   7.645   6.663  2.1874  0.4599  0.5567
15430SOL    HW247101   5.681   7.537   6.560 -1.9698  0.4212  1.2966
15431SOL     OW47102   2.620   2.772   1.038 -0.3832 -0.0457 -0.1308
15431SOL    HW147103   2.567   2.787   1.116  0.6416  0.6242  0.4585
15431SOL    HW247104   2.581   2.827   0.971  0.0884  1.1421  0.5448
15432SOL     OW47105   4.900   4.052   4.831 -0.0760  0.2598  0.4559
15432SOL    HW147106   4.971   4.082   4.888 -0.3222 -0.5741  1.2258
15432SOL    HW247107   4.930   4.073   4.743  0.6684  0.8507  0.8321
15433SOL     OW47108   1.440   7.375   7.947 -0.1047  0.1666  0.0366
15433SOL    HW147109   1.423   7.382   8.041 -1.1405 -0.2240 -0.1105
15433SOL    HW247110   1.471   7.286   7.934  2.4579  0.9268  0.3313
15434SOL     OW47111   6.253   2.459   6.077  0.2856 -0.3983 -0.4631
15434SOL    HW147112   6.178   2.511   6.105  0.5282  0.8926 -2.0581
15434SOL    HW247113   6.297   2.513   6.012  1.1978 -2.1652 -1.3903
15435SOL     OW47114   6.493   4.400   6.061  0.0216 -0.0323  0.0020
15435SOL    HW147115   6.441   4.359   5.991  0.7795 -0.6980 -0.1916
15435SOL    HW247116   6.431   4.409   6.134 -0.4552 -0.5146 -0.3254
15436SOL     OW47117   0.560   2.032   0.257 -0.6966  0.5246 -0.1987
15436SOL    HW147118   0.517   1.947   0.260 -1.6746  1.0333  0.6261
15436SOL    HW247119   0.654   2.011   0.257 -0.9088 -0.5307  1.0104
15437SOL     OW47120   5.514   0.033   6.993  0.3734  0.0519 -0.0823
15437SOL    HW147121   5.456   0.105   6.971  0.4381  0.1629  0.1047
15437SOL    HW247122   5.602   0.067   6.976  0.3356 -0.5916 -1.7489
15438SOL     OW47123   5.333   4.716   2.261 -0.3792 -0.0148 -0.0011
15438SOL    HW147124   5.340   4.669   2.178 -2.2558  0.4005 -0.4381
15438SOL    HW247125   5.355   4.806   2.239  1.2216 -0.2559  0.4335
15439SOL     OW47126   1.325   1.196   2.052 -0.5412 -0.1123 -0.1299
15439SOL    HW147127   1.319   1.196   2.147 -0.9714 -1.7846 -0.1097
15439SOL    HW247128   1.392   1.130   2.032 -0.8911 -0.2263 -0.9851
15440SOL     OW47129   3.658   3.508   7.397  0.1681  0.0140  0.9840
15440SOL    HW147130   3.574   3.482   7.433 -1.0593  0.9419 -0.9908
15440SOL    HW247131   3.662   3.464   7.312  1.4871  0.3139  0.8674
15441SOL     OW47132   5.100   5.208   6.914 -0.1818 -0.2801 -0.5728
15441SOL    HW147133   5.165   5.277   6.928 -2.3346  1.8540 -0.4164
15441SOL    HW247134   5.113   5.181   6.823  2.7997 -2.1167  0.2561
15442SOL     OW47135   4.147   1.379   1.158  0.7307  0.3768 -0.4812
15442SOL    HW147136   4.101   1.325   1.094  0.9378 -1.0252  0.4978
15442SOL    HW247137   4.092   1.457   1.167 -0.0943 -0.0909 -1.2435
15443SOL     OW47138   3.996   0.955   2.879  0.0588 -0.2241 -0.7855
15443SOL    HW147139   4.020   1.047   2.872  0.9270 -0.1214  2.3491
15443SOL    HW247140   3.907   0.956   2.916  0.1587 -0.6456 -0.5255
15444SOL     OW47141   4.882   1.049   6.670  0.2428 -0.1973 -0.3863
15444SOL    HW147142   4.818   1.073   6.603 -0.3525 -0.3461  0.1220
15444SOL    HW247143   4.849   0.968   6.708  1.0328 -0.5849 -0.5001
15445SOL     OW47144   5.555   6.712   5.577 -0.0804  0.3813  0.1623
15445SOL    HW147145   5.532   6.688   5.488  0.0811 -0.9552  0.4596
15445SOL    HW247146   5.472   6.713   5.625 -0.4337  2.8707 -0.3355
15446SOL     OW47147   1.783   4.245   3.618  0.1881 -0.4779  0.0227
15446SOL    HW147148   1.725   4.313   3.651 -1.4268 -1.9146  0.3277
15446SOL    HW247149   1.799   4.269   3.526 -2.1924 -0.7888 -0.5548
15447SOL     OW47150   5.586   6.774   1.335 -0.1369  0.0169  0.0853
15447SOL    HW147151   5.568   6.718   1.410  1.6816 -0.5784  0.1186
15447SOL    HW247152   5.616   6.857   1.373 -0.9897  0.3634  0.0185
15448SOL     OW47153   7.157   3.698   0.160 -0.4352 -0.0057  0.0529
15448SOL    HW147154   7.233   3.675   0.105 -0.5754  0.9672 -0.5773
15448SOL    HW247155   7.092   3.630   0.141 -1.4405  1.6068 -2.9620
15449SOL     OW47156   4.925   1.977   1.960  0.1866  0.4086 -0.1974
15449SOL    HW147157   4.866   2.027   1.903 -1.8622 -1.3515  0.2500
15449SOL    HW247158   4.976   1.922   1.900 -1.1001 -0.5430 -0.4678
15450SOL     OW47159   2.761   7.133   0.317 -0.3184  0.1429  0.2585
15450SOL    HW147160   2.847   7.090   0.322  0.7224  2.0565 -0.0945
15450SOL    HW247161   2.743   7.160   0.407 -0.1879  0.3568  0.2236
15451SOL     OW47162   7.492   1.585   7.631  0.2055  0.5914 -0.2222
15451SOL    HW147163   7.521   1.587   7.540 -1.1564 -1.1780 -0.7504
15451SOL    HW247164   7.435   1.661   7.639 -0.6033  0.1110 -1.2082
15452SOL     OW47165   0.435   4.525   4.372  0.8759  0.0625  0.1643
15452SOL    HW147166   0.435   4.483   4.286  0.7195  0.1431  0.1260
15452SOL    HW247167   0.385   4.466   4.428 -1.6033  1.4255 -0.4816
15453SOL     OW47168   5.835   7.774   5.563  0.0995 -0.1988  0.0547
15453SOL    HW147169   5.826   7.783   5.468 -2.2958 -0.9612  0.1502
15453SOL    HW247170   5.895   7.700   5.574  1.6827  0.8916 -0.7988
15454SOL     OW47171   7.367   3.133   2.930 -0.4170 -0.0509  0.4801
15454SOL    HW147172   7.363   3.164   3.021 -1.3688  1.0813  0.0736
15454SOL    HW247173   7.297   3.068   2.924  1.5157 -2.3356  1.3055
15455SOL     OW47174   1.908   3.797   0.313 -0.3097  0.1449 -0.4209
15455SOL    HW147175   1.815   3.806   0.335 -0.2299 -1.3571  0.6651
15455SOL    HW247176   1.951   3.776   0.395  1.2430  2.1326 -0.6553
15456SOL     OW47177   5.081   7.528   0.086 -0.1724  0.1289 -0.9549
15456SOL    HW147178   5.051   7.555   0.173 -0.6286 -1.7004 -0.4953
15456SOL    HW247179   5.114   7.608   0.046 -0.0375  1.0410  0.8649
15457SOL     OW47180   2.032   1.945   4.654 -0.3960 -0.3830  0.5037
15457SOL    HW147181   1.969   1.919   4.587 -1.2080 -1.0578  1.4968
15457SOL    HW247182   2.110   1.970   4.605 -1.1515 -0.3215 -0.7145
15458SOL     OW47183   3.787   5.722   6.796  0.1603  0.1925  0.5808
15458SOL    HW147184   3.788   5.780   6.721  0.0647 -0.5081  0.0235
15458SOL    HW247185   3.878   5.695   6.807 -0.1326 -1.5365 -0.7694
15459SOL     OW47186   6.138   0.505   7.912 -0.1162 -0.2383  0.6634
15459SOL    HW147187   6.115   0.574   7.851  1.2126 -1.0254 -0.8106
15459SOL    HW247188   6.055   0.465   7.937 -0.6265 -1.0303 -2.0445
15460SOL     OW47189   3.521   7.104   0.770 -0.4512  0.2947  0.0114
15460SOL    HW147190   3.450   7.041   0.760 -0.3034  0.1967 -0.4878
15460SOL    HW247191   3.504   7.171   0.703  0.4778 -0.2714 -0.8264
15461SOL     OW47192   2.010   5.534   0.042  0.1127 -0.6464  0.3171
15461SOL    HW147193   2.069   5.528  -0.033  0.5150 -0.1963  0.5889
15461SOL    HW247194   1.975   5.446   0.052 -1.4744 -0.3208 -1.6145
15462SOL     OW47195   3.263   3.567   0.903  0.8239  0.3499 -0.2233
15462SOL    HW147196   3.320   3.583   0.827 -2.6367 -0.5444 -3.3333
15462SOL    HW247197   3.266   3.473   0.915  0.3272  0.3510 -0.1065
15463SOL     OW47198   0.195   6.348   1.604  0.1291  0.7580  0.1775
15463SOL    HW147199   0.135   6.312   1.669  1.2022  0.4258  1.0021
15463SOL    HW247200   0.138   6.374   1.532 -1.1348  1.3885  1.3417
15464SOL     OW47201   5.574   7.184   6.424 -0.0820 -0.4338 -0.0583
15464SOL    HW147202   5.669   7.182   6.437  0.2241 -1.0462 -2.1097
15464SOL    HW247203   5.548   7.272   6.452  1.1464 -0.1234  0.1701
15465SOL     OW47204   3.694   4.011   7.618 -0.1118  0.2893 -0.5455
15465SOL    HW147205   3.691   4.015   7.522  1.1116  0.2615 -0.5967
15465SOL    HW247206   3.627   3.947   7.641 -0.3513  0.2223 -1.3939
15466SOL     OW47207   4.842   0.290   5.131 -0.5726  0.0720  0.5546
15466SOL    HW147208   4.796   0.374   5.130 -1.0502 -0.0888  3.0044
15466SOL    HW247209   4.807   0.245   5.208  0.1555 -2.1198 -0.3233
15467SOL     OW47210   0.515   2.878   7.603 -0.4531 -0.9566 -0.2759
15467SOL    HW147211   0.434   2.923   7.626 -0.4578 -1.2519  0.3025
15467SOL    HW247212   0.525   2.810   7.670  1.3196  0.3457  0.8464
15468SOL     OW47213   3.562   0.058   5.837  0.3945  0.1040  0.4172
15468SOL    HW147214   3.553  -0.036   5.855 -3.2764  0.3797  0.9248
15468SOL    HW247215   3.543   0.100   5.921 -1.0644  1.2783 -0.4582
15469SOL     OW47216   2.544   7.882   2.200  0.2997  0.2968  0.0793
15469SOL    HW147217   2.633   7.847   2.210  0.3775  0.4497 -0.0587
15469SOL    HW247218   2.500   7.819   2.144  0.2084  0.0307  0.4434
15470SOL     OW47219   2.472   6.558   7.018 -0.3456 -0.1885  0.2061
15470SOL    HW147220   2.407   6.550   7.088  0.5197 -0.7626  0.9703
15470SOL    HW247221   2.467   6.649   6.990  0.0611  0.3404  1.7905
15471SOL     OW47222   4.703   5.038   5.518  0.5126 -0.4046  0.0236
15471SOL    HW147223   4.737   5.043   5.429  0.6477 -1.7478 -0.0113
15471SOL    HW247224   4.664   5.124   5.533 -0.6106 -0.5385 -1.7886
15472SOL     OW47225   0.813   2.089   3.581  0.1498  0.0540 -0.2683
15472SOL    HW147226   0.886   2.071   3.522  0.9096 -1.5710  1.0720
15472SOL    HW247227   0.740   2.040   3.545  0.9459 -1.9888  0.7546
15473SOL     OW47228   2.823   0.844   3.779 -0.1748  0.5150  0.1935
15473SOL    HW147229   2.868   0.891   3.709  0.4746  0.8757  0.8367
15473SOL    HW247230   2.742   0.894   3.794 -0.0332  0.7758  0.0989
15474SOL     OW47231   1.542   3.750   7.811  0.1176  0.2334  0.2859
15474SOL    HW147232   1.513   3.754   7.902 -1.5257 -1.6456 -0.0973
15474SOL    HW247233   1.635   3.730   7.816 -0.1619 -0.8315  1.5659
15475SOL     OW47234   7.118   0.422   3.661 -0.0469  0.4162 -0.0096
15475SOL    HW147235   7.185   0.488   3.680  0.5265  0.3119 -1.5377
15475SOL    HW247236   7.154   0.341   3.696 -0.7241  0.8566  1.8169
15476SOL     OW47237   5.560   2.240   4.104  0.7102  0.0537 -0.1033
15476SOL    HW147238   5.604   2.168   4.150 -0.8688 -0.4883  0.6462
15476SOL    HW247239   5.468   2.230   4.127  0.3087  1.7230 -0.8254
15477SOL     OW47240   6.560   6.592   5.312 -0.3448 -0.2653 -0.3156
15477SOL    HW147241   6.593   6.522   5.256 -0.2900 -0.3316 -0.2003
15477SOL    HW247242   6.639   6.633   5.348 -0.3922 -0.8080  0.4344
15478SOL     OW47243   1.509   0.844   1.474 -0.0003  0.2095 -0.0363
15478SOL    HW147244   1.563   0.767   1.454  0.4112  0.5792 -0.3781
15478SOL    HW247245   1.431   0.808   1.517 -0.4309 -0.5444 -1.3618
15479SOL     OW47246   5.823   1.023   3.694  0.7335  0.6906  0.2242
15479SOL    HW147247   5.878   1.061   3.625 -2.0306 -0.2570 -2.7740
15479SOL    HW247248   5.854   0.932   3.701  3.0037  1.5176  2.6284
15480SOL     OW47249   0.332   2.793   5.433  0.3876  0.0725 -0.0024
15480SOL    HW147250   0.406   2.831   5.479  0.6713 -0.2688 -0.1720
15480SOL    HW247251   0.366   2.771   5.346 -0.0258  0.3073 -0.2307
15481SOL     OW47252   5.388   4.289   3.180 -0.0858 -0.0258 -0.5309
15481SOL    HW147253   5.398   4.223   3.111 -0.5388 -0.5421 -0.1128
15481SOL    HW247254   5.387   4.373   3.134 -0.9302 -0.3933 -1.2055
15482SOL     OW47255   4.844   6.005   1.440  0.4366  0.1802 -0.1901
15482SOL    HW147256   4.813   5.991   1.351  0.7255  2.6944 -0.7360
15482SOL    HW247257   4.816   6.094   1.462 -0.2995 -0.6071  2.5348
15483SOL     OW47258   4.493   3.372   1.543  0.6129  0.0819  0.0540
15483SOL    HW147259   4.456   3.387   1.456  0.2083 -2.3461 -0.2619
15483SOL    HW247260   4.571   3.319   1.526 -0.2590 -1.6565  1.2171
15484SOL     OW47261   1.235   0.427   3.507  0.2699  0.3625  0.3500
15484SOL    HW147262   1.268   0.427   3.418  0.2259  2.9363  0.2411
15484SOL    HW247263   1.300   0.377   3.557  0.3580 -1.0010 -1.0561
15485SOL     OW47264   4.511   0.489   1.829 -0.8295  0.6431 -0.6157
15485SOL    HW147265   4.503   0.513   1.921 -0.5843 -2.2782  0.2841
15485SOL    HW247266   4.438   0.429   1.813 -0.6014  0.7462 -2.1879
15486SOL     OW47267   7.564   2.726   1.532  0.2971  0.5509 -0.0633
15486SOL    HW147268   7.599   2.708   1.619  0.6408 -1.3650 -0.5450
15486SOL    HW247269   7.513   2.648   1.510  3.4635 -0.9815 -3.1279
15487SOL     OW47270   6.594   1.687   2.812  0.6047 -0.4763  0.4227
15487SOL    HW147271   6.605   1.630   2.735 -1.0903  0.1061 -0.3094
15487SOL    HW247272   6.666   1.750   2.806 -0.9521  1.2576 -2.3151
15488SOL     OW47273   0.081   2.751   4.272 -0.4640  0.1302 -0.7643
15488SOL    HW147274   0.021   2.682   4.243  0.9256 -1.0033 -1.0859
15488SOL    HW247275   0.109   2.795   4.192 -1.2334  1.0076 -0.5709
15489SOL     OW47276   4.368   1.041   0.432 -0.1026 -0.4164 -0.9891
15489SOL    HW147277   4.296   1.032   0.494  1.8892  1.3896  1.8416
15489SOL    HW247278   4.420   0.962   0.443 -0.1903 -0.4740 -0.9871
15490SOL     OW47279   1.493   2.547   0.265 -0.4217  0.6217 -0.4778
15490SOL    HW147280   1.529   2.459   0.251 -0.7105  0.3699  0.3491
15490SOL    HW247281   1.536   2.578   0.345 -2.3420  0.1501  0.7795
15491SOL     OW47282   3.921   0.495   7.569  0.1832 -0.1328 -0.1800
15491SOL    HW147283   3.878   0.469   7.650  0.7836 -0.2949  0.0932
15491SOL    HW247284   3.859   0.555   7.527 -0.4422 -0.6051  0.0453
15492SOL     OW47285   2.982   7.680   4.951 -0.0555  0.2129 -0.5317
15492SOL    HW147286   3.018   7.592   4.953 -0.8784 -0.1225  0.1943
15492SOL    HW247287   3.058   7.737   4.959  0.3278 -0.4739  0.9878
15493SOL     OW47288   4.237   7.333   2.755  0.1223  0.0021  0.5816
15493SOL    HW147289   4.208   7.420   2.730 -0.3194 -0.2165  0.3105
15493SOL    HW247290   4.187   7.313   2.835 -1.7145 -0.9969 -0.7336
15494SOL     OW47291   2.320   2.501   7.724 -0.4895  0.2542 -0.1088
15494SOL    HW147292   2.247   2.485   7.665  0.1073  0.9372 -1.0443
15494SOL    HW247293   2.367   2.575   7.686 -0.0358  0.6457  1.1667
15495SOL     OW47294   6.978   3.989   0.734  0.0500 -0.0210  0.1294
15495SOL    HW147295   6.951   3.934   0.660 -0.5073 -0.1065  0.3916
15495SOL    HW247296   7.017   3.928   0.796 -2.4396 -0.5148  1.3527
15496SOL     OW47297   7.757   7.198   5.485  0.7072  0.1005 -0.2777
15496SOL    HW147298   7.796   7.277   5.522 -0.5387  0.1570  1.0522
15496SOL    HW247299   7.696   7.168   5.554  0.3193 -1.3639 -1.2198
15497SOL     OW47300   0.453   6.517   5.087  0.3030 -0.0597  0.0541
15497SOL    HW147301   0.467   6.447   5.024 -0.3430  0.7527 -1.0305
15497SOL    HW247302   0.463   6.475   5.172 -2.2385 -2.0086 -0.4730
15498SOL     OW47303   0.922   4.989   3.837  0.3142  0.5630  0.2599
15498SOL    HW147304   0.856   4.938   3.884  0.2873  0.7516  0.4264
15498SOL    HW247305   1.005   4.963   3.879  0.3036  0.6354  0.3247
15499SOL     OW47306   6.712   7.210   7.223 -0.2439  0.0776  0.0354
15499SOL    HW147307   6.679   7.121   7.240  0.1038  0.0501  0.6192
15499SOL    HW247308   6.732   7.245   7.310 -3.0362  1.8086  0.0867
15500SOL     OW47309   1.691   4.052   0.199  0.0109 -0.1286  0.1281
15500SOL    HW147310   1.772   4.101   0.213  0.4171 -0.6464 -0.3801
15500SOL    HW247311   1.661   4.029   0.287  0.7476 -0.4611  0.2987
15501SOL     OW47312   1.301   3.522   6.188 -0.1708 -0.6592 -0.2799
15501SOL    HW147313   1.299   3.579   6.265  0.4152  0.7970 -1.3037
15501SOL    HW247314   1.227   3.462   6.201 -1.0300  0.5566  0.6635
15502SOL     OW47315   7.372   1.024   3.698  0.0960 -0.1377  0.4041
15502SOL    HW147316   7.413   0.973   3.768  0.8777 -0.7881 -0.4922
15502SOL    HW247317   7.386   0.971   3.620 -3.7580 -1.1432  0.2005
15503SOL     OW47318   1.227   6.736   3.674 -0.2365  0.1921 -0.3273
15503SOL    HW147319   1.138   6.705   3.693 -0.0881  0.0598  0.1720
15503SOL    HW247320   1.215   6.818   3.626 -0.6268  0.4074  0.1335
15504SOL     OW47321   0.276   7.156   3.055 -0.5392  0.2974 -0.1491
15504SOL    HW147322   0.287   7.180   3.146  3.7089 -1.9143  0.1522
15504SOL    HW247323   0.300   7.234   3.005  1.6325  0.2289  0.7100
15505SOL     OW47324   2.607   3.403   5.390 -0.1447  0.4879 -0.0559
15505SOL    HW147325   2.688   3.438   5.428 -0.5428  1.9369 -0.4904
15505SOL    HW247326   2.543   3.473   5.399 -1.2122 -0.4190 -0.2612
15506SOL     OW47327   2.685   7.505   0.654 -0.4156  0.8643  0.1509
15506SOL    HW147328   2.675   7.429   0.712 -1.2867  1.2549  0.5169
15506SOL    HW247329   2.659   7.473   0.568 -1.7068  0.9808  0.4768
15507SOL     OW47330   0.462   3.099   2.411 -0.6034  0.2221 -0.0107
15507SOL    HW147331   0.528   3.156   2.370  0.7156 -1.0303  0.2878
15507SOL    HW247332   0.452   3.026   2.351  2.1800 -2.2234  2.1548
15508SOL     OW47333   4.089   2.874   2.848 -0.4365  0.0936  0.1557
15508SOL    HW147334   4.081   2.848   2.940 -0.4143  0.6677  0.3208
15508SOL    HW247335   4.180   2.901   2.838 -0.0439 -1.3204 -0.3999
15509SOL     OW47336   3.135   0.581   6.093 -0.0770  0.1145 -0.0616
15509SOL    HW147337   3.160   0.491   6.111 -0.4267 -0.2190 -1.1385
15509SOL    HW247338   3.215   0.623   6.061 -0.1469 -0.1052 -0.5384
15510SOL     OW47339   5.023   0.608   0.751 -0.4770 -0.7737  0.5443
15510SOL    HW147340   5.017   0.612   0.846  1.3639 -1.6972  0.7376
15510SOL    HW247341   5.100   0.661   0.729  0.0883 -1.8749 -0.2560
15511SOL     OW47342   3.611   4.606   5.827 -0.4067  0.0868  0.0834
15511SOL    HW147343   3.658   4.647   5.755  1.2809 -1.9516 -0.0716
15511SOL    HW247344   3.572   4.679   5.876 -1.2966  1.5320 -2.6172
15512SOL     OW47345   5.760   7.658   4.313 -0.5873  0.1349  0.4319
15512SOL    HW147346   5.728   7.570   4.335  0.2245 -0.2137  0.2186
15512SOL    HW247347   5.700   7.689   4.245 -0.8602 -0.2554  0.4904
15513SOL     OW47348   1.246   0.180   4.147 -0.4739  0.3872  0.5209
15513SOL    HW147349   1.165   0.188   4.197 -1.5184 -2.6358 -0.4448
15513SOL    HW247350   1.228   0.224   4.064 -0.6670  0.7796  0.7666
15514SOL     OW47351   6.455   2.937   6.763 -0.0146  0.2605 -0.6218
15514SOL    HW147352   6.476   2.906   6.675  0.1039 -1.8305  0.0965
15514SOL    HW247353   6.388   2.876   6.795  2.5662 -1.4375  2.0835
15515SOL     OW47354   4.057   7.716   1.970 -0.0878 -0.1924 -0.0898
15515SOL    HW147355   4.130   7.733   2.030 -0.8141  0.2872  0.6792
15515SOL    HW247356   4.088   7.746   1.885  0.4871  0.3307  0.2984
15516SOL     OW47357   4.505   3.545   1.821 -0.2863 -0.3348  0.0124
15516SOL    HW147358   4.490   3.458   1.858 -1.7075 -0.3220 -0.4638
15516SOL    HW247359   4.493   3.533   1.727  0.5457  0.1867 -0.1782
15517SOL     OW47360   0.841   6.008   3.227  0.0328  0.1956  0.2282
15517SOL    HW147361   0.881   5.940   3.281  0.7398  0.5421  0.1527
15517SOL    HW247362   0.757   5.970   3.199 -0.5610  0.1761  1.9103
15518SOL     OW47363   3.048   3.224   0.886  0.5964 -0.4829 -0.0684
15518SOL    HW147364   3.066   3.259   0.799 -0.0874  0.9940  0.3548
15518SOL    HW247365   3.135   3.213   0.926  0.9120 -1.2004 -0.9254
15519SOL     OW47366   3.725   1.643   5.786 -0.0102  0.6058  0.2680
15519SOL    HW147367   3.757   1.702   5.718  0.3771  1.0110  0.7915
15519SOL    HW247368   3.647   1.686   5.820  0.6137  1.1531  1.0728
15520SOL     OW47369   1.439   0.229   6.184  0.0241  0.2010  0.4018
15520SOL    HW147370   1.471   0.317   6.165 -0.9337  0.0256 -2.6456
15520SOL    HW247371   1.396   0.202   6.103 -1.9275 -2.1236  2.0851
15521SOL     OW47372   5.253   0.161   2.068 -0.2626  0.3933 -0.5304
15521SOL    HW147373   5.321   0.223   2.041 -0.2696 -0.0816 -1.7240
15521SOL    HW247374   5.300   0.087   2.106 -0.2367  0.9673  0.5789
15522SOL     OW47375   3.255   5.516   1.664 -0.3648 -0.2464  0.8398
15522SOL    HW147376   3.309   5.572   1.608  2.3138 -3.2274  0.1684
15522SOL    HW247377   3.266   5.552   1.752  3.0606 -0.8162  0.7683
15523SOL     OW47378   7.306   2.709   0.581  0.2860  0.4096 -0.8068
15523SOL    HW147379   7.258   2.752   0.510 -0.1717 -0.2567 -0.9022
15523SOL    HW247380   7.264   2.624   0.591 -0.9513  1.2322  1.6039
15524SOL     OW47381   2.501   6.329   3.525  0.1865  0.2627  0.2839
15524SOL    HW147382   2.442   6.345   3.452  0.6580  0.1218 -0.1320
15524SOL    HW247383   2.509   6.233   3.528  0.1290  0.2654  0.5546
15525SOL     OW47384   1.126   1.843   2.195 -0.4766  0.0626 -0.2063
15525SOL    HW147385   1.202   1.895   2.167 -0.1035 -0.0461  0.5720
15525SOL    HW247386   1.147   1.817   2.285 -1.6174  0.3550  0.1533
15526SOL     OW47387   2.165   7.575   6.430 -0.0399  0.0993 -0.4338
15526SOL    HW147388   2.180   7.632   6.355 -0.1983  0.0667 -0.4911
15526SOL    HW247389   2.247   7.577   6.478 -0.2008  0.7514 -0.1808
15527SOL     OW47390   3.419   0.501   1.234  0.4100  0.2810  0.1404
15527SOL    HW147391   3.382   0.439   1.297  0.6601 -0.9249 -0.8530
15527SOL    HW247392   3.414   0.456   1.150  0.7613  1.5586 -0.5951
15528SOL     OW47393   4.239   2.886   4.396 -0.3511 -0.2376 -0.1849
15528SOL    HW147394   4.291   2.874   4.475 -0.1968 -0.5121 -0.3272
15528SOL    HW247395   4.188   2.805   4.388 -1.6648  0.4645  0.5787
15529SOL     OW47396   3.025   4.664   6.327 -0.4198 -0.0767 -0.1186
15529SOL    HW147397   3.021   4.615   6.409 -1.6370 -0.2602 -0.2664
15529SOL    HW247398   3.114   4.649   6.295 -0.3686 -1.1733  0.4582
15530SOL     OW47399   2.684   7.347   4.786 -0.2875  0.5849  0.0347
15530SOL    HW147400   2.775   7.333   4.759 -0.1181 -1.9904  1.6022
15530SOL    HW247401   2.690   7.370   4.879 -1.2195 -0.0800  0.2760
15531SOL     OW47402   2.600   5.602   0.064  0.3599  0.5702  0.1836
15531SOL    HW147403   2.678   5.583   0.011  0.2316  2.2111 -0.6566
15531SOL    HW247404   2.533   5.627  -0.001 -0.6984 -0.2263  0.9339
15532SOL     OW47405   6.818   5.815   1.625 -0.0940  0.3360 -0.1471
15532SOL    HW147406   6.903   5.778   1.647  0.2971  1.2626 -0.0499
15532SOL    HW247407   6.784   5.759   1.556 -0.9329 -2.1213  2.0865
15533SOL     OW47408   5.534   2.448   3.432 -0.3178 -0.8971 -0.5865
15533SOL    HW147409   5.578   2.466   3.349 -1.5842  0.1823 -1.0561
15533SOL    HW247410   5.442   2.435   3.408 -0.3157 -3.1613  0.3635
15534SOL     OW47411   6.499   4.002   4.090 -0.1931 -0.2127 -0.0273
15534SOL    HW147412   6.571   3.957   4.046  0.7471 -0.1556  1.3773
15534SOL    HW247413   6.484   4.081   4.038  0.5559 -0.3886 -0.5190
15535SOL     OW47414   5.490   6.473   2.740  0.2807 -0.3152  0.7792
15535SOL    HW147415   5.452   6.484   2.653  1.4545  0.5256  0.3536
15535SOL    HW247416   5.572   6.425   2.724  0.4703 -0.2095  1.4276
15536SOL     OW47417   7.786   1.374   5.884  0.3417 -0.0570  0.7800
15536SOL    HW147418   7.850   1.369   5.813  0.0024 -0.3073  0.4897
15536SOL    HW247419   7.754   1.285   5.894 -1.1549  0.3406 -0.1892
15537SOL     OW47420   7.647   5.442   6.237 -0.8435 -0.6279 -0.6605
15537SOL    HW147421   7.554   5.426   6.219 -1.2523  0.6333  0.1478
15537SOL    HW247422   7.651   5.535   6.259  0.0738 -1.2547  2.3384
15538SOL     OW47423   2.746   2.376   7.589  0.1672  0.4773 -0.2234
15538SOL    HW147424   2.836   2.373   7.622 -0.3278  0.2907  1.1826
15538SOL    HW247425   2.725   2.285   7.567  0.8621  0.7377 -2.2035
15539SOL     OW47426   3.196   1.055   4.640  0.4117  0.0175  0.0253
15539SOL    HW147427   3.243   1.126   4.596 -0.6336  2.5050  2.5871
15539SOL    HW247428   3.110   1.052   4.597  1.3267 -1.6269 -1.8386
15540SOL     OW47429   5.060   3.813   3.581  0.0591  0.3409  0.2528
15540SOL    HW147430   5.083   3.755   3.509 -3.1825  0.0471 -0.7004
15540SOL    HW247431   5.053   3.899   3.540 -0.7483  0.3667  0.4455
15541SOL     OW47432   6.568   2.795   1.244  0.5256  0.0234 -0.3214
15541SOL    HW147433   6.633   2.865   1.247 -0.5623  1.0677 -0.0423
15541SOL    HW247434   6.518   2.812   1.164  1.7272 -1.8567 -1.5308
15542SOL     OW47435   7.071   3.870   3.197 -0.5017 -0.4468 -0.1341
15542SOL    HW147436   7.040   3.845   3.110 -0.9227  1.0536 -0.4452
15542SOL    HW247437   7.004   3.838   3.257 -1.4851  0.6541 -0.6019
15543SOL     OW47438   2.937   5.271   5.546  0.7893 -0.2390 -0.3376
15543SOL    HW147439   2.956   5.307   5.459  1.0133 -0.9481 -0.5849
15543SOL    HW247440   2.872   5.203   5.531  0.4229  0.0073  0.1212
15544SOL     OW47441   3.654   5.613   4.069 -0.2081 -0.9293 -0.2572
15544SOL    HW147442   3.709   5.645   3.997 -0.6968 -2.0490 -1.1587
15544SOL    HW247443   3.591   5.684   4.085  1.4773  0.4178  0.8515
15545SOL     OW47444   7.674   0.168   5.128  0.0497  0.5031 -0.3055
15545SOL    HW147445   7.658   0.083   5.168  0.3141  0.9062  0.6965
15545SOL    HW247446   7.746   0.154   5.067  1.6193  0.4320  1.4669
15546SOL     OW47447   4.090   7.021   4.369 -0.2823 -0.3152 -0.5495
15546SOL    HW147448   4.106   7.083   4.440  0.3201 -1.6082  0.4710
15546SOL    HW247449   4.140   7.056   4.295  0.7161 -0.0257  0.2530
15547SOL     OW47450   1.752   7.553   3.193 -0.8213  0.6056 -0.6039
15547SOL    HW147451   1.786   7.562   3.104 -0.5047 -1.1305 -0.6989
15547SOL    HW247452   1.708   7.467   3.193  0.4800 -0.1195  1.3068
15548SOL     OW47453   7.610   7.578   7.395 -0.8150 -0.5829 -0.1036
15548SOL    HW147454   7.692   7.539   7.428 -1.2536 -2.3398 -0.9784
15548SOL    HW247455   7.541   7.528   7.439 -1.5008  1.5537  1.4119
15549SOL     OW47456   0.805   3.266   3.343 -0.4724 -0.3997 -0.5351
15549SOL    HW147457   0.831   3.311   3.423  0.3365 -2.8947  0.6774
15549SOL    HW247458   0.884   3.221   3.313 -0.7162  0.5596 -2.8684
15550SOL     OW47459   6.259   2.111   0.526 -0.2961  0.2283  0.8470
15550SOL    HW147460   6.320   2.097   0.453 -1.0019 -2.8035  0.6693
15550SOL    HW247461   6.314   2.128   0.602  0.9894 -3.2318  0.8661
15551SOL     OW47462   5.703   4.247   1.876  0.3365  0.5312 -0.1072
15551SOL    HW147463   5.771   4.314   1.876  0.9387 -0.0789 -0.3687
15551SOL    HW247464   5.639   4.277   1.811  1.0906  0.3597 -0.9407
15552SOL     OW47465   0.203   6.580   4.990 -0.4405 -0.1681 -0.3678
15552SOL    HW147466   0.171   6.669   4.984  0.8103  0.6761  3.1863
15552SOL    HW247467   0.298   6.589   5.003 -0.6415 -1.6856  3.2634
15553SOL     OW47468   2.210   3.830   0.717  0.3908 -0.0375  0.1364
15553SOL    HW147469   2.241   3.919   0.736  3.4071 -0.9851  0.2181
15553SOL    HW247470   2.251   3.808   0.633 -1.5528 -0.8688 -0.6555
15554SOL     OW47471   4.201   6.376   6.750 -0.1546 -0.4076 -0.3272
15554SOL    HW147472   4.268   6.369   6.682  1.9529 -0.6748  1.6776
15554SOL    HW247473   4.118   6.366   6.703  1.2583 -2.8398 -2.5556
15555SOL     OW47474   5.136   7.567   5.560 -0.2690 -0.3703  0.4537
15555SOL    HW147475   5.143   7.633   5.491 -0.1473 -1.8499 -1.0080
15555SOL    HW247476   5.100   7.615   5.635  0.7904  1.5728 -0.2040
15556SOL     OW47477   6.889   6.164   0.879  0.0495  0.0531 -0.3437
15556SOL    HW147478   6.863   6.255   0.891  0.9857  0.2093  0.6999
15556SOL    HW247479   6.972   6.156   0.927 -0.6161 -1.6490  0.6232
15557SOL     OW47480   3.293   5.163   4.457  0.4409 -0.3139 -0.1554
15557SOL    HW147481   3.333   5.210   4.384 -1.5937  1.2036 -0.3833
15557SOL    HW247482   3.237   5.097   4.416 -1.5532  1.2479 -0.0974
15558SOL     OW47483   7.467   4.658   3.550 -0.1975  0.0861  0.1540
15558SOL    HW147484   7.482   4.659   3.644 -0.9662 -0.3284  0.2837
15558SOL    HW247485   7.397   4.594   3.537 -1.1823  1.2615 -0.5328
15559SOL     OW47486   3.178   2.090   3.876  0.2894  0.0346  0.3265
15559SOL    HW147487   3.273   2.088   3.867  0.1649 -3.0405 -1.9774
15559SOL    HW247488   3.159   2.026   3.945 -0.1207  0.0506  0.2333
15560SOL     OW47489   0.631   0.719   7.472 -0.2547  1.1012  0.2523
15560SOL    HW147490   0.687   0.738   7.398  0.0038 -0.9585 -0.1606
15560SOL    HW247491   0.691   0.692   7.541 -0.6431 -0.9831 -0.1475
15561SOL     OW47492   1.939   7.862   1.482 -0.6332  0.4198 -0.0177
15561SOL    HW147493   2.007   7.845   1.546  0.2100  1.3245 -0.6445
15561SOL    HW247494   1.975   7.829   1.399 -1.7756 -0.9069 -0.0267
15562SOL     OW47495   2.650   5.837   2.405 -0.2788 -0.1624 -0.3755
15562SOL    HW147496   2.644   5.788   2.323 -2.7421 -1.5660  0.5165
15562SOL    HW247497   2.692   5.777   2.466  1.5262  0.8692 -0.5493
15563SOL     OW47498   1.630   4.341   6.923  0.0506  0.0746  0.1233
15563SOL    HW147499   1.550   4.370   6.880  1.1415  0.7909 -1.5252
15563SOL    HW247500   1.667   4.421   6.962  1.9458  0.6366 -2.5629
15564SOL     OW47501   2.889   3.003   1.711  0.2329  0.2816 -0.4112
15564SOL    HW147502   2.944   2.930   1.739 -0.9037  0.3248  2.1869
15564SOL    HW247503   2.818   2.962   1.661 -0.3774 -0.4552  0.9910
15565SOL     OW47504   3.890   2.013   2.020 -0.1805  0.1055 -0.7177
15565SOL    HW147505   3.956   2.081   2.036  2.1462 -2.1144 -0.0294
15565SOL    HW247506   3.835   2.048   1.950  1.3767  2.3411 -0.9383
15566SOL     OW47507   6.809   1.274   5.732  1.2074  0.8372  0.1487
15566SOL    HW147508   6.813   1.212   5.805  0.7838  0.0912 -0.4522
15566SOL    HW247509   6.894   1.317   5.734  0.7142  1.8677  1.9581
15567SOL     OW47510   6.159   3.914   4.998 -0.0639  0.4566  0.0737
15567SOL    HW147511   6.187   3.995   4.956  0.5764  0.3628  0.3111
15567SOL    HW247512   6.211   3.845   4.956  0.7083  0.3820  1.1170
15568SOL     OW47513   2.435   1.689   7.252 -0.4547 -0.3799 -0.2885
15568SOL    HW147514   2.378   1.613   7.262 -0.0783 -0.5760  0.3764
15568SOL    HW247515   2.523   1.653   7.239 -0.3717 -0.0656 -0.6535
15569SOL     OW47516   7.836   6.670   3.835 -0.4254 -0.0940 -0.4183
15569SOL    HW147517   7.787   6.743   3.872 -2.7291 -1.4948 -0.5355
15569SOL    HW247518   7.851   6.611   3.909  0.3069 -0.1135 -0.5717
15570SOL     OW47519   3.486   3.518   6.285  0.1049 -0.2029  0.1663
15570SOL    HW147520   3.571   3.480   6.307 -0.5975 -1.4257  0.9477
15570SOL    HW247521   3.428   3.487   6.355 -1.0299  0.4038 -0.4793
15571SOL     OW47522   2.406   0.632   2.357 -0.1273 -0.0474  0.0311
15571SOL    HW147523   2.439   0.673   2.437 -1.7549  0.7195  0.3533
15571SOL    HW247524   2.388   0.541   2.381 -2.6716  0.6766  1.2563
15572SOL     OW47525   7.305   4.409   5.997  0.5450  0.3404  0.3124
15572SOL    HW147526   7.254   4.431   5.919 -1.0785 -0.0641  1.1948
15572SOL    HW247527   7.290   4.316   6.011  1.4862  0.2304  0.6425
15573SOL     OW47528   7.378   1.905   4.003  0.3237  0.4246  0.0588
15573SOL    HW147529   7.370   1.972   3.936  3.2407 -1.0471 -1.9502
15573SOL    HW247530   7.454   1.853   3.977  0.7369 -1.1416  3.7545
15574SOL     OW47531   3.376   5.842   1.215  0.0915 -0.4359 -0.3711
15574SOL    HW147532   3.369   5.906   1.143  0.4246  0.4612  0.3715
15574SOL    HW247533   3.470   5.829   1.225  0.0153 -1.2796 -0.7077
15575SOL     OW47534   6.164   3.634   5.114 -0.8017 -0.3660 -0.6181
15575SOL    HW147535   6.190   3.717   5.074  0.9751  0.8475  2.5893
15575SOL    HW247536   6.234   3.573   5.091  0.1062  0.2644  0.3585
15576SOL     OW47537   3.465   3.012   2.155  0.0033 -0.3919  0.7469
15576SOL    HW147538   3.479   3.095   2.199 -0.1696 -0.2768  0.5849
15576SOL    HW247539   3.552   2.986   2.123 -0.2415  0.7102 -0.9560
15577SOL     OW47540   1.491   6.953   4.109 -0.3574  0.1692  0.1160
15577SOL    HW147541   1.472   6.860   4.124  0.9930 -0.1667 -0.1433
15577SOL    HW247542   1.451   6.998   4.184 -1.2024 -0.5913  0.1342
15578SOL     OW47543   1.716   3.653   6.987  0.5104 -0.1993  0.1963
15578SOL    HW147544   1.733   3.580   7.046  0.4793 -1.8880 -1.7644
15578SOL    HW247545   1.625   3.642   6.960 -0.1458  1.8003  1.4297
15579SOL     OW47546   4.399   3.544   3.902 -0.0730  0.4431  0.6653
15579SOL    HW147547   4.359   3.544   3.815 -1.2776  3.2878  1.0985
15579SOL    HW247548   4.476   3.601   3.893  0.2171  0.1615  1.3034
15580SOL     OW47549   7.417   4.550   5.673  0.0030 -0.2927 -0.1822
15580SOL    HW147550   7.388   4.529   5.584 -1.4732 -0.0167  0.2093
15580SOL    HW247551   7.508   4.521   5.676  0.2377  0.1542 -1.9417
15581SOL     OW47552   1.879   2.222   0.092  0.1368  0.3524  0.2503
15581SOL    HW147553   1.864   2.132   0.123 -0.2252  0.9232  1.8475
15581SOL    HW247554   1.806   2.240   0.034 -0.9219  0.2681  1.4996
15582SOL     OW47555   4.038   6.461   5.311 -0.0503 -0.1922  0.1286
15582SOL    HW147556   3.955   6.415   5.323  1.2615 -2.2739  1.9154
15582SOL    HW247557   4.053   6.459   5.216 -1.4484 -0.8542 -0.0946
15583SOL     OW47558   0.888   6.490   7.539  0.2866  0.8665  0.2626
15583SOL    HW147559   0.823   6.455   7.600 -0.0854 -0.3964 -0.8083
15583SOL    HW247560   0.845   6.490   7.454  1.8785 -0.7113 -0.6165
15584SOL     OW47561   1.259   0.873   3.843  0.3451 -1.0087 -0.3568
15584SOL    HW147562   1.296   0.926   3.772 -0.8476 -1.3357 -1.2727
15584SOL    HW247563   1.249   0.934   3.916  0.7039 -0.4218 -0.7896
15585SOL     OW47564   4.016   5.954   2.739 -0.2139 -0.4641 -0.0476
15585SOL    HW147565   4.053   5.907   2.665  2.4565  0.5878  0.4688
15585SOL    HW247566   3.970   6.029   2.700  3.5519  1.7244 -0.7999
15586SOL     OW47567   6.651   7.195   3.568  0.2580 -0.5264 -0.1422
15586SOL    HW147568   6.743   7.219   3.580  0.4743 -0.2498 -2.0994
15586SOL    HW247569   6.602   7.271   3.600  0.6278 -1.0621  1.8487
15587SOL     OW47570   7.147   0.994   4.864 -0.1228  0.6117 -0.0358
15587SOL    HW147571   7.118   1.000   4.955  1.1410  1.9265  0.3179
15587SOL    HW247572   7.142   1.084   4.831  1.9096  0.6213 -0.4433
15588SOL     OW47573   7.739   3.979   1.118 -0.1633 -0.1193 -0.0858
15588SOL    HW147574   7.710   3.908   1.061  0.2039 -0.2214 -0.1466
15588SOL    HW247575   7.811   3.942   1.169 -0.5577 -0.0581  0.5235
15589SOL     OW47576   3.519   5.014   0.833  0.3961  0.0656  0.0982
15589SOL    HW147577   3.490   4.987   0.920  1.8757 -1.0429  0.2760
15589SOL    HW247578   3.614   5.006   0.835  0.4822  0.2865 -1.5455
15590SOL     OW47579   5.815   6.161   4.780  0.1771  0.1633  0.1635
15590SOL    HW147580   5.833   6.161   4.686  0.1103 -0.6480  0.1434
15590SOL    HW247581   5.734   6.111   4.789 -0.6831  1.5504  0.5123
15591SOL     OW47582   3.782   4.261   0.812  0.0149  0.2647  0.2386
15591SOL    HW147583   3.753   4.192   0.752  1.5276 -0.3575  0.1606
15591SOL    HW247584   3.704   4.286   0.861 -0.6491 -1.2340 -0.0166
15592SOL     OW47585   0.394   7.563   1.216  0.4329  0.0449  0.3959
15592SOL    HW147586   0.334   7.631   1.245  1.2380  0.1718  1.8986
15592SOL    HW247587   0.480   7.606   1.215  0.7072 -0.5064 -0.2845
15593SOL     OW47588   1.138   4.966   7.409 -0.4934 -0.3517  0.1760
15593SOL    HW147589   1.196   4.982   7.334 -1.8201  0.3496 -0.7485
15593SOL    HW247590   1.127   5.051   7.450 -2.9887  0.1563 -1.3102
15594SOL     OW47591   1.868   4.551   3.963 -0.2544 -0.0882 -0.2261
15594SOL    HW147592   1.883   4.489   4.035 -0.2600 -1.9320 -1.7457
15594SOL    HW247593   1.948   4.547   3.911  1.1908  3.7733  1.3590
15595SOL     OW47594   2.116   6.380   2.298 -0.4607  0.1979  0.3675
15595SOL    HW147595   2.078   6.307   2.249  1.3730 -1.0509  0.6887
15595SOL    HW247596   2.135   6.343   2.384 -0.2023  1.3026  0.7998
15596SOL     OW47597   0.268   4.466   3.311 -0.1283  1.0045  0.0158
15596SOL    HW147598   0.295   4.392   3.256 -0.8118  0.9818 -0.3081
15596SOL    HW247599   0.346   4.520   3.318  0.6417 -0.1998  1.0216
15597SOL     OW47600   7.187   3.580   5.637  0.2123  0.2929  0.1113
15597SOL    HW147601   7.136   3.644   5.587 -2.5205 -2.5651 -1.0909
15597SOL    HW247602   7.141   3.573   5.720 -1.5059 -2.2492 -0.9495
15598SOL     OW47603   5.779   4.577   4.161  0.1752  0.2633 -0.4083
15598SOL    HW147604   5.871   4.555   4.167 -0.0209 -0.5469 -0.2494
15598SOL    HW247605   5.755   4.609   4.248 -0.0775 -1.1234  0.0650
15599SOL     OW47606   7.086   2.013   1.255  0.1031  0.4052  0.2816
15599SOL    HW147607   7.141   1.937   1.276 -1.2231 -0.5782  0.3921
15599SOL    HW247608   7.026   2.020   1.329 -1.8163 -0.4251 -1.0766
15600SOL     OW47609   7.170   5.953   0.304 -0.6187 -0.1009 -0.1917
15600SOL    HW147610   7.185   6.035   0.352 -0.2777 -0.0465 -0.3880
15600SOL    HW247611   7.242   5.949   0.240  0.3433 -1.3791  0.9121
15601SOL     OW47612   6.838   6.411   6.274 -0.4063  0.0986  0.0859
15601SOL    HW147613   6.904   6.344   6.254 -0.5218  0.1993 -0.6609
15601SOL    HW247614   6.779   6.409   6.199  0.6877  2.3960 -0.9196
15602SOL     OW47615   5.361   0.763   5.911 -0.3542  0.2370  0.1338
15602SOL    HW147616   5.365   0.810   5.827  0.1351  0.1165  0.0877
15602SOL    HW247617   5.286   0.704   5.901  0.8350 -1.1615 -0.9660
15603SOL     OW47618   5.407   5.327   3.958 -0.4220 -0.3129 -0.1622
15603SOL    HW147619   5.481   5.281   4.000 -1.2605 -1.0696  0.5187
15603SOL    HW247620   5.396   5.283   3.874 -2.5751 -2.9090  1.3362
15604SOL     OW47621   4.539   4.569   2.750  0.6958  0.0266 -0.2153
15604SOL    HW147622   4.549   4.553   2.656  0.4203 -1.2090 -0.0441
15604SOL    HW247623   4.554   4.484   2.791 -1.4641  0.0184  0.6943
15605SOL     OW47624   3.396   3.992   1.935  0.1628  0.5530 -0.7248
15605SOL    HW147625   3.305   4.002   1.907 -0.7479 -0.8923  1.3962
15605SOL    HW247626   3.434   3.931   1.871 -0.5190  0.7525 -1.3321
15606SOL     OW47627   1.991   6.645   1.381 -0.4819 -0.0867 -0.3166
15606SOL    HW147628   2.049   6.570   1.367  1.2548  1.6173 -3.6580
15606SOL    HW247629   1.916   6.628   1.324 -0.0061  0.6875 -1.2129
15607SOL     OW47630   0.358   4.049   2.431 -0.4363 -0.1763 -0.0279
15607SOL    HW147631   0.286   4.100   2.469 -0.7609  1.3191 -2.4304
15607SOL    HW247632   0.318   3.998   2.362  0.7600  0.8162 -1.5329
15608SOL     OW47633   1.062   7.461   3.459 -0.4935 -0.1893  0.1586
15608SOL    HW147634   1.128   7.522   3.492 -1.2582  0.3154  0.7764
15608SOL    HW247635   1.045   7.491   3.370 -0.0772 -0.1643  0.0852
15609SOL     OW47636   5.785   0.432   3.293  0.4414  0.4649  0.4880
15609SOL    HW147637   5.824   0.443   3.380  4.8812 -1.1777 -0.9948
15609SOL    HW247638   5.786   0.337   3.277  2.3918  0.8113 -2.2486
15610SOL     OW47639   4.312   3.845   1.151  0.2183 -0.2916  0.3920
15610SOL    HW147640   4.279   3.844   1.240  0.9142 -0.2762  0.6580
15610SOL    HW247641   4.250   3.792   1.101 -1.4977  1.6002  0.3831
15611SOL     OW47642   0.541   3.375   3.505 -0.1081  0.1500 -0.2273
15611SOL    HW147643   0.575   3.405   3.421  0.3448 -1.1130 -0.5224
15611SOL    HW247644   0.497   3.451   3.542  1.3231  1.2841 -0.7553
15612SOL     OW47645   4.656   1.749   4.154 -0.5183 -0.0825  0.1177
15612SOL    HW147646   4.590   1.680   4.154  0.3828 -0.9695  0.7650
15612SOL    HW247647   4.705   1.737   4.073 -0.5277 -0.0476  0.1069
15613SOL     OW47648   5.813   0.990   5.938  0.1601  0.1855 -0.2898
15613SOL    HW147649   5.786   1.075   5.973 -0.1573  0.1529 -0.4507
15613SOL    HW247650   5.884   1.010   5.878 -1.1566  0.5698 -1.7940
15614SOL     OW47651   2.890   5.891   3.116  1.1436  0.3733  0.2918
15614SOL    HW147652   2.794   5.895   3.120  1.0857 -0.6798  0.2692
15614SOL    HW247653   2.912   5.925   3.030  0.8610  1.5197  0.6540
15615SOL     OW47654   1.750   3.905   4.686  0.2678  0.0678 -0.3651
15615SOL    HW147655   1.804   3.844   4.635 -0.9355  0.2709 -1.9773
15615SOL    HW247656   1.723   3.972   4.623 -2.9177 -0.7194 -0.0488
15616SOL     OW47657   0.780   2.309   3.167 -0.3156  0.4689  0.2234
15616SOL    HW147658   0.874   2.296   3.172  0.1316  2.9652 -0.3731
15616SOL    HW247659   0.744   2.222   3.150  1.7584 -0.6915  1.4467
15617SOL     OW47660   3.966   3.896   3.041 -0.4929  0.6213  0.1268
15617SOL    HW147661   3.885   3.935   3.008 -0.7413 -0.5578 -0.7255
15617SOL    HW247662   3.941   3.807   3.069  0.0059  1.0710  2.2192
15618SOL     OW47663   2.398   2.903   6.561  0.1315  0.1079 -0.3769
15618SOL    HW147664   2.313   2.862   6.546 -0.8378  2.0054 -0.3972
15618SOL    HW247665   2.398   2.980   6.504  2.4611 -0.5644 -1.4100
15619SOL     OW47666   6.290   3.100   6.318  0.1896  0.2040  0.0107
15619SOL    HW147667   6.339   3.146   6.386 -0.5368  0.2346  0.5237
15619SOL    HW247668   6.198   3.113   6.341 -0.0700  0.0585 -0.8775
15620SOL     OW47669   1.752   1.879   6.261 -0.1115  0.1460 -0.1899
15620SOL    HW147670   1.759   1.793   6.302  1.4473 -0.0300 -0.7656
15620SOL    HW247671   1.748   1.860   6.167  2.7935  0.7135 -0.5315
15621SOL     OW47672   4.688   0.247   3.428 -0.4560 -0.0918  0.6103
15621SOL    HW147673   4.711   0.198   3.350 -0.2073 -0.1226  0.7026
15621SOL    HW247674   4.704   0.339   3.405  0.8242 -0.1904  1.0317
15622SOL     OW47675   1.729   1.448   7.469  0.5182  0.1147  0.1332
15622SOL    HW147676   1.639   1.463   7.500  0.1691 -0.0965 -0.7672
15622SOL    HW247677   1.762   1.536   7.450 -0.3142  0.0660 -1.7576
15623SOL     OW47678   4.989   6.431   4.830 -0.0410  0.4774  0.0109
15623SOL    HW147679   5.080   6.454   4.849 -0.1711  2.7360 -1.6800
15623SOL    HW247680   4.994   6.373   4.755  0.0336 -0.4525  0.7198
15624SOL     OW47681   0.641   7.423   7.959 -0.2015 -0.0736  0.4448
15624SOL    HW147682   0.575   7.486   7.986 -0.8683 -0.6074  0.0768
15624SOL    HW247683   0.615   7.395   7.871  1.9585  1.6744 -0.8569
15625SOL     OW47684   0.581   5.150   0.470 -0.3373  0.5819  0.1411
15625SOL    HW147685   0.503   5.112   0.511  0.2792  1.2178  2.0316
15625SOL    HW247686   0.594   5.233   0.516  0.6736  1.1443 -1.0932
15626SOL     OW47687   7.469   1.580   2.744  0.0358 -0.1467  0.3266
15626SOL    HW147688   7.564   1.595   2.738  0.5733 -2.5954  1.2178
15626SOL    HW247689   7.430   1.666   2.731  2.3346  0.8092 -0.9111
15627SOL     OW47690   0.098   7.511   0.556 -0.3459 -0.2705 -0.8712
15627SOL    HW147691   0.118   7.454   0.482 -0.5397 -0.2738 -0.9211
15627SOL    HW247692   0.064   7.591   0.517 -1.4225 -0.6560 -0.7579
15628SOL     OW47693   5.251   3.971   6.631 -0.4418 -0.1145 -0.0409
15628SOL    HW147694   5.340   3.967   6.666 -0.2807  2.0031 -0.0729
15628SOL    HW247695   5.197   3.997   6.706 -0.6181  1.0681 -0.5535
15629SOL     OW47696   2.255   3.985   1.158 -0.2632 -0.2085 -0.1989
15629SOL    HW147697   2.284   3.939   1.079  0.6634  1.3875 -0.8525
15629SOL    HW247698   2.173   3.944   1.181  0.4021 -2.0121 -0.8642
15630SOL     OW47699   7.630   7.247   0.656 -0.1663 -0.5059  0.2157
15630SOL    HW147700   7.559   7.198   0.698 -0.5681 -0.2496 -0.1535
15630SOL    HW247701   7.585   7.305   0.594  0.3726 -0.3890 -0.0679
15631SOL     OW47702   0.412   1.887   2.189  0.4504 -0.2854  0.4554
15631SOL    HW147703   0.482   1.866   2.251  1.0235  0.7371  0.1808
15631SOL    HW247704   0.454   1.887   2.103  0.4322  1.5216  0.3936
15632SOL     OW47705   1.203   2.863   2.735  0.0336 -0.2913 -0.2432
15632SOL    HW147706   1.188   2.956   2.756 -1.2912 -0.4985 -0.1462
15632SOL    HW247707   1.173   2.816   2.813 -0.6307 -0.8569 -0.8205
15633SOL     OW47708   4.440   0.423   0.487 -0.0325 -0.2594 -0.2396
15633SOL    HW147709   4.410   0.369   0.413  0.0563 -2.0511  0.9816
15633SOL    HW247710   4.514   0.375   0.524 -0.6430  0.1038  1.5692
15634SOL     OW47711   6.312   7.281   6.014  0.2408  0.1876 -0.1529
15634SOL    HW147712   6.315   7.274   6.110  3.6355 -1.4313 -0.2438
15634SOL    HW247713   6.317   7.191   5.984  0.4212  0.7491 -1.8821
15635SOL     OW47714   7.612   4.527   4.922 -0.2235 -0.7298 -0.1317
15635SOL    HW147715   7.582   4.606   4.877  2.0620 -0.0080 -0.5363
15635SOL    HW247716   7.642   4.558   5.008 -0.7253 -1.4111  0.2952
15636SOL     OW47717   3.568   1.518   0.320  0.1037  0.7729  0.3846
15636SOL    HW147718   3.612   1.528   0.404  0.4691  2.6293  0.0167
15636SOL    HW247719   3.491   1.575   0.327 -1.4654 -1.2523  0.4661
15637SOL     OW47720   2.104   3.238   6.839 -0.1286 -0.8500 -0.5188
15637SOL    HW147721   2.162   3.297   6.886 -0.7108 -0.7951  0.1384
15637SOL    HW247722   2.128   3.151   6.870  0.7833 -0.9867 -1.5458
15638SOL     OW47723   4.643   7.746   7.874 -0.1785  0.2096  0.9653
15638SOL    HW147724   4.689   7.693   7.809  0.7129  1.3587  0.6269
15638SOL    HW247725   4.712   7.797   7.917 -1.0314  1.4024  0.9812
15639SOL     OW47726   0.856   7.828   7.404 -0.1228  0.4654 -0.2994
15639SOL    HW147727   0.860   7.752   7.463  0.3720  0.2611 -0.5858
15639SOL    HW247728   0.880   7.792   7.318 -0.1512  0.8938 -0.4856
15640SOL     OW47729   6.021   5.707   0.266 -0.6428 -0.3333 -0.2136
15640SOL    HW147730   6.056   5.619   0.281 -1.5354 -0.4635  1.2602
15640SOL    HW247731   6.038   5.723   0.173 -1.0837 -2.3575 -0.7117
15641SOL     OW47732   2.683   7.027   1.092  0.0866 -0.2660  0.6809
15641SOL    HW147733   2.665   6.933   1.093  0.4888 -0.3583 -0.1265
15641SOL    HW247734   2.622   7.062   1.027 -0.7388  0.1844  1.6703
15642SOL     OW47735   4.995   7.549   0.647  0.0607  0.0449 -1.0042
15642SOL    HW147736   5.010   7.642   0.666  0.4047 -0.0684 -0.6964
15642SOL    HW247737   4.914   7.528   0.694  1.2366 -0.3880  0.9602
15643SOL     OW47738   7.533   5.124   6.082  0.2588  0.4771  0.0567
15643SOL    HW147739   7.506   5.173   6.160 -0.3630 -2.1076  1.5520
15643SOL    HW247740   7.457   5.129   6.024 -0.5009 -0.1993  0.9672
15644SOL     OW47741   1.162   4.118   3.092 -0.1270 -0.2887 -0.1894
15644SOL    HW147742   1.110   4.099   3.171  0.3857 -0.1269  0.1909
15644SOL    HW247743   1.124   4.199   3.058 -0.4315 -0.4250 -0.1852
15645SOL     OW47744   3.367   7.685   3.756  0.1049 -0.2530 -0.2728
15645SOL    HW147745   3.342   7.742   3.683 -1.0321 -0.4525 -0.0659
15645SOL    HW247746   3.358   7.596   3.721  0.0592 -0.3389 -0.0429
15646SOL     OW47747   2.974   7.170   1.694  0.4715 -0.0032 -0.0208
15646SOL    HW147748   3.035   7.127   1.634  0.7334  1.8654 -1.2208
15646SOL    HW247749   2.986   7.264   1.676  0.3114  0.6395  2.7738
15647SOL     OW47750   2.382   5.800   7.446  0.3361  0.0517  0.5186
15647SOL    HW147751   2.301   5.776   7.490  0.2192 -0.9270 -0.1707
15647SOL    HW247752   2.439   5.724   7.458 -0.3269 -1.0798 -2.4604
15648SOL     OW47753   4.256   7.302   2.004 -0.4466  0.4127  0.2453
15648SOL    HW147754   4.329   7.294   2.065 -1.1581  1.2505  1.2328
15648SOL    HW247755   4.185   7.340   2.055 -1.7225 -0.7136 -0.5970
15649SOL     OW47756   4.208   7.612   7.740 -0.2976 -0.5865  0.4115
15649SOL    HW147757   4.163   7.611   7.655  1.8062 -0.9973 -0.7462
15649SOL    HW247758   4.270   7.539   7.736  1.1201  0.4992  1.5855
15650SOL     OW47759   0.737   6.801   5.557 -0.2248 -0.9967  0.2480
15650SOL    HW147760   0.706   6.781   5.469 -0.5149 -0.1751  0.1576
15650SOL    HW247761   0.826   6.765   5.560  0.9938  1.5923 -1.4285
15651SOL     OW47762   0.493   4.204   6.714  0.2057  0.1139 -0.1273
15651SOL    HW147763   0.528   4.212   6.626  0.4323  0.5482 -0.0002
15651SOL    HW247764   0.399   4.221   6.704  0.1462 -0.3252 -0.3554
15652SOL     OW47765   4.318   4.681   5.731  0.8621 -0.8695 -0.3221
15652SOL    HW147766   4.373   4.752   5.698  1.9386 -1.7156 -0.3962
15652SOL    HW247767   4.376   4.631   5.788 -0.6593 -0.0403  2.1178
15653SOL     OW47768   6.127   5.816   4.995  0.1880 -0.1355 -0.3687
15653SOL    HW147769   6.043   5.838   4.954 -0.2532  0.1676  0.6375
15653SOL    HW247770   6.106   5.809   5.089  1.3766  0.4140 -0.0419
15654SOL     OW47771   4.991   7.312   2.589 -0.4076  0.3050  0.1098
15654SOL    HW147772   4.942   7.394   2.586 -1.5766 -0.3038  1.3858
15654SOL    HW247773   5.068   7.332   2.641  1.4890  1.5972 -2.9167
15655SOL     OW47774   1.873   1.821   4.032  0.3149  0.0795 -0.5243
15655SOL    HW147775   1.967   1.825   4.016  0.6762  2.0252  1.5697
15655SOL    HW247776   1.835   1.867   3.957  1.0296 -0.5445 -1.2879
15656SOL     OW47777   0.077   6.984   1.435 -0.2611  0.4486  0.0207
15656SOL    HW147778   0.105   7.015   1.521 -0.5192  0.8710 -0.0471
15656SOL    HW247779   0.015   6.914   1.454  0.0441  0.2153  0.1743
15657SOL     OW47780   4.134   0.123   4.362 -0.3325  0.3868  0.1241
15657SOL    HW147781   4.058   0.166   4.323  0.2522  0.5963 -0.8269
15657SOL    HW247782   4.106   0.032   4.372 -0.8224  0.5288  0.0827
15658SOL     OW47783   0.646   2.327   1.581  0.5875  0.1969 -0.2304
15658SOL    HW147784   0.564   2.342   1.629 -1.7903 -0.3246 -3.7511
15658SOL    HW247785   0.672   2.414   1.551 -0.6187  0.0292 -1.8761
15659SOL     OW47786   3.850   6.913   4.428  0.4390  0.1234 -0.1316
15659SOL    HW147787   3.844   6.940   4.519 -0.7668 -1.2627  0.2488
15659SOL    HW247788   3.924   6.961   4.392 -0.4344  2.4007  0.9568
15660SOL     OW47789   6.514   5.962   3.078  0.5149  0.1840  0.0230
15660SOL    HW147790   6.462   5.887   3.106 -1.2652  1.3271 -0.0493
15660SOL    HW247791   6.465   6.038   3.109  1.4744  1.3585 -1.2021
15661SOL     OW47792   1.230   6.719   4.613 -0.3193  0.1577 -0.0898
15661SOL    HW147793   1.211   6.626   4.600 -1.3663  0.1118  1.4987
15661SOL    HW247794   1.314   6.733   4.570 -0.7349 -1.2255 -1.4543
15662SOL     OW47795   1.650   0.375   2.763 -0.3565 -0.0886  0.0241
15662SOL    HW147796   1.632   0.453   2.711 -1.2452 -0.3486 -0.0723
15662SOL    HW247797   1.603   0.388   2.845 -2.8623 -1.6973 -1.0418
15663SOL     OW47798   4.830   7.220   4.258 -0.1008 -0.3377  0.0761
15663SOL    HW147799   4.863   7.307   4.281  1.8363 -0.9214 -0.2802
15663SOL    HW247800   4.865   7.162   4.326  0.0108 -1.0690 -0.5854
15664SOL     OW47801   7.675   7.399   4.797 -0.3687  0.5952 -0.7138
15664SOL    HW147802   7.716   7.422   4.880 -0.2234  0.1153 -0.6532
15664SOL    HW247803   7.748   7.388   4.737 -0.4667  0.7769 -0.8689
15665SOL     OW47804   0.938   2.313   0.666  0.7519 -0.1548 -0.2979
15665SOL    HW147805   0.959   2.367   0.590  0.5033  0.2267 -0.1004
15665SOL    HW247806   0.910   2.229   0.629 -2.9674  1.1381 -0.8555
15666SOL     OW47807   3.163   0.845   0.982 -0.0316  0.2684 -0.4448
15666SOL    HW147808   3.210   0.904   0.923 -0.6358  0.9690 -0.2401
15666SOL    HW247809   3.071   0.850   0.954  0.0864 -1.7642 -1.4292
15667SOL     OW47810   3.150   7.924   4.377 -0.3146  0.2379 -0.2136
15667SOL    HW147811   3.117   7.971   4.301  1.7694  0.9362 -0.7573
15667SOL    HW247812   3.182   7.840   4.342 -0.9948 -0.2091  0.2093
15668SOL     OW47813   6.379   3.234   0.204  0.4116 -0.1732  0.5369
15668SOL    HW147814   6.348   3.229   0.114  1.2765  0.4027  0.2079
15668SOL    HW247815   6.314   3.289   0.249  0.4025  0.1765  0.0923
15669SOL     OW47816   1.297   6.753   7.906 -0.2901 -0.3195 -0.2099
15669SOL    HW147817   1.339   6.782   7.987 -0.6728 -0.8158  0.1670
15669SOL    HW247818   1.295   6.832   7.851 -1.1206  0.3300  0.7134
15670SOL     OW47819   7.021   1.690   0.383 -0.1598 -0.3583  0.2424
15670SOL    HW147820   6.992   1.711   0.294 -0.2709 -1.3730  0.0278
15670SOL    HW247821   7.012   1.772   0.431 -0.5330  0.0872 -0.5693
15671SOL     OW47822   5.004   1.035   5.848  0.1200  0.1614  0.2747
15671SOL    HW147823   4.932   1.089   5.815  1.4119  0.4912 -2.1598
15671SOL    HW247824   5.064   1.027   5.775  1.0118 -2.8913  1.1914
15672SOL     OW47825   2.916   4.193   6.203  0.2526 -0.5035  0.4175
15672SOL    HW147826   2.852   4.262   6.217  0.1177 -0.7596  1.0738
15672SOL    HW247827   2.959   4.182   6.288 -0.2813 -1.7765  0.5504
15673SOL     OW47828   1.125   5.969   6.973 -0.3605 -0.2063  0.3138
15673SOL    HW147829   1.078   5.886   6.970 -0.4929 -0.1122 -0.5030
15673SOL    HW247830   1.210   5.949   6.933 -0.2838 -0.0173  0.3845
15674SOL     OW47831   7.698   5.890   0.972 -0.2696  0.7143  0.1030
15674SOL    HW147832   7.646   5.965   0.941 -0.1823  0.4376 -0.7386
15674SOL    HW247833   7.710   5.836   0.894  0.3377  0.2143  0.5397
15675SOL     OW47834   4.634   7.028   4.455  0.5391 -0.7953  0.0761
15675SOL    HW147835   4.675   7.032   4.369  0.9489  0.0540  0.3024
15675SOL    HW247836   4.629   6.935   4.475 -0.7535 -1.0925 -1.4211
15676SOL     OW47837   6.558   6.311   3.612 -0.3373  0.4879 -0.4702
15676SOL    HW147838   6.520   6.244   3.554  0.8369 -2.1057  1.5498
15676SOL    HW247839   6.635   6.342   3.565  0.3728 -1.2723 -0.5302
15677SOL     OW47840   5.261   7.159   0.323  0.6368  0.3130  0.6627
15677SOL    HW147841   5.308   7.089   0.277 -0.5139  0.0222 -0.1469
15677SOL    HW247842   5.186   7.114   0.362 -0.3809  1.1475 -0.2640
15678SOL     OW47843   0.209   1.254   0.072  0.3572  0.5534  0.0872
15678SOL    HW147844   0.170   1.334   0.107 -0.7067  0.2415 -0.3625
15678SOL    HW247845   0.239   1.206   0.149 -0.1178  0.8191  0.4422
15679SOL     OW47846   0.947   2.218   2.046  0.1403 -0.1605 -0.0942
15679SOL    HW147847   0.992   2.174   1.974 -1.3082 -0.3902 -0.8995
15679SOL    HW247848   0.991   2.304   2.053  0.6382 -0.3420 -0.8854
15680SOL     OW47849   7.508   6.320   5.538 -0.2591 -0.0894  0.2744
15680SOL    HW147850   7.451   6.290   5.608 -1.5268  0.7885 -0.3513
15680SOL    HW247851   7.456   6.385   5.490  0.9724  0.1469 -0.8063
15681SOL     OW47852   3.180   1.205   5.933 -0.1351 -0.3212 -0.0638
15681SOL    HW147853   3.216   1.274   5.878  0.3836 -0.6257 -0.1130
15681SOL    HW247854   3.242   1.133   5.925  0.2250 -0.2007  1.3061
15682SOL     OW47855   6.482   1.076   1.754  0.2344  0.2854 -0.1579
15682SOL    HW147856   6.482   1.006   1.689 -0.4592  0.1476 -0.0210
15682SOL    HW247857   6.444   1.035   1.833 -0.7308  0.9632 -0.2508
15683SOL     OW47858   7.537   2.673   4.333 -0.4147  0.2279 -0.2789
15683SOL    HW147859   7.519   2.633   4.248 -2.1471  0.7822 -0.2113
15683SOL    HW247860   7.462   2.648   4.387  1.2178 -1.1146  1.4900
15684SOL     OW47861   5.779   5.775   0.327 -0.6528 -0.0407  0.0382
15684SOL    HW147862   5.793   5.870   0.336 -0.5853 -0.2352  3.6054
15684SOL    HW247863   5.867   5.739   0.317 -0.5999  0.1956 -0.3866
15685SOL     OW47864   7.904   5.873   3.860  0.0991  0.7219  0.5031
15685SOL    HW147865   7.985   5.828   3.835 -0.1420  0.0105  0.9641
15685SOL    HW247866   7.839   5.839   3.798 -0.2476 -0.1518  1.3309
15686SOL     OW47867   6.613   0.043   1.274 -0.1931  0.2244 -0.2257
15686SOL    HW147868   6.680   0.005   1.332 -0.1161 -1.4515 -1.3656
15686SOL    HW247869   6.605   0.134   1.304  0.5856 -0.3059  1.7261
15687SOL     OW47870   3.869   1.164   2.536  0.1279  0.5511  0.2354
15687SOL    HW147871   3.784   1.122   2.528  1.0744 -1.3031 -0.7781
15687SOL    HW247872   3.850   1.258   2.531 -1.8074  0.1801 -0.2134
15688SOL     OW47873   7.733   2.841   4.408  0.0899 -0.3941 -0.0371
15688SOL    HW147874   7.803   2.787   4.444  0.7679  0.1523 -0.4991
15688SOL    HW247875   7.673   2.779   4.366  0.2859 -0.8689  0.3837
15689SOL     OW47876   5.252   2.819   5.457 -0.0034 -1.1903 -0.3608
15689SOL    HW147877   5.250   2.785   5.546 -0.0256 -1.0483 -0.3062
15689SOL    HW247878   5.268   2.743   5.402 -2.0998 -1.6397 -0.4196
15690SOL     OW47879   5.781   7.028   7.587  0.4804  0.1711  0.0747
15690SOL    HW147880   5.821   7.111   7.560  1.8029 -0.7669 -0.9784
15690SOL    HW247881   5.689   7.036   7.558  0.3001  1.6510  0.9277
15691SOL     OW47882   5.815   6.216   5.187  0.3448  0.2429 -0.2134
15691SOL    HW147883   5.765   6.273   5.245 -0.3436  0.0614 -0.6175
15691SOL    HW247884   5.902   6.212   5.227 -0.0135  0.4022  0.6080
15692SOL     OW47885   5.092   4.412   5.861  0.5289  0.0594  0.0138
15692SOL    HW147886   5.060   4.502   5.873  0.2622  0.2034 -1.5759
15692SOL    HW247887   5.143   4.394   5.940 -1.2829  0.7786  1.4249
15693SOL     OW47888   3.128   4.170   7.437  0.4599  0.0240  0.1282
15693SOL    HW147889   3.046   4.172   7.388 -0.2988 -0.5800  1.3136
15693SOL    HW247890   3.197   4.175   7.371 -0.5221  2.4778 -0.8070
15694SOL     OW47891   6.133   5.534   1.811 -0.3453 -0.1787  0.1394
15694SOL    HW147892   6.199   5.522   1.879  0.2723  1.1637 -0.1863
15694SOL    HW247893   6.109   5.445   1.785  0.6237 -0.7012  0.9297
15695SOL     OW47894   7.174   2.703   7.410 -0.2582  0.0584  0.3303
15695SOL    HW147895   7.097   2.748   7.375 -0.7902 -1.1048 -0.0835
15695SOL    HW247896   7.146   2.612   7.419  0.6388 -0.1320  1.5290
15696SOL     OW47897   7.864   6.639   6.978  0.3118  0.1807  0.5601
15696SOL    HW147898   7.768   6.642   6.971  0.1793 -1.5099  1.2071
15696SOL    HW247899   7.892   6.594   6.899  0.6495  1.1611  0.0990
15697SOL     OW47900   5.153   0.133   1.116 -0.1684 -0.3374  0.2014
15697SOL    HW147901   5.161   0.170   1.204  0.5076  0.3231 -0.1206
15697SOL    HW247902   5.121   0.206   1.063  0.1113 -0.5219 -0.2296
15698SOL     OW47903   4.247   4.702   3.497  0.2087 -1.1994  0.0829
15698SOL    HW147904   4.328   4.752   3.500 -1.0280  1.0469 -1.2395
15698SOL    HW247905   4.272   4.614   3.527  2.3779  0.2600  3.1497
15699SOL     OW47906   0.310   4.970   0.525 -0.3428  0.3682  0.4345
15699SOL    HW147907   0.255   4.988   0.601  0.6268  0.8174  1.0473
15699SOL    HW247908   0.385   4.922   0.560  1.0036  2.1104  0.0909
15700SOL     OW47909   7.538   4.707   6.584 -0.3095  0.2180  0.2923
15700SOL    HW147910   7.487   4.663   6.653 -0.4950 -1.4943 -0.8818
15700SOL    HW247911   7.537   4.800   6.610  0.6318 -0.4750  3.2179
15701SOL     OW47912   5.327   7.421   0.373  0.0861 -0.4253  0.0246
15701SOL    HW147913   5.300   7.342   0.326 -1.1047 -1.2205  1.9191
15701SOL    HW247914   5.322   7.396   0.465  0.6067  1.6021  0.6425
15702SOL     OW47915   1.515   6.500   4.853 -0.0456  0.0060 -0.3075
15702SOL    HW147916   1.539   6.417   4.810 -0.5286  0.7904 -2.1826
15702SOL    HW247917   1.524   6.566   4.784  2.4935  1.9453  1.6625
15703SOL     OW47918   4.316   2.111   6.500  0.0683  0.1493 -0.0575
15703SOL    HW147919   4.380   2.098   6.569 -0.5600 -0.3009  0.4567
15703SOL    HW247920   4.309   2.206   6.491 -1.4256  0.3136  2.0610
15704SOL     OW47921   5.867   2.163   1.264 -0.4880  0.2378 -0.3884
15704SOL    HW147922   5.921   2.172   1.185  1.1115 -2.4325  0.2518
15704SOL    HW247923   5.828   2.076   1.256 -1.7868  0.6568  0.9277
15705SOL     OW47924   6.786   3.676   2.775 -0.1831 -0.3530 -0.3796
15705SOL    HW147925   6.813   3.723   2.854  0.1474 -1.3235  0.1024
15705SOL    HW247926   6.693   3.697   2.766  0.1806  1.2378 -0.8006
15706SOL     OW47927   1.886   7.142   1.743  0.5223 -0.8665 -0.6297
15706SOL    HW147928   1.953   7.132   1.676  0.1973  0.8128 -1.2556
15706SOL    HW247929   1.873   7.237   1.751 -0.8966 -1.1018  0.3515
15707SOL     OW47930   1.332   3.916   3.315 -0.1775 -0.5212  0.0221
15707SOL    HW147931   1.407   3.865   3.345  0.4453  0.8339  0.8902
15707SOL    HW247932   1.328   3.991   3.375 -2.4628 -0.7434  0.2555
15708SOL     OW47933   1.043   2.497   0.143 -0.3397  0.8622 -0.5641
15708SOL    HW147934   1.120   2.540   0.106  0.6607 -0.6608 -0.3533
15708SOL    HW247935   1.073   2.460   0.226 -0.0634 -3.1161 -2.1942
15709SOL     OW47936   2.800   2.214   6.767 -0.0109  0.1271  0.2187
15709SOL    HW147937   2.887   2.236   6.800  0.0812 -1.5503  1.2343
15709SOL    HW247938   2.740   2.234   6.839 -0.1554 -0.8821  0.4018
15710SOL     OW47939   5.608   3.385   6.551  0.3112 -0.1370 -0.1796
15710SOL    HW147940   5.552   3.357   6.623  0.9393  1.1138  0.8231
15710SOL    HW247941   5.696   3.388   6.588  0.6811  0.3151 -1.0532
15711SOL     OW47942   3.284   3.571   2.726  0.4512  0.8821 -0.2427
15711SOL    HW147943   3.367   3.616   2.710  0.8301  1.0251  1.8452
15711SOL    HW247944   3.308   3.480   2.744  0.4105  1.2724  2.1107
15712SOL     OW47945   1.533   3.504   1.886  0.0286 -0.3946  0.2371
15712SOL    HW147946   1.628   3.512   1.886 -0.0715  1.7042 -1.6016
15712SOL    HW247947   1.503   3.575   1.942 -0.4587  0.5536 -1.1581
15713SOL     OW47948   2.370   4.055   7.896 -0.1151  0.0655 -0.3315
15713SOL    HW147949   2.309   3.983   7.880 -0.6153  0.7185 -1.4555
15713SOL    HW247950   2.366   4.108   7.817  1.6091  0.3527 -0.2678
15714SOL     OW47951   6.880   4.589   2.286 -0.4755  0.3970 -0.0813
15714SOL    HW147952   6.900   4.496   2.292  0.2017  0.5208 -0.3016
15714SOL    HW247953   6.936   4.630   2.352  0.8230  0.8674 -1.4250
15715SOL     OW47954   2.717   1.519   1.748  0.6027 -0.5616  0.1336
15715SOL    HW147955   2.802   1.564   1.747  1.5897 -2.2513  1.2849
15715SOL    HW247956   2.739   1.428   1.728 -0.8438 -1.1608  1.1511
15716SOL     OW47957   0.776   2.518   0.946  0.1779 -0.2170  0.3040
15716SOL    HW147958   0.726   2.558   1.018 -1.4460 -0.0343 -0.8670
15716SOL    HW247959   0.857   2.569   0.943 -2.0931  3.8423 -1.6333
15717SOL     OW47960   2.262   6.011   2.789  0.3357 -0.1390  0.2818
15717SOL    HW147961   2.244   6.079   2.854 -0.4268 -0.8392  0.8335
15717SOL    HW247962   2.200   5.941   2.811 -2.5292  0.9669 -3.3436
15718SOL     OW47963   7.669   3.433   6.271 -0.2461 -0.1714  0.2701
15718SOL    HW147964   7.717   3.515   6.284  1.2225 -1.1232  1.1663
15718SOL    HW247965   7.691   3.405   6.182  0.3871 -0.2834  0.4566
15719SOL     OW47966   1.523   0.491   6.092 -0.5564  0.5526  0.0567
15719SOL    HW147967   1.525   0.489   5.996  0.4089 -0.4294  0.0698
15719SOL    HW247968   1.554   0.579   6.114  0.9738  0.1956 -0.5366
15720SOL     OW47969   2.837   7.885   5.844  0.3396  0.1994  1.2966
15720SOL    HW147970   2.754   7.849   5.811 -0.7384  1.5379  2.4439
15720SOL    HW247971   2.864   7.824   5.912  1.8962 -1.8597 -1.0003
15721SOL     OW47972   7.465   3.342   0.300 -0.2544  1.0876 -0.1857
15721SOL    HW147973   7.462   3.280   0.227 -2.7853  2.6770 -1.5659
15721SOL    HW247974   7.483   3.426   0.259 -3.0299  2.2526  0.7501
15722SOL     OW47975   7.224   6.709   7.506  0.0909  0.1022  0.3471
15722SOL    HW147976   7.165   6.710   7.581 -0.8070 -1.2902 -0.3059
15722SOL    HW247977   7.171   6.742   7.434  0.5928  0.3092  0.0693
15723SOL     OW47978   2.971   7.507   5.412 -0.3015  0.2072 -0.4737
15723SOL    HW147979   2.881   7.503   5.444  0.4809 -1.9861  1.6904
15723SOL    HW247980   2.967   7.467   5.325 -1.3452 -0.0719 -0.3123
15724SOL     OW47981   2.774   5.992   5.919  0.1819  0.2371 -0.0106
15724SOL    HW147982   2.726   5.977   5.838 -0.3898  3.8202 -0.5036
15724SOL    HW247983   2.706   6.009   5.984  0.6703  1.6072  0.1689
15725SOL     OW47984   7.435   0.315   1.527 -0.6928  0.3241  0.4376
15725SOL    HW147985   7.457   0.359   1.445 -2.1645 -0.3586 -0.3573
15725SOL    HW247986   7.511   0.330   1.583  2.0247 -2.1714 -2.2141
15726SOL     OW47987   3.179   0.188   2.961 -0.5455  0.3134  0.6588
15726SOL    HW147988   3.221   0.153   3.040 -0.6971  0.7387  0.9292
15726SOL    HW247989   3.137   0.112   2.921  0.8339 -0.2104  0.1499
15727SOL     OW47990   2.490   5.022   4.748  0.7030  0.0624 -0.3254
15727SOL    HW147991   2.425   5.056   4.687  0.0855 -0.3201  0.1104
15727SOL    HW247992   2.446   4.950   4.793  0.5722  1.3532  1.7265
15728SOL     OW47993   6.699   4.318   6.730 -0.8822  0.2955 -0.2870
15728SOL    HW147994   6.709   4.243   6.787 -0.7959  0.9815  0.6241
15728SOL    HW247995   6.754   4.299   6.654  0.4254  0.1502  0.6715
15729SOL     OW47996   4.035   0.561   3.467 -0.0088  0.4159  0.4189
15729SOL    HW147997   4.130   0.546   3.465 -0.0509  0.1642 -1.2575
15729SOL    HW247998   4.000   0.505   3.398 -1.2524  1.3476  0.2572
15730SOL     OW47999   6.559   3.202   6.572 -0.5745 -0.3069 -0.0034
15730SOL    HW148000   6.580   3.109   6.557 -0.0215  0.1417 -2.3696
15730SOL    HW248001   6.641   3.248   6.554 -0.5649  0.6327  2.1206
15731SOL     OW48002   4.337   5.984   0.494 -0.3727  0.5299  0.2745
15731SOL    HW148003   4.265   5.931   0.461 -0.2340  0.6030 -0.1414
15731SOL    HW248004   4.314   6.000   0.586 -1.0059  0.7478  0.0826
15732SOL     OW48005   4.330   7.152   0.014 -0.2872  0.4255 -0.0050
15732SOL    HW148006   4.378   7.071   0.031  2.0122  1.9197  1.1459
15732SOL    HW248007   4.299   7.143  -0.076  2.8429 -0.4032 -1.1244
15733SOL     OW48008   4.803   1.667   3.379  0.3821 -0.3979  0.5065
15733SOL    HW148009   4.779   1.755   3.351  0.6974 -0.5780 -0.3412
15733SOL    HW248010   4.728   1.612   3.355 -0.0920 -0.2724  1.6133
15734SOL     OW48011   1.578   0.473   0.998  0.2717 -0.5590 -0.3330
15734SOL    HW148012   1.485   0.468   1.018  0.0898 -2.1374 -1.3363
15734SOL    HW248013   1.613   0.387   1.023  1.2498 -0.3427 -0.8768
15735SOL     OW48014   0.423   1.527   2.021  0.6156 -0.1118  0.3606
15735SOL    HW148015   0.472   1.598   2.062  1.2067 -1.0942  1.4086
15735SOL    HW248016   0.337   1.529   2.063  1.2303 -1.1386  1.7677
15736SOL     OW48017   0.518   3.773   0.725  0.4434  0.2692 -0.1830
15736SOL    HW148018   0.432   3.753   0.761  0.2055  0.2959 -0.7206
15736SOL    HW248019   0.534   3.704   0.660  1.2211 -0.2521  0.5344
15737SOL     OW48020   2.314   6.286   3.323 -0.3555 -0.0720  0.2494
15737SOL    HW148021   2.228   6.326   3.312  1.1961  2.9981 -2.6931
15737SOL    HW248022   2.315   6.212   3.263 -1.0264 -0.3518  0.5745
15738SOL     OW48023   5.870   3.057   7.344  0.1783  0.6474  0.1100
15738SOL    HW148024   5.923   3.052   7.265  0.1195 -1.1118  0.1383
15738SOL    HW248025   5.906   2.990   7.402 -1.0578  0.4990  0.7549
15739SOL     OW48026   0.723   7.545   6.986  0.2152 -0.6374 -0.2985
15739SOL    HW148027   0.698   7.628   6.944 -0.7276 -1.0150 -0.4932
15739SOL    HW248028   0.763   7.494   6.916  1.2122 -0.1958 -0.0794
15740SOL     OW48029   2.518   3.879   4.772  0.2993 -0.0420 -0.1569
15740SOL    HW148030   2.564   3.847   4.695 -0.0435 -0.3584 -0.2293
15740SOL    HW248031   2.537   3.973   4.774 -1.9519  0.5363 -2.2060
15741SOL     OW48032   3.920   0.977   3.505  0.3766  0.1173  0.1606
15741SOL    HW148033   3.835   1.020   3.516  0.0530  0.0267 -1.6463
15741SOL    HW248034   3.929   0.967   3.410  1.9607 -0.7845  0.3795
15742SOL     OW48035   7.912   2.981   5.085 -0.6105 -0.0732 -0.2685
15742SOL    HW148036   7.826   2.946   5.110 -0.9915  1.8447  1.2869
15742SOL    HW248037   7.895   3.028   5.003 -0.8373 -0.4337 -0.4359
15743SOL     OW48038   5.802   6.860   0.601  0.1952  0.6401 -0.7266
15743SOL    HW148039   5.825   6.892   0.514 -1.8338 -0.2877 -1.6661
15743SOL    HW248040   5.725   6.805   0.587 -0.1515  0.4138  1.6544
15744SOL     OW48041   3.234   5.068   3.355  0.5599  0.1241  0.4726
15744SOL    HW148042   3.298   5.020   3.407  0.4451 -1.7844 -1.0323
15744SOL    HW248043   3.272   5.073   3.267 -0.8958 -0.1888 -0.2113
15745SOL     OW48044   7.946   7.470   5.847 -0.1262 -0.5848 -0.0286
15745SOL    HW148045   7.946   7.388   5.897  1.0021 -1.3592 -1.2100
15745SOL    HW248046   7.981   7.535   5.907  0.4697 -1.3274  0.4628
15746SOL     OW48047   0.949   7.233   6.798 -0.1194 -0.1688 -0.1753
15746SOL    HW148048   0.857   7.242   6.774 -0.3694 -0.2698  0.7129
15746SOL    HW248049   0.948   7.201   6.888  0.7831  1.0235  0.2906
15747SOL     OW48050   0.719   2.080   4.606 -0.2391  0.3964 -0.6761
15747SOL    HW148051   0.722   2.128   4.523  2.6545 -0.0438 -0.9597
15747SOL    HW248052   0.730   1.988   4.581  0.9184  0.2776  0.1477
15748SOL     OW48053   1.289   2.358   0.525  0.5466  0.2612 -0.0435
15748SOL    HW148054   1.307   2.450   0.544 -1.3652  0.9805 -1.3871
15748SOL    HW248055   1.196   2.357   0.500  0.0579 -2.2949  1.5295
15749SOL     OW48056   4.955   1.460   0.755 -0.1421 -0.5486  0.7344
15749SOL    HW148057   5.037   1.464   0.803 -0.2481  0.2853  0.8705
15749SOL    HW248058   4.969   1.515   0.678 -0.7350  0.0496  1.0388
15750SOL     OW48059   3.020   7.026   0.271 -0.9727  0.1633  0.2256
15750SOL    HW148060   3.052   6.946   0.230 -0.3529  0.5681 -0.1022
15750SOL    HW248061   3.014   7.089   0.199  0.2805  0.9299  0.7626
15751SOL     OW48062   5.172   7.409   2.766  0.0338 -0.3999 -0.0429
15751SOL    HW148063   5.262   7.402   2.798  0.3426  0.8713 -0.5700
15751SOL    HW248064   5.142   7.494   2.798 -0.1857  0.2026 -1.7311
15752SOL     OW48065   1.400   4.378   3.866 -0.3267  0.2783  0.6697
15752SOL    HW148066   1.485   4.399   3.826 -1.5827 -0.4673 -2.7814
15752SOL    HW248067   1.419   4.306   3.926  1.7042  1.3200  1.3624
15753SOL     OW48068   6.812   4.660   6.973  0.2678  0.0510 -0.6601
15753SOL    HW148069   6.865   4.740   6.974  1.0306 -0.4460 -0.4029
15753SOL    HW248070   6.811   4.632   6.882  1.7367 -0.7548 -0.4625
15754SOL     OW48071   1.256   7.004   2.855  0.0750  0.1767 -0.0182
15754SOL    HW148072   1.225   7.027   2.768  1.1575  0.5097 -0.3307
15754SOL    HW248073   1.302   7.082   2.886 -0.4738  0.1350  0.9431
15755SOL     OW48074   6.455   1.244   2.159 -0.8582 -0.0558  0.1473
15755SOL    HW148075   6.474   1.152   2.181  0.4896  0.7004  2.5741
15755SOL    HW248076   6.497   1.258   2.074 -1.0915 -1.6713 -0.2697
15756SOL     OW48077   0.721   2.378   6.024  0.1963 -0.0712 -0.3798
15756SOL    HW148078   0.715   2.336   5.938 -1.5131 -2.9423  0.9661
15756SOL    HW248079   0.645   2.435   6.028  0.3581  0.1785 -0.8117
15757SOL     OW48080   2.411   3.572   2.233  0.6113 -0.0190 -0.0040
15757SOL    HW148081   2.402   3.525   2.317  1.3190 -0.2840 -0.0754
15757SOL    HW248082   2.355   3.649   2.243  0.5842 -0.1194  0.6638
15758SOL     OW48083   2.881   4.921   5.822  0.1520 -0.6415 -0.0726
15758SOL    HW148084   2.938   4.865   5.769 -0.2520 -0.7710 -0.3747
15758SOL    HW248085   2.936   4.996   5.845  0.2356 -0.4204 -0.9502
15759SOL     OW48086   4.304   7.813   5.349  0.0073 -0.1769 -0.4016
15759SOL    HW148087   4.247   7.889   5.364  0.5389  0.2288 -0.3961
15759SOL    HW248088   4.261   7.741   5.395 -0.8429 -0.0301 -0.9442
15760SOL     OW48089   5.914   1.327   7.076 -0.0041 -0.1288 -0.2281
15760SOL    HW148090   5.905   1.242   7.121 -1.4202  0.4003  0.5738
15760SOL    HW248091   5.908   1.306   6.983 -1.0414 -0.8734 -0.0165
15761SOL     OW48092   2.257   7.565   0.402  0.4546 -0.0506  0.0977
15761SOL    HW148093   2.211   7.628   0.458  1.0183  1.6138 -1.2388
15761SOL    HW248094   2.288   7.617   0.328  0.0263 -2.1275 -1.6102
15762SOL     OW48095   1.783   4.521   3.092 -0.2631 -0.3059 -0.6135
15762SOL    HW148096   1.820   4.608   3.078 -1.7374  0.5895  0.7303
15762SOL    HW248097   1.856   4.461   3.074  0.7513  1.1728 -1.6881
15763SOL     OW48098   7.998   7.198   0.776 -0.1678  0.3411 -0.2688
15763SOL    HW148099   8.034   7.214   0.863 -0.0381 -0.5905 -0.1496
15763SOL    HW248100   8.004   7.104   0.764  1.9862  0.6496 -2.2396
15764SOL     OW48101   5.153   7.412   4.263 -0.2692 -0.0809  0.1476
15764SOL    HW148102   5.180   7.324   4.290 -0.2396 -1.1583 -3.0319
15764SOL    HW248103   5.084   7.436   4.326  1.3772 -1.2758  2.5771
15765SOL     OW48104   0.040   0.898   5.905 -0.1447 -0.2574 -0.6210
15765SOL    HW148105  -0.012   0.850   5.970 -1.0146  0.8261 -0.4804
15765SOL    HW248106   0.083   0.967   5.955 -0.8926  0.6449 -1.1792
15766SOL     OW48107   5.225   6.668   2.870  0.1703 -0.6365  0.1062
15766SOL    HW148108   5.313   6.677   2.906  0.2666 -1.6927  0.1552
15766SOL    HW248109   5.174   6.631   2.942 -0.4466  0.4566  0.2499
15767SOL     OW48110   7.840   4.010   0.793 -0.3352 -0.1265  0.2414
15767SOL    HW148111   7.851   3.918   0.818  1.8494 -0.0697 -0.3614
15767SOL    HW248112   7.791   4.049   0.865 -3.1000 -2.1317 -0.3589
15768SOL     OW48113   5.249   0.033   4.348  0.3282 -0.1225 -0.5237
15768SOL    HW148114   5.298   0.116   4.344  0.0204  0.1362  0.6047
15768SOL    HW248115   5.291  -0.023   4.283  0.3701  1.0081 -1.5069
15769SOL     OW48116   4.027   4.213   0.213 -0.4358  0.3468  0.1665
15769SOL    HW148117   4.063   4.267   0.143 -0.7309  0.3790  0.0375
15769SOL    HW248118   3.987   4.275   0.274  1.7539  0.5004  1.5271
15770SOL     OW48119   7.366   4.517   0.048 -0.2550 -0.6183 -0.0244
15770SOL    HW148120   7.413   4.510   0.132 -0.9358 -0.1341  0.4032
15770SOL    HW248121   7.323   4.603   0.052  1.5074  0.4324 -1.8083
15771SOL     OW48122   7.866   6.544   2.575  0.1633  0.4893  0.0159
15771SOL    HW148123   7.800   6.613   2.567  1.2683  1.9623  2.3111
15771SOL    HW248124   7.943   6.579   2.531  0.0983 -0.2408 -0.6936
15772SOL     OW48125   1.546   6.624   5.075  0.1940  0.1350 -0.3501
15772SOL    HW148126   1.503   6.577   5.003 -1.6077  1.8359 -0.4620
15772SOL    HW248127   1.548   6.560   5.146 -3.9789  0.2532  0.1600
15773SOL     OW48128   7.723   5.856   7.526 -0.7492  0.5524  0.2963
15773SOL    HW148129   7.697   5.773   7.486  0.2418  1.1285 -1.6570
15773SOL    HW248130   7.647   5.882   7.578 -1.4338 -1.0876  0.1844
15774SOL     OW48131   1.606   0.719   1.862 -0.1701  0.0959  0.1983
15774SOL    HW148132   1.665   0.767   1.804  0.7293  0.5113  1.4380
15774SOL    HW248133   1.566   0.786   1.917 -1.5061 -0.2230 -0.3172
15775SOL     OW48134   2.571   5.857   5.016  0.1373  0.7861  0.0739
15775SOL    HW148135   2.516   5.880   5.091  0.1899  0.2873  0.2736
15775SOL    HW248136   2.526   5.782   4.976  0.0986  1.0639 -0.4100
15776SOL     OW48137   1.260   1.934   7.281 -0.2450  0.1805 -0.1741
15776SOL    HW148138   1.288   1.982   7.359 -0.8067  0.0718  0.0997
15776SOL    HW248139   1.299   1.983   7.208 -0.1414  0.5839  0.1453
15777SOL     OW48140   7.521   5.337   2.654  0.7256 -0.4345 -0.1977
15777SOL    HW148141   7.480   5.313   2.571  0.9937 -0.0596 -0.4387
15777SOL    HW248142   7.491   5.269   2.715  0.3602 -0.5943 -0.5471
15778SOL     OW48143   0.764   6.287   0.877 -0.3198 -0.2114  0.8263
15778SOL    HW148144   0.703   6.311   0.947 -0.5791 -0.3079  0.6347
15778SOL    HW248145   0.708   6.263   0.803 -0.0537  0.3347  0.4330
15779SOL     OW48146   3.146   5.738   7.410 -0.3525  0.1542  0.0991
15779SOL    HW148147   3.089   5.805   7.447 -0.4472 -0.0077  0.2503
15779SOL    HW248148   3.235   5.771   7.423 -0.4248  0.5449 -0.4050
15780SOL     OW48149   5.770   3.963   5.841  0.1824  0.0842  0.6175
15780SOL    HW148150   5.856   4.004   5.854 -0.1347  1.5294 -1.4089
15780SOL    HW248151   5.756   3.911   5.921  1.3638  2.5865  2.5975
15781SOL     OW48152   7.493   6.796   4.716  0.2528 -0.3146  0.6860
15781SOL    HW148153   7.465   6.863   4.654  0.1545  0.1074  1.1752
15781SOL    HW248154   7.420   6.734   4.718  0.2771 -0.3529  0.3438
15782SOL     OW48155   6.682   4.082   1.233  0.0001  0.2010  0.2512
15782SOL    HW148156   6.709   4.157   1.288  0.4019 -0.7803  1.4427
15782SOL    HW248157   6.588   4.094   1.222  0.1945  1.3590 -0.3377
15783SOL     OW48158   6.345   5.038   2.906  0.1280  0.1869 -0.0775
15783SOL    HW148159   6.371   5.124   2.872  0.6279 -0.4187 -1.2909
15783SOL    HW248160   6.250   5.043   2.914  0.2896  1.3779  1.3907
15784SOL     OW48161   4.447   3.369   6.456 -0.0956 -0.4375  0.5500
15784SOL    HW148162   4.386   3.386   6.384  1.0748  0.2642 -0.3113
15784SOL    HW248163   4.398   3.313   6.516 -2.1445  1.3793  0.6952
15785SOL     OW48164   4.169   0.276   5.302  0.4440  0.1964 -0.1655
15785SOL    HW148165   4.137   0.271   5.212  0.4363  0.9899 -0.2209
15785SOL    HW248166   4.111   0.340   5.344 -0.8496 -1.6617  0.9868
15786SOL     OW48167   0.080   6.929   2.797 -0.7057  0.5855  0.9608
15786SOL    HW148168  -0.004   6.941   2.752 -0.1645  1.1942  0.0635
15786SOL    HW248169   0.071   6.978   2.879 -1.4140  0.1748  1.1346
15787SOL     OW48170   4.809   0.611   3.476  0.6561  0.2597 -0.8977
15787SOL    HW148171   4.822   0.611   3.571  1.7910  0.6833 -1.0377
15787SOL    HW248172   4.715   0.598   3.464  0.5561 -0.1607  0.2761
15788SOL     OW48173   5.146   4.031   7.190  0.2680 -0.0411 -0.1743
15788SOL    HW148174   5.240   4.016   7.180  0.3907  1.1551 -0.8991
15788SOL    HW248175   5.105   3.954   7.150  0.9155 -1.1811  1.2294
15789SOL     OW48176   1.897   4.284   3.324  0.1279  0.0766 -0.3340
15789SOL    HW148177   1.921   4.293   3.232  1.1749  0.2512 -0.0552
15789SOL    HW248178   1.976   4.309   3.372 -1.2028  2.5915  0.6861
15790SOL     OW48179   3.519   2.524   7.684  0.5345 -0.2049  0.1336
15790SOL    HW148180   3.529   2.491   7.595  0.1191  0.8613 -0.3160
15790SOL    HW248181   3.449   2.470   7.722  0.2858 -0.2518 -0.3868
15791SOL     OW48182   4.711   7.402   2.224 -0.2158  0.4322  0.0410
15791SOL    HW148183   4.700   7.496   2.207  1.4608  0.6355 -0.1773
15791SOL    HW248184   4.750   7.367   2.144  0.0639 -0.2516  0.4636
15792SOL     OW48185   1.212   3.603   2.115  0.1523  0.7220 -0.0186
15792SOL    HW148186   1.284   3.613   2.177 -0.6078  0.2448  0.9745
15792SOL    HW248187   1.155   3.678   2.133  0.0379  0.7050 -0.3087
15793SOL     OW48188   0.746   2.094   1.478 -0.4201  0.4912  0.0970
15793SOL    HW148189   0.711   2.177   1.508  0.7743  0.9002  0.4214
15793SOL    HW248190   0.824   2.079   1.532 -1.1062 -1.2842  0.6645
15794SOL     OW48191   5.517   3.931   6.345  0.6073  0.5680 -0.6093
15794SOL    HW148192   5.502   3.836   6.343  1.1053  0.4875 -0.7576
15794SOL    HW248193   5.431   3.968   6.363  0.5979  0.0437  0.4818
15795SOL     OW48194   4.291   0.465   4.389  0.3844 -0.2651  0.0083
15795SOL    HW148195   4.295   0.446   4.295 -1.5530  0.3138 -0.2390
15795SOL    HW248196   4.236   0.396   4.425 -0.4520  0.5644  0.3704
15796SOL     OW48197   3.629   7.505   3.778 -0.1585  0.1073  0.2717
15796SOL    HW148198   3.697   7.536   3.837  0.2173  0.9572 -0.5779
15796SOL    HW248199   3.617   7.413   3.800  1.5337 -0.1618  0.1836
15797SOL     OW48200   4.458   4.136   3.231  0.1003 -0.4403 -0.5855
15797SOL    HW148201   4.454   4.230   3.216 -3.2018 -0.2857  0.4083
15797SOL    HW248202   4.465   4.098   3.143 -2.4477  0.7269 -1.3834
15798SOL     OW48203   1.092   5.216   7.525  0.4689 -0.4345 -0.2255
15798SOL    HW148204   1.132   5.303   7.528  1.4892 -0.8769 -0.4319
15798SOL    HW248205   0.999   5.232   7.536  0.7946  0.5687  1.4650
15799SOL     OW48206   6.859   4.521   4.480  0.6354  0.0403 -0.1523
15799SOL    HW148207   6.851   4.610   4.447  2.0954 -0.2439 -1.3884
15799SOL    HW248208   6.866   4.466   4.401  3.3176 -0.7672  0.5208
15800SOL     OW48209   1.044   5.635   6.400  0.6046 -0.0352 -0.0189
15800SOL    HW148210   1.093   5.560   6.432  1.6789  0.9984  0.8579
15800SOL    HW248211   1.036   5.692   6.476 -3.6498 -0.9321  0.4437
15801SOL     OW48212   3.306   4.290   1.754 -0.2561 -0.3311  0.5755
15801SOL    HW148213   3.310   4.289   1.850 -0.5578  0.0383  0.5987
15801SOL    HW248214   3.259   4.372   1.734 -1.3804 -1.0536  0.1587
15802SOL     OW48215   2.837   4.751   3.321  0.8429 -0.2774  0.1896
15802SOL    HW148216   2.907   4.706   3.368  0.8350 -0.3269  0.1546
15802SOL    HW248217   2.883   4.813   3.264  0.8182  0.4648  0.9518
15803SOL     OW48218   3.584   1.682   6.981 -0.0725  0.6301  0.1128
15803SOL    HW148219   3.629   1.619   6.925  1.0197  1.4352  0.0373
15803SOL    HW248220   3.639   1.761   6.977 -1.7379  1.8145 -0.3149
15804SOL     OW48221   6.002   6.367   2.116 -0.3768 -0.1987 -0.0923
15804SOL    HW148222   5.995   6.279   2.152 -1.8262  0.2528  0.8258
15804SOL    HW248223   5.997   6.425   2.193 -1.5739  0.7311 -0.8267
15805SOL     OW48224   0.735   4.611   0.266  0.2547 -0.2022 -0.5146
15805SOL    HW148225   0.821   4.652   0.259  1.7187 -3.0966 -1.4906
15805SOL    HW248226   0.674   4.677   0.235  1.9756  2.2383  0.9478
15806SOL     OW48227   0.986   7.385   2.605 -0.4113 -0.8346  0.2855
15806SOL    HW148228   0.957   7.302   2.567  0.5632 -0.5597 -1.1593
15806SOL    HW248229   1.072   7.400   2.566 -0.6211  0.9124  0.4196
15807SOL     OW48230   2.237   0.069   7.062 -0.1448  0.4235  0.1123
15807SOL    HW148231   2.314   0.115   7.097  0.3963  0.2198 -0.7913
15807SOL    HW248232   2.201   0.128   6.996  0.8306 -0.6161 -1.3990
15808SOL     OW48233   1.489   0.176   2.231 -0.3674  0.4730 -0.9872
15808SOL    HW148234   1.534   0.254   2.263  0.4059  0.2372 -1.4829
15808SOL    HW248235   1.473   0.193   2.138  0.0863 -0.0726 -1.1754
15809SOL     OW48236   6.597   6.000   3.766  0.4846  0.3523 -0.0305
15809SOL    HW148237   6.672   6.059   3.759  0.8934 -0.1621  0.0178
15809SOL    HW248238   6.538   6.044   3.828  0.7923  0.7082  0.0123
15810SOL     OW48239   5.924   2.600   3.483 -0.2831  0.1103 -0.4153
15810SOL    HW148240   5.887   2.568   3.566 -0.9143 -2.1212 -1.4662
15810SOL    HW248241   5.849   2.630   3.433 -0.0278  0.4921 -0.5722
15811SOL     OW48242   7.523   1.977   3.234 -0.2170  0.1792  0.9508
15811SOL    HW148243   7.564   1.947   3.153 -0.4643 -0.7829  1.1676
15811SOL    HW248244   7.481   2.060   3.211 -0.9044 -0.4379 -0.1004
15812SOL     OW48245   1.095   0.557   7.254 -0.1785  0.1921  0.6293
15812SOL    HW148246   1.122   0.636   7.206 -0.3357  0.9153  1.6796
15812SOL    HW248247   1.079   0.492   7.186 -1.4324  1.4823 -0.4002
15813SOL     OW48248   2.131   3.727   4.344 -0.0660 -0.1257  0.1267
15813SOL    HW148249   2.191   3.734   4.418  1.6888 -4.0743 -0.6421
15813SOL    HW248250   2.171   3.781   4.275  1.1779 -0.5512  0.4795
15814SOL     OW48251   6.189   7.655   7.786  0.0472  0.3959 -0.3902
15814SOL    HW148252   6.253   7.661   7.716  0.0986  1.2070 -0.2761
15814SOL    HW248253   6.105   7.641   7.742  0.0330  1.2210 -0.6285
15815SOL     OW48254   6.799   1.538   2.437  0.7064  0.0818  0.2161
15815SOL    HW148255   6.707   1.524   2.458  0.9666 -1.2962  0.5212
15815SOL    HW248256   6.841   1.555   2.521  1.0252 -1.1415  0.3226
15816SOL     OW48257   4.754   1.510   5.237 -0.1254 -0.0254 -0.2466
15816SOL    HW148258   4.841   1.479   5.212  0.4618  0.1851  1.3998
15816SOL    HW248259   4.762   1.606   5.235 -1.3868  0.1168 -3.5021
15817SOL     OW48260   3.367   4.971   3.975 -0.1722 -0.3287 -0.6791
15817SOL    HW148261   3.301   4.910   3.940 -0.1266 -0.5030 -0.4621
15817SOL    HW248262   3.321   5.053   3.986 -0.5818 -0.6676  0.2746
15818SOL     OW48263   7.695   6.067   3.630 -0.0086 -0.2201  0.4085
15818SOL    HW148264   7.644   6.147   3.643  1.5447  0.6895  1.1889
15818SOL    HW248265   7.786   6.095   3.641  0.6312 -1.9103 -0.3140
15819SOL     OW48266   5.568   2.925   3.056 -0.0969 -0.5265  0.1422
15819SOL    HW148267   5.652   2.882   3.043 -0.2079 -0.4645 -0.8196
15819SOL    HW248268   5.564   2.942   3.151  0.4456 -1.5921  0.3750
15820SOL     OW48269   2.624   6.614   4.906 -0.1759 -0.0425  0.4235
15820SOL    HW148270   2.531   6.591   4.895 -0.1065 -0.1164 -0.0043
15820SOL    HW248271   2.658   6.545   4.963 -0.0850 -0.7539 -0.4630
15821SOL     OW48272   4.291   6.685   1.575 -0.5975 -0.3014 -0.5444
15821SOL    HW148273   4.378   6.656   1.548  0.1020  1.7212 -0.6570
15821SOL    HW248274   4.234   6.609   1.559  1.5622 -2.7443  2.3263
15822SOL     OW48275   5.895   1.287   6.809 -0.1395  0.4719 -0.1322
15822SOL    HW148276   5.910   1.335   6.727 -1.1580  0.4584 -0.3375
15822SOL    HW248277   5.805   1.308   6.833  0.2571  0.7664  1.1888
15823SOL     OW48278   6.668   6.788   1.611  0.7524 -0.6578  0.1348
15823SOL    HW148279   6.678   6.702   1.652  1.2101  0.0925  1.6813
15823SOL    HW248280   6.585   6.821   1.645  0.8733 -0.2428  0.0258
15824SOL     OW48281   5.470   7.748   4.440  0.2121  0.0585 -0.0105
15824SOL    HW148282   5.532   7.818   4.419 -0.7480  1.2759  1.0848
15824SOL    HW248283   5.500   7.715   4.525 -0.5929  0.6306  0.5072
15825SOL     OW48284   6.329   4.172   7.778 -0.3868  0.3046 -0.5012
15825SOL    HW148285   6.389   4.243   7.757 -1.9192  0.8309 -3.6361
15825SOL    HW248286   6.321   4.122   7.697 -1.8578 -1.5497  0.6851
15826SOL     OW48287   7.172   3.490   2.353 -0.1128 -0.5625 -0.0690
15826SOL    HW148288   7.238   3.442   2.402  0.6047  0.5852  0.1400
15826SOL    HW248289   7.108   3.519   2.419  1.5008  2.0526  0.5025
15827SOL     OW48290   7.891   0.878   5.576 -0.3802 -0.0972  0.3375
15827SOL    HW148291   7.916   0.851   5.488 -2.4623  1.8011 -0.9724
15827SOL    HW248292   7.838   0.806   5.609 -0.6821 -0.2995 -0.5417
15828SOL     OW48293   3.115   3.109   2.328  0.1130 -0.0061 -0.1261
15828SOL    HW148294   3.120   3.074   2.239 -0.6229 -1.8847  0.5210
15828SOL    HW248295   3.148   3.039   2.383 -0.3762  0.7445  1.1606
15829SOL     OW48296   3.434   5.042   1.691 -0.4334 -0.1022 -0.4593
15829SOL    HW148297   3.359   5.102   1.687  0.2384  0.7363 -1.0817
15829SOL    HW248298   3.429   5.002   1.778 -0.3887  1.5663  0.3525
15830SOL     OW48299   1.215   3.893   5.557 -0.0382  0.3565 -0.4617
15830SOL    HW148300   1.205   3.898   5.462  2.6523 -1.9654 -0.9969
15830SOL    HW248301   1.161   3.818   5.582  1.6096 -0.9717 -0.7016
15831SOL     OW48302   2.754   0.461   2.369  0.4555 -0.4149 -0.0078
15831SOL    HW148303   2.672   0.412   2.366  0.4771 -0.4012 -1.1866
15831SOL    HW248304   2.743   0.531   2.305  1.2182 -0.1267  0.1573
15832SOL     OW48305   6.073   1.791   7.250  0.2687 -0.7345 -0.0284
15832SOL    HW148306   6.074   1.825   7.161 -0.4290 -0.0060  0.2244
15832SOL    HW248307   6.053   1.698   7.240 -0.4113 -0.5419 -0.6138
15833SOL     OW48308   0.627   1.030   5.252  1.0570 -0.3851  0.6202
15833SOL    HW148309   0.638   1.017   5.346 -0.8919  1.6391  1.2093
15833SOL    HW248310   0.675   1.110   5.233 -2.3905  1.9739  0.9714
15834SOL     OW48311   6.057   1.397   1.324 -0.4651 -0.5429  0.2582
15834SOL    HW148312   6.091   1.310   1.344 -2.2955 -0.9239  2.1718
15834SOL    HW248313   6.082   1.450   1.400 -0.2322  0.3283 -0.4213
15835SOL     OW48314   5.674   2.296   3.847 -0.1428  0.5987  0.1387
15835SOL    HW148315   5.606   2.278   3.912 -0.8332  0.9363 -0.4733
15835SOL    HW248316   5.736   2.223   3.856 -1.2231 -0.3871 -0.1214
15836SOL     OW48317   6.630   3.426   6.854  0.1622  0.7769 -0.1920
15836SOL    HW148318   6.708   3.395   6.808 -1.6922 -0.4734 -2.8042
15836SOL    HW248319   6.647   3.407   6.946  2.5661 -0.2258 -0.7554
15837SOL     OW48320   1.306   0.102   5.828  0.1105  0.0578 -0.0848
15837SOL    HW148321   1.262   0.186   5.838  1.9991  1.1453 -0.3530
15837SOL    HW248322   1.399   0.125   5.817  0.6312 -2.0423 -0.5354
15838SOL     OW48323   5.882   7.833   1.625  0.4909 -0.0202 -0.3353
15838SOL    HW148324   5.898   7.831   1.719  1.1648  0.3865 -0.4377
15838SOL    HW248325   5.793   7.798   1.616  0.5897 -0.4951  0.4068
15839SOL     OW48326   1.854   5.472   6.073 -0.3293 -0.0020  0.3201
15839SOL    HW148327   1.905   5.488   6.153  0.3819  0.3863 -0.1979
15839SOL    HW248328   1.849   5.377   6.067 -1.2100 -0.0379  1.3265
15840SOL     OW48329   6.187   4.282   1.866  0.1216 -0.1593  0.2945
15840SOL    HW148330   6.250   4.324   1.807  0.6633  0.0132  0.9783
15840SOL    HW248331   6.113   4.259   1.810  0.5181  0.2259 -0.4015
15841SOL     OW48332   2.293   5.508   6.140 -0.2001  0.3695  0.9902
15841SOL    HW148333   2.315   5.451   6.214  3.0242  1.2108  0.8230
15841SOL    HW248334   2.308   5.453   6.063 -0.2079  0.5036  0.8933
15842SOL     OW48335   3.989   3.893   7.161 -0.3542  0.4330  0.6594
15842SOL    HW148336   4.020   3.877   7.072 -2.0075  0.6642  0.0116
15842SOL    HW248337   3.948   3.811   7.188 -2.2796  1.1671  0.1309
15843SOL     OW48338   7.663   6.022   2.510  0.0482  0.1100  0.0099
15843SOL    HW148339   7.589   5.967   2.534  0.0677  0.3606  0.6607
15843SOL    HW248340   7.715   5.969   2.450 -1.0868  0.2294 -1.1109
15844SOL     OW48341   5.207   7.045   5.281 -0.1435 -0.2740  0.4040
15844SOL    HW148342   5.149   7.072   5.209  0.1190 -0.0021  0.2920
15844SOL    HW248343   5.179   7.098   5.356  0.2009  0.1286  0.2527
15845SOL     OW48344   4.243   5.932   4.539 -0.2494  0.1126 -0.4032
15845SOL    HW148345   4.314   5.882   4.578 -0.3617 -0.9714 -1.5272
15845SOL    HW248346   4.251   6.019   4.578 -0.0857 -0.7648  1.6482
15846SOL     OW48347   6.391   3.220   2.204  0.3899 -0.3223 -0.4328
15846SOL    HW148348   6.471   3.211   2.153  0.6485  0.8421 -0.2470
15846SOL    HW248349   6.420   3.232   2.294 -0.0302 -0.9954 -0.1977
15847SOL     OW48350   6.593   2.709   4.012 -0.2547 -0.2440 -0.2447
15847SOL    HW148351   6.624   2.630   4.055 -1.9784 -1.1965 -0.6602
15847SOL    HW248352   6.507   2.725   4.050 -1.1117 -0.1704 -2.0980
15848SOL     OW48353   7.175   5.283   3.724 -0.1405  0.1467  0.1300
15848SOL    HW148354   7.266   5.255   3.717 -0.8173 -1.8769 -1.3596
15848SOL    HW248355   7.170   5.324   3.811  1.5797 -2.0554  1.3792
15849SOL     OW48356   1.860   3.544   2.323  0.0081  0.0333  0.7368
15849SOL    HW148357   1.820   3.473   2.273 -0.5278 -1.1987  2.7890
15849SOL    HW248358   1.951   3.518   2.334  0.4294  0.8904 -0.5664
15850SOL     OW48359   2.516   1.053   2.577  0.1382 -0.1743 -0.3534
15850SOL    HW148360   2.441   1.024   2.525 -0.0019 -0.6398  0.0901
15850SOL    HW248361   2.592   1.041   2.520  0.1322 -1.8063 -0.0666
15851SOL     OW48362   5.130   2.865   4.020 -0.3276  0.0265 -0.2831
15851SOL    HW148363   5.210   2.879   4.069  0.0236  1.8380 -1.2760
15851SOL    HW248364   5.078   2.944   4.035 -0.3074  0.5528 -2.5601
15852SOL     OW48365   0.183   0.420   5.458  0.0812 -0.9741 -0.5497
15852SOL    HW148366   0.257   0.475   5.433  0.0812 -0.7622 -0.1019
15852SOL    HW248367   0.215   0.371   5.534 -0.0953 -1.2014 -0.6205
15853SOL     OW48368   3.908   0.271   2.800 -0.1867 -0.0055 -0.4075
15853SOL    HW148369   3.840   0.266   2.867  0.7915  0.2542  0.6384
15853SOL    HW248370   3.861   0.292   2.719 -1.2290  1.3628  0.5108
15854SOL     OW48371   3.977   0.614   4.614  0.1091 -0.5789 -0.0509
15854SOL    HW148372   4.070   0.625   4.633  0.3906 -2.0452 -0.4751
15854SOL    HW248373   3.942   0.569   4.691 -0.3340  0.2452  0.2461
15855SOL     OW48374   6.639   7.410   0.138  0.0487 -0.7686 -0.0727
15855SOL    HW148375   6.560   7.455   0.167 -0.0514 -0.3128 -1.0348
15855SOL    HW248376   6.628   7.320   0.170 -0.2914 -0.4182  0.8354
15856SOL     OW48377   4.961   3.381   1.614 -1.0128  0.1345 -0.6230
15856SOL    HW148378   4.926   3.442   1.678 -2.0454  0.1165 -1.1413
15856SOL    HW248379   4.883   3.341   1.574 -0.3947 -2.1897  0.3123
15857SOL     OW48380   3.499   3.945   5.867  0.5067 -0.2930  0.4499
15857SOL    HW148381   3.499   4.031   5.908 -1.0873  0.2424 -0.5685
15857SOL    HW248382   3.506   3.963   5.773  2.1196 -1.3874  0.3221
15858SOL     OW48383   2.154   0.058   7.762 -0.5747 -0.4481 -0.2277
15858SOL    HW148384   2.128  -0.030   7.789 -1.9192  0.2509  0.9422
15858SOL    HW248385   2.235   0.075   7.809 -0.6927 -0.7980  0.1075
15859SOL     OW48386   1.531   7.189   6.050 -0.1332 -0.4937  0.1877
15859SOL    HW148387   1.530   7.227   6.138 -0.6586  0.3665 -0.1695
15859SOL    HW248388   1.624   7.181   6.028 -0.0069  0.0351  0.5155
15860SOL     OW48389   0.130   7.243   7.717  0.0253 -0.3520  0.1286
15860SOL    HW148390   0.044   7.267   7.751 -0.3899 -0.6478 -0.6811
15860SOL    HW248391   0.191   7.272   7.784 -0.6820  0.1576  0.5681
15861SOL     OW48392   7.060   6.888   1.951  0.1766  0.0001 -0.2590
15861SOL    HW148393   7.019   6.898   2.036  0.9452 -2.2831  0.4458
15861SOL    HW248394   6.991   6.909   1.888 -0.9617 -0.1672  0.9049
15862SOL     OW48395   2.404   6.821   1.592  0.1970  0.5045 -0.5511
15862SOL    HW148396   2.347   6.792   1.663  2.8979 -0.5001  1.3355
15862SOL    HW248397   2.397   6.752   1.526 -0.1279  0.0112 -0.0036
15863SOL     OW48398   5.697   3.187   1.826 -0.4610 -0.5875 -0.4241
15863SOL    HW148399   5.631   3.215   1.890 -3.2546 -2.4763 -2.2719
15863SOL    HW248400   5.708   3.094   1.843  1.0528 -0.4855 -0.7919
15864SOL     OW48401   3.463   7.553   6.714 -0.1697  0.1828 -0.1434
15864SOL    HW148402   3.558   7.554   6.730 -0.2959  1.4063  0.6801
15864SOL    HW248403   3.434   7.641   6.739 -1.2774  0.3891 -2.0106
15865SOL     OW48404   0.048   0.653   7.789  0.0438  0.0771 -0.5226
15865SOL    HW148405   0.013   0.656   7.878  1.7575 -0.2892  0.2144
15865SOL    HW248406   0.005   0.726   7.744 -1.7531 -0.4708  0.2245
15866SOL     OW48407   6.783   2.915   4.095 -0.2226  0.3977 -0.1968
15866SOL    HW148408   6.706   2.876   4.053  0.0504 -3.4096  2.2721
15866SOL    HW248409   6.857   2.884   4.043 -0.1264 -1.0818  0.7340
15867SOL     OW48410   0.009   7.511   0.246  0.0300 -0.5890  0.0577
15867SOL    HW148411  -0.046   7.523   0.169  1.2765  1.5179 -0.5862
15867SOL    HW248412   0.050   7.596   0.260  3.1279 -2.0073  0.4706
15868SOL     OW48413   3.331   6.952   7.169 -0.7194  0.3283  0.8637
15868SOL    HW148414   3.335   7.025   7.230 -2.2857  0.4082  0.9145
15868SOL    HW248415   3.251   6.966   7.119  0.6849  0.4637 -1.5057
15869SOL     OW48416   3.659   6.032   4.098  0.2511 -0.2191  0.0931
15869SOL    HW148417   3.736   5.986   4.131  0.5958 -0.3646 -0.8728
15869SOL    HW248418   3.636   6.094   4.168  0.8305 -0.6454  0.6716
15870SOL     OW48419   3.284   0.566   7.226 -0.4740  0.1537 -0.4081
15870SOL    HW148420   3.218   0.498   7.223  0.6775 -1.0365  0.4090
15870SOL    HW248421   3.286   0.602   7.137 -1.2993 -0.6727 -0.7661
15871SOL     OW48422   1.652   1.440   4.917 -0.6751 -0.3315  0.1373
15871SOL    HW148423   1.672   1.374   4.984  0.7153 -0.8371 -0.7378
15871SOL    HW248424   1.737   1.475   4.892 -1.3031  0.9615 -0.2783
15872SOL     OW48425   2.203   4.496   0.220 -0.0316 -0.5228 -0.3490
15872SOL    HW148426   2.249   4.479   0.303 -0.6370  1.0442  0.3457
15872SOL    HW248427   2.233   4.427   0.161 -0.6719 -2.6006  1.5976
15873SOL     OW48428   5.730   0.814   0.052 -0.1048 -0.1092 -0.4717
15873SOL    HW148429   5.785   0.885   0.086  1.9451 -1.6952 -0.2208
15873SOL    HW248430   5.657   0.858   0.008  0.1135  2.0903  1.1956
15874SOL     OW48431   6.562   4.791   0.405  0.0232  0.6595  0.2488
15874SOL    HW148432   6.646   4.756   0.433 -1.0178 -1.6446  0.8170
15874SOL    HW248433   6.583   4.868   0.353  2.6309 -1.1529 -1.6481
15875SOL     OW48434   0.574   6.218   2.644 -0.2337  1.1655 -0.4824
15875SOL    HW148435   0.581   6.123   2.656  0.4960  1.3548  0.8187
15875SOL    HW248436   0.663   6.245   2.618 -0.1779  1.6068  0.1418
15876SOL     OW48437   0.466   4.393   7.615  0.1409  0.2437  0.1556
15876SOL    HW148438   0.460   4.487   7.633 -0.1589  0.0339  1.2715
15876SOL    HW248439   0.420   4.381   7.532 -0.8204  0.9309  0.5719
15877SOL     OW48440   3.525   2.431   6.699  0.0357  0.2325 -0.0618
15877SOL    HW148441   3.504   2.358   6.642  0.6181  0.6098 -0.7825
15877SOL    HW248442   3.577   2.393   6.769  0.6144  0.0024 -0.6067
15878SOL     OW48443   0.280   5.292   1.803  0.4799  0.2135  0.2547
15878SOL    HW148444   0.244   5.325   1.721  0.0941  2.5544  1.3110
15878SOL    HW248445   0.211   5.235   1.838 -0.0405  0.5360 -0.2282
15879SOL     OW48446   7.450   5.020   7.613 -0.0687  0.5267  0.5207
15879SOL    HW148447   7.385   4.954   7.638 -1.3559  2.0857  1.4995
15879SOL    HW248448   7.467   5.003   7.521  2.4582 -3.4700  1.4952
15880SOL     OW48449   3.012   6.620   5.114 -0.2424 -0.4317  0.1968
15880SOL    HW148450   2.961   6.700   5.124 -0.1788 -0.1799 -1.2392
15880SOL    HW248451   2.947   6.551   5.101 -0.2748 -0.4432  0.4292
15881SOL     OW48452   5.311   7.088   1.092 -0.9804  0.7500  0.2620
15881SOL    HW148453   5.222   7.121   1.085 -1.4399 -0.4185  0.3183
15881SOL    HW248454   5.367   7.164   1.078 -1.9750  1.2283 -1.2426
15882SOL     OW48455   6.347   4.545   3.863 -0.2896  0.1607 -0.2808
15882SOL    HW148456   6.348   4.640   3.866  2.2609  0.1729  2.0694
15882SOL    HW248457   6.296   4.524   3.785 -1.6483  3.3920 -0.4171
15883SOL     OW48458   5.803   1.018   1.131  0.2717 -0.3612  0.3076
15883SOL    HW148459   5.891   0.987   1.152 -0.5578 -1.5391  2.2943
15883SOL    HW248460   5.805   1.112   1.151  0.2879 -0.9223  3.4682
15884SOL     OW48461   0.919   7.701   7.173  0.3948 -0.0846 -0.9031
15884SOL    HW148462   0.969   7.622   7.193  0.6007  0.2456 -0.0705
15884SOL    HW248463   0.852   7.672   7.111  2.0809 -0.3850 -2.6713
15885SOL     OW48464   5.011   3.258   7.758 -0.0720  0.0951 -0.3365
15885SOL    HW148465   4.981   3.340   7.797 -2.4923 -0.8747  0.0658
15885SOL    HW248466   4.968   3.255   7.673 -0.0297 -0.7643 -0.3345
15886SOL     OW48467   1.228   6.018   3.414 -0.2919  0.2582 -0.2945
15886SOL    HW148468   1.139   6.046   3.434  0.2905 -0.2832  4.0437
15886SOL    HW248469   1.222   5.922   3.407 -0.1151  0.2690 -0.6496
15887SOL     OW48470   7.867   3.918   2.290 -0.5487  0.1707 -0.1369
15887SOL    HW148471   7.817   3.925   2.208 -1.2494  1.0691  0.3339
15887SOL    HW248472   7.863   3.826   2.313  1.1346 -0.4293 -1.9839
15888SOL     OW48473   3.090   7.605   0.956 -0.2508 -0.2132 -0.2320
15888SOL    HW148474   3.170   7.556   0.936  0.8848  1.2729  0.5194
15888SOL    HW248475   3.022   7.538   0.963  1.3852 -1.8111  1.5396
15889SOL     OW48476   7.420   2.911   2.544  0.0858  0.3908 -0.2851
15889SOL    HW148477   7.480   2.945   2.611  0.4336 -0.2897 -0.2440
15889SOL    HW248478   7.376   2.989   2.510  1.6437  1.0176 -0.9525
15890SOL     OW48479   4.432   6.592   0.685  0.0066 -0.3801  0.0248
15890SOL    HW148480   4.453   6.506   0.721 -1.3924 -1.1214 -0.8267
15890SOL    HW248481   4.459   6.587   0.593 -0.6121 -0.1269 -0.1756
15891SOL     OW48482   1.285   0.085   1.914 -0.2620  0.2645 -0.6049
15891SOL    HW148483   1.294   0.073   1.820 -1.1664  2.3123 -1.0212
15891SOL    HW248484   1.306   0.177   1.928  1.1994 -0.3138  1.4233
15892SOL     OW48485   0.510   2.995   1.423  0.0839  0.2937  0.1019
15892SOL    HW148486   0.509   3.090   1.433  0.1787  0.1431  1.8770
15892SOL    HW248487   0.570   2.965   1.490 -2.2746 -1.2101  1.6828
15893SOL     OW48488   7.840   2.299   0.995 -0.0613 -0.3790 -0.1206
15893SOL    HW148489   7.763   2.341   0.958  0.0366 -0.6108 -0.5955
15893SOL    HW248490   7.895   2.278   0.920  0.7619  0.3479  0.2582
15894SOL     OW48491   3.268   7.809   0.790  0.1958  0.1087  0.0048
15894SOL    HW148492   3.315   7.845   0.865 -1.5468  0.4933  0.9756
15894SOL    HW248493   3.203   7.750   0.829 -0.7611  0.3225 -1.2089
15895SOL     OW48494   0.774   1.609   0.705  0.1614  0.5144 -0.3983
15895SOL    HW148495   0.768   1.685   0.763 -1.7907 -0.1372  0.3218
15895SOL    HW248496   0.812   1.540   0.760 -0.5398  0.2381 -0.2569
15896SOL     OW48497   2.122   4.090   7.665  0.5070 -0.0406  0.3481
15896SOL    HW148498   2.093   4.121   7.579 -0.6709 -0.0460  0.7329
15896SOL    HW248499   2.202   4.140   7.682  1.0159 -0.3503 -0.9343
15897SOL     OW48500   5.418   6.870   4.061  0.5709  0.4820 -0.0430
15897SOL    HW148501   5.370   6.941   4.103 -1.3409  0.9872 -2.8328
15897SOL    HW248502   5.442   6.904   3.975 -0.7702 -2.3103 -1.6598
15898SOL     OW48503   1.838   7.630   7.422 -0.7611 -0.5730 -0.2315
15898SOL    HW148504   1.818   7.610   7.513 -1.6304  0.0932 -0.2565
15898SOL    HW248505   1.928   7.600   7.409 -0.2454  0.3052  1.1453
15899SOL     OW48506   3.411   5.129   3.130  0.1062  0.3228  0.1248
15899SOL    HW148507   3.493   5.117   3.177  1.0081  0.2476 -1.4142
15899SOL    HW248508   3.406   5.054   3.070 -0.9093  0.5183 -0.0677
15900SOL     OW48509   4.848   3.815   5.200  1.3369  0.1544  0.0937
15900SOL    HW148510   4.881   3.786   5.285  1.1938 -0.4988 -0.0634
15900SOL    HW248511   4.920   3.864   5.161  0.8947  1.7692  1.2127
15901SOL     OW48512   0.688   4.770   2.530 -0.0992  0.5393 -0.1341
15901SOL    HW148513   0.680   4.865   2.543  0.9759  0.8390 -1.4335
15901SOL    HW248514   0.730   4.739   2.611 -2.2203  0.8324  1.1550
15902SOL     OW48515   1.458   6.031   1.466  0.7208  0.3359 -0.2638
15902SOL    HW148516   1.381   6.018   1.410  1.2564 -0.3574 -0.8551
15902SOL    HW248517   1.427   6.089   1.535 -0.8087 -1.2889  0.4841
15903SOL     OW48518   5.650   7.722   1.407  0.7283  0.3568 -0.0030
15903SOL    HW148519   5.708   7.796   1.395  1.2841  0.0785  0.9019
15903SOL    HW248520   5.595   7.722   1.328  0.9331  1.5209 -0.1625
15904SOL     OW48521   0.704   4.340   7.223  0.0569  0.5029 -0.0143
15904SOL    HW148522   0.715   4.372   7.312  0.1114  0.5608 -0.0412
15904SOL    HW248523   0.676   4.250   7.233  1.8351 -0.0900  0.0639
15905SOL     OW48524   7.857   0.615   5.174 -0.1782  0.2148 -0.8836
15905SOL    HW148525   7.868   0.625   5.269 -0.5409 -0.2004 -0.7948
15905SOL    HW248526   7.946   0.618   5.139  0.0959 -1.1976 -0.3676
15906SOL     OW48527   6.795   5.202   6.102  0.0343 -0.0616 -0.1872
15906SOL    HW148528   6.731   5.140   6.136 -1.2976  0.8133 -1.0032
15906SOL    HW248529   6.880   5.168   6.131 -0.9087  0.5378  3.9454
15907SOL     OW48530   4.309   6.306   7.698 -0.3460  0.4307 -0.0016
15907SOL    HW148531   4.295   6.384   7.644 -0.4255 -0.4296 -1.2623
15907SOL    HW248532   4.403   6.288   7.688  0.2718  1.8348  2.4000
15908SOL     OW48533   6.710   5.390   3.874 -0.5652 -0.2030 -0.2146
15908SOL    HW148534   6.717   5.478   3.910  0.5096 -1.0976  1.9286
15908SOL    HW248535   6.797   5.351   3.886 -1.3385 -1.9595  0.0519
15909SOL     OW48536   4.701   1.703   2.784  0.4442  0.2630  0.2436
15909SOL    HW148537   4.638   1.701   2.856  0.3716  1.1325  0.2253
15909SOL    HW248538   4.746   1.619   2.788 -1.8383 -1.1195 -0.7662
15910SOL     OW48539   0.131   7.080   7.250 -0.6620  0.1330 -0.0201
15910SOL    HW148540   0.122   7.065   7.344 -3.1427 -0.0182 -0.2076
15910SOL    HW248541   0.110   6.996   7.209  2.3403 -0.3726 -0.7388
15911SOL     OW48542   1.813   0.178   1.915 -0.2991 -0.3259 -0.0474
15911SOL    HW148543   1.848   0.095   1.948 -0.8878 -0.5123  0.1170
15911SOL    HW248544   1.812   0.167   1.820 -0.5563 -0.5811 -0.0161
15912SOL     OW48545   4.695   0.476   1.309 -0.5265 -0.3935  0.0489
15912SOL    HW148546   4.663   0.414   1.244 -0.3079  1.3743 -1.8491
15912SOL    HW248547   4.648   0.557   1.290  0.9366  0.7041  0.8628
15913SOL     OW48548   1.669   4.999   1.699  0.0394 -0.1271 -0.2429
15913SOL    HW148549   1.588   5.044   1.673 -0.6707 -0.7313  0.7932
15913SOL    HW248550   1.638   4.921   1.746  1.2046 -2.0011 -2.3914
15914SOL     OW48551   7.558   7.649   5.278 -0.2292  0.3143  0.1082
15914SOL    HW148552   7.568   7.700   5.358 -1.5974  0.3032  0.3146
15914SOL    HW248553   7.521   7.565   5.308  2.3947 -1.0282 -0.1616
15915SOL     OW48554   0.985   6.527   1.533  0.5499  0.4064  0.0987
15915SOL    HW148555   0.921   6.584   1.576 -0.3967 -1.6456  1.6113
15915SOL    HW248556   0.965   6.534   1.440 -0.0957  1.8659  0.3283
15916SOL     OW48557   4.578   6.374   4.019  0.0295 -0.6168  0.5432
15916SOL    HW148558   4.514   6.311   3.985  0.3377 -1.9975  2.3671
15916SOL    HW248559   4.532   6.457   4.017 -0.2449 -0.7190 -2.3595
15917SOL     OW48560   4.539   0.702   0.523 -0.7560 -0.1726  0.3816
15917SOL    HW148561   4.629   0.724   0.547  0.0719 -1.0487 -1.6327
15917SOL    HW248562   4.534   0.607   0.534 -0.9981 -0.3053 -0.7511
15918SOL     OW48563   5.436   4.465   7.243 -0.0918 -0.1280  0.2172
15918SOL    HW148564   5.356   4.413   7.246  0.3380 -0.7975  0.3621
15918SOL    HW248565   5.507   4.400   7.249  0.4745  0.3603 -0.9017
15919SOL     OW48566   7.969   3.974   0.394  0.1084 -0.7298 -0.4038
15919SOL    HW148567   7.987   3.897   0.341  0.8380 -1.5287  0.9488
15919SOL    HW248568   7.949   4.043   0.330  0.7021 -1.7055 -1.6868
15920SOL     OW48569   2.759   1.038   0.451  0.0729 -0.5244  0.4855
15920SOL    HW148570   2.813   0.969   0.491 -0.0609  0.1935  1.9837
15920SOL    HW248571   2.793   1.046   0.362  0.5771 -2.0077  0.5138
15921SOL     OW48572   5.684   0.263   0.711 -0.1558  0.0628 -0.5541
15921SOL    HW148573   5.688   0.227   0.622  0.5034 -0.3718 -0.3531
15921SOL    HW248574   5.634   0.345   0.701 -3.3403 -1.7132 -0.7304
15922SOL     OW48575   2.569   0.044   0.503 -0.1439 -0.2241 -0.1872
15922SOL    HW148576   2.475   0.057   0.489 -0.2622 -1.5462 -0.7642
15922SOL    HW248577   2.574  -0.028   0.566  0.4896  0.3281  0.4122
15923SOL     OW48578   3.760   6.163   6.308  0.1205 -0.7843  0.2532
15923SOL    HW148579   3.765   6.113   6.226  1.7647  0.1925 -0.3035
15923SOL    HW248580   3.679   6.134   6.350 -0.8389 -1.2207 -1.7781
15924SOL     OW48581   1.773   6.658   0.575 -0.3346 -0.2081 -0.2228
15924SOL    HW148582   1.718   6.580   0.576 -0.5185 -0.1223 -1.7410
15924SOL    HW248583   1.823   6.652   0.494  0.0780  0.9582 -0.0785
15925SOL     OW48584   5.007   3.313   1.207 -0.2301 -0.2158 -0.1517
15925SOL    HW148585   5.008   3.248   1.278 -2.1933 -1.2402 -1.0029
15925SOL    HW248586   4.930   3.367   1.225  0.0246  0.3758 -0.7808
15926SOL     OW48587   1.408   6.909   1.636  0.7583  0.1893 -0.2544
15926SOL    HW148588   1.379   6.926   1.547  0.0766 -0.6015 -0.1999
15926SOL    HW248589   1.500   6.934   1.637  0.7527  0.2772 -1.1517
15927SOL     OW48590   5.443   7.925   4.135  0.3047  0.1959 -0.4252
15927SOL    HW148591   5.482   8.011   4.126 -1.5645  1.1029 -0.3537
15927SOL    HW248592   5.429   7.895   4.045 -0.0604  0.4594 -0.4566
15928SOL     OW48593   2.722   5.278   3.437  0.1860  0.5552  0.2558
15928SOL    HW148594   2.668   5.357   3.425 -0.4462  0.1095  0.0675
15928SOL    HW248595   2.794   5.288   3.374  0.1050  0.9805  0.2294
15929SOL     OW48596   1.647   3.563   3.203 -0.3917  0.1669 -0.4668
15929SOL    HW148597   1.584   3.620   3.159 -0.2366  0.8058  0.1324
15929SOL    HW248598   1.673   3.501   3.135 -1.4063  0.1038 -0.8156
15930SOL     OW48599   3.600   4.875   1.971 -0.1422  0.0686 -0.4671
15930SOL    HW148600   3.633   4.935   2.038 -0.3170  0.8031 -1.0231
15930SOL    HW248601   3.511   4.906   1.953  0.2839  0.5410 -1.8031
15931SOL     OW48602   5.588   5.832   6.154  0.2472 -0.3481 -0.2140
15931SOL    HW148603   5.545   5.853   6.236  1.0849  0.9141 -0.0659
15931SOL    HW248604   5.673   5.796   6.179  0.1846 -0.7248 -0.5256
15932SOL     OW48605   0.628   3.144   3.615  0.8142 -0.3833  0.0493
15932SOL    HW148606   0.605   3.235   3.597 -0.0420 -0.6090 -0.0664
15932SOL    HW248607   0.617   3.100   3.531  1.6614 -0.5175  0.0016
15933SOL     OW48608   0.813   6.472   5.306 -0.6456 -0.0478 -0.5089
15933SOL    HW148609   0.835   6.405   5.371  0.0495 -0.3866 -1.0807
15933SOL    HW248610   0.720   6.459   5.289 -0.9323  0.2935  0.6918
15934SOL     OW48611   2.745   7.434   1.781 -0.1591 -0.4782 -0.1512
15934SOL    HW148612   2.758   7.342   1.760  1.9558  0.0474 -1.4236
15934SOL    HW248613   2.698   7.469   1.705 -0.2014 -0.3165 -0.0515
15935SOL     OW48614   5.208   0.407   5.649 -0.2126  0.2359  0.0765
15935SOL    HW148615   5.139   0.417   5.582 -0.5626 -0.8391  0.2543
15935SOL    HW248616   5.170   0.348   5.713  1.0549 -0.7784 -0.0680
15936SOL     OW48617   6.298   4.938   7.787  0.1691 -0.4522 -0.0659
15936SOL    HW148618   6.357   4.990   7.842 -1.4627 -1.7831  3.2047
15936SOL    HW248619   6.232   5.001   7.758  1.6342  0.4938 -1.5544
15937SOL     OW48620   1.597   5.903   7.543 -0.3502 -0.3992  0.0737
15937SOL    HW148621   1.544   5.940   7.472 -1.2656  0.0593  0.9702
15937SOL    HW248622   1.546   5.921   7.622  1.2667  0.2970  0.9952
15938SOL     OW48623   3.727   2.409   0.074  0.1586  0.2696 -0.3581
15938SOL    HW148624   3.722   2.481   0.011  0.3147  0.7144  0.1277
15938SOL    HW248625   3.646   2.416   0.125  0.2503  0.2011 -0.2028
15939SOL     OW48626   5.126   3.721   2.900 -1.0302 -0.6376 -0.3558
15939SOL    HW148627   5.140   3.628   2.920 -1.0075 -0.4561  0.5344
15939SOL    HW248628   5.195   3.742   2.837  1.0102 -0.4761  1.8056
15940SOL     OW48629   6.021   7.335   3.865  0.2154 -0.7480 -0.4577
15940SOL    HW148630   5.982   7.272   3.926  1.5099 -0.5138  0.6641
15940SOL    HW248631   6.108   7.300   3.846  0.3270 -0.1316 -1.1298
15941SOL     OW48632   2.923   7.345   0.509 -0.0595  0.3013  0.0212
15941SOL    HW148633   2.859   7.379   0.446 -0.4950  2.1430  1.3598
15941SOL    HW248634   2.883   7.265   0.542  0.4854 -1.0956 -2.4444
15942SOL     OW48635   4.389   2.345   5.885  0.7671  0.2037  0.1837
15942SOL    HW148636   4.406   2.346   5.979 -0.3689  0.2766  0.4032
15942SOL    HW248637   4.429   2.426   5.853  0.4222  0.6029  0.7447
15943SOL     OW48638   3.855   3.878   1.260 -0.0732 -0.4161 -0.0386
15943SOL    HW148639   3.781   3.929   1.229  0.3331  0.3462  0.2296
15943SOL    HW248640   3.930   3.936   1.252  0.7477 -1.6223 -1.5879
15944SOL     OW48641   1.797   7.328   0.199 -0.3133 -0.1477 -0.2644
15944SOL    HW148642   1.842   7.379   0.267 -2.9911  2.8570 -0.5221
15944SOL    HW248643   1.771   7.247   0.244  0.4759  0.4848  1.4312
15945SOL     OW48644   2.317   3.524   2.500 -0.2874 -0.2847  0.1212
15945SOL    HW148645   2.253   3.470   2.546 -1.0600 -0.6051 -1.2637
15945SOL    HW248646   2.345   3.588   2.565 -1.3371 -0.7102  1.0328
15946SOL     OW48647   0.341   6.464   3.212 -0.0371  0.0889 -0.1823
15946SOL    HW148648   0.348   6.550   3.170 -0.4079  0.5211  0.6261
15946SOL    HW248649   0.278   6.416   3.157 -2.2229  1.3943  1.0369
15947SOL     OW48650   1.909   6.724   2.091 -0.0618  0.3521 -0.1869
15947SOL    HW148651   1.890   6.777   2.013 -1.8837 -0.5487 -0.4122
15947SOL    HW248652   1.992   6.757   2.123  0.1342  1.5672 -1.8278
15948SOL     OW48653   2.239   6.052   1.539  0.4672 -0.0182  0.1407
15948SOL    HW148654   2.249   6.126   1.599  0.4824  0.3494 -0.3086
15948SOL    HW248655   2.148   6.057   1.510 -0.4627 -1.9991  2.4559
15949SOL     OW48656   5.697   2.976   5.447  0.0553 -0.3788  0.1237
15949SOL    HW148657   5.678   3.063   5.481 -0.3286 -0.5747  0.4204
15949SOL    HW248658   5.628   2.960   5.382  0.8904  0.0703 -0.8992
15950SOL     OW48659   6.795   4.485   3.415  0.2818 -0.0056  0.1898
15950SOL    HW148660   6.884   4.473   3.381  0.1388 -0.4249 -0.0414
15950SOL    HW248661   6.738   4.450   3.346 -0.0436 -0.1894  0.5495
15951SOL     OW48662   3.347   7.358   4.230 -0.0970  0.2482  0.3496
15951SOL    HW148663   3.337   7.436   4.285 -2.0344  0.8288 -0.7382
15951SOL    HW248664   3.284   7.296   4.266 -0.5346  0.2104 -0.4631
15952SOL     OW48665   3.098   6.392   7.337  0.5420  0.5453  0.3117
15952SOL    HW148666   3.108   6.368   7.245  0.8973  1.4844  0.0984
15952SOL    HW248667   3.017   6.348   7.365 -0.3165  1.3571 -0.8264
15953SOL     OW48668   7.270   5.406   4.565 -0.6257  0.1430 -0.0561
15953SOL    HW148669   7.350   5.371   4.604 -0.7273  0.1422  0.1542
15953SOL    HW248670   7.236   5.334   4.512 -2.0592 -0.9375  2.1579
15954SOL     OW48671   6.403   5.943   7.587  0.5697 -0.8151  0.3518
15954SOL    HW148672   6.432   5.939   7.496  1.9875 -1.8432  0.8177
15954SOL    HW248673   6.483   5.956   7.637 -0.4072  1.9271  1.3555
15955SOL     OW48674   3.165   1.442   7.524 -0.2018 -0.5386  0.2286
15955SOL    HW148675   3.153   1.377   7.594 -0.8171  0.0166  0.6516
15955SOL    HW248676   3.260   1.447   7.513 -0.0135  0.1932  1.8457
15956SOL     OW48677   5.483   0.105   1.149  0.5742  0.6839 -0.0014
15956SOL    HW148678   5.500   0.131   1.058  0.2090 -1.7671 -0.8655
15956SOL    HW248679   5.388   0.109   1.158  0.3675 -1.3695 -0.5980
15957SOL     OW48680   1.257   6.023   2.308  0.1653 -0.3876  0.4438
15957SOL    HW148681   1.215   6.087   2.365 -0.1361 -1.1789  1.1458
15957SOL    HW248682   1.348   6.050   2.304  0.0149  0.1506  0.6392
15958SOL     OW48683   6.510   5.933   7.315  0.0656 -0.0686  0.5407
15958SOL    HW148684   6.440   5.955   7.254 -0.3105  2.8803  1.8545
15958SOL    HW248685   6.578   5.893   7.261 -0.9176  0.8800 -1.4967
15959SOL     OW48686   0.732   4.723   6.401 -0.1427 -0.2684  0.1166
15959SOL    HW148687   0.694   4.694   6.318  1.4091 -0.7486 -0.4471
15959SOL    HW248688   0.690   4.666   6.467 -0.6783 -0.5280 -0.4343
15960SOL     OW48689   5.244   2.363   5.071  0.5954 -0.0365  0.6022
15960SOL    HW148690   5.263   2.408   4.988 -1.8012 -1.2287 -0.7039
15960SOL    HW248691   5.303   2.287   5.071 -0.5475 -0.9925 -0.9497
15961SOL     OW48692   6.321   5.925   1.320  0.2087  0.4493 -0.0228
15961SOL    HW148693   6.293   5.889   1.236  0.7402 -0.0817  0.0206
15961SOL    HW248694   6.416   5.911   1.323  0.0904 -0.3326  1.0154
15962SOL     OW48695   3.349   5.593   1.355 -0.2555  0.4199  1.0617
15962SOL    HW148696   3.441   5.612   1.375 -0.0277 -0.2392  0.6507
15962SOL    HW248697   3.348   5.500   1.333 -0.8479  0.6426  0.0945
15963SOL     OW48698   3.244   4.087   6.735  0.2440  0.6466  0.4799
15963SOL    HW148699   3.283   4.013   6.688  1.9546  0.9797  1.2985
15963SOL    HW248700   3.202   4.047   6.811  2.7759  0.5909  1.9567
15964SOL     OW48701   7.334   0.442   4.289  0.4982  0.0292 -0.4319
15964SOL    HW148702   7.257   0.475   4.335  0.8637  2.0034 -1.1395
15964SOL    HW248703   7.390   0.519   4.278  0.7086 -0.4745 -3.6038
15965SOL     OW48704   5.801   3.918   3.069 -0.8832 -0.7154 -0.1689
15965SOL    HW148705   5.851   3.874   3.137 -0.4174 -0.1511 -0.1429
15965SOL    HW248706   5.712   3.885   3.079 -0.0222 -4.2025 -2.1790
15966SOL     OW48707   0.755   3.465   4.637  0.2140 -0.2935 -1.2066
15966SOL    HW148708   0.687   3.516   4.681  1.3572  0.5851 -0.4004
15966SOL    HW248709   0.713   3.435   4.556 -0.4032  2.3011 -1.9652
15967SOL     OW48710   4.681   0.184   6.016  0.0991 -0.1884  0.2977
15967SOL    HW148711   4.602   0.232   6.042  0.0932 -0.4095  0.6896
15967SOL    HW248712   4.736   0.250   5.973  0.7732  0.5595  2.1973
15968SOL     OW48713   6.229   7.188   2.916 -0.0272 -0.0292  0.0215
15968SOL    HW148714   6.193   7.273   2.943  0.3778  0.1219  0.0849
15968SOL    HW248715   6.175   7.124   2.963  0.5537  0.2275  1.0719
15969SOL     OW48716   7.364   0.942   6.285 -0.3120 -0.1697  0.4616
15969SOL    HW148717   7.430   0.996   6.330 -0.9764  1.1373 -0.0667
15969SOL    HW248718   7.280   0.981   6.309 -0.7003  0.6355 -1.8873
15970SOL     OW48719   4.113   4.503   7.673  0.0433  0.2173  0.1558
15970SOL    HW148720   4.127   4.597   7.661  0.5759  0.1760  0.4293
15970SOL    HW248721   4.198   4.469   7.699 -0.1191 -0.3614 -0.0472
15971SOL     OW48722   7.814   2.598   1.245  0.4193  0.0009 -0.2132
15971SOL    HW148723   7.797   2.665   1.311 -0.2949 -1.9794  1.7544
15971SOL    HW248724   7.728   2.558   1.230  0.8709 -0.6353 -1.1607
15972SOL     OW48725   4.771   2.012   4.906 -0.2621 -0.1195 -0.0510
15972SOL    HW148726   4.712   2.077   4.868 -1.0746 -0.3089  0.8483
15972SOL    HW248727   4.859   2.047   4.890 -0.6793  1.9691  1.6668
15973SOL     OW48728   0.413   5.188   4.044 -0.0474  0.2926  0.2006
15973SOL    HW148729   0.385   5.116   3.988  0.2898  1.3965 -1.4681
15973SOL    HW248730   0.493   5.157   4.086 -1.1891 -1.1689  1.4201
15974SOL     OW48731   4.247   7.269   3.721  0.2118 -0.4440  0.5181
15974SOL    HW148732   4.214   7.349   3.680  0.5783 -0.6103 -0.1179
15974SOL    HW248733   4.341   7.284   3.730  0.5481 -1.3846 -1.0209
15975SOL     OW48734   0.325   2.995   6.679  0.1359 -0.6386 -0.5276
15975SOL    HW148735   0.344   3.051   6.604 -0.5327 -0.5533 -0.6414
15975SOL    HW248736   0.343   2.906   6.647 -1.3477 -0.7225 -1.2140
15976SOL     OW48737   7.588   1.618   3.446 -0.2663  0.0049  0.2181
15976SOL    HW148738   7.499   1.649   3.459 -0.0180  0.4415  0.9303
15976SOL    HW248739   7.643   1.694   3.465  0.2097  0.4104 -2.3745
15977SOL     OW48740   7.129   7.913   7.405  0.7091 -0.5527  0.0867
15977SOL    HW148741   7.170   7.999   7.393  0.0172  0.2024  2.4736
15977SOL    HW248742   7.037   7.927   7.385  0.2425 -0.1868  2.1826
15978SOL     OW48743   4.377   7.735   2.870 -0.2627  0.2585 -0.7225
15978SOL    HW148744   4.418   7.656   2.904  1.3343 -0.1913 -3.3497
15978SOL    HW248745   4.420   7.750   2.786 -1.5930  3.0747 -1.0399
15979SOL     OW48746   7.079   5.834   2.832 -0.4399 -0.1036 -0.9458
15979SOL    HW148747   7.062   5.926   2.809 -0.8876  0.9934  2.9991
15979SOL    HW248748   7.174   5.829   2.841 -0.2848 -0.4751 -2.5557
15980SOL     OW48749   3.189   5.238   0.050  0.6247 -0.0969 -0.1121
15980SOL    HW148750   3.150   5.180  -0.016  0.2039 -0.7748  0.7183
15980SOL    HW248751   3.169   5.327   0.018 -1.3311 -0.4065  0.1020
15981SOL     OW48752   2.184   6.713   4.370  0.3931  0.0663 -0.1210
15981SOL    HW148753   2.277   6.695   4.383  0.5738  1.5718  0.8798
15981SOL    HW248754   2.181   6.803   4.335 -0.6733 -0.1133 -0.5447
15982SOL     OW48755   5.119   6.149   7.947  0.4069  0.2902  0.2249
15982SOL    HW148756   5.036   6.185   7.916  0.1531 -1.3517 -1.0979
15982SOL    HW248757   5.105   6.055   7.951  2.8870 -0.3291 -2.4318
15983SOL     OW48758   1.359   1.788   3.511  0.1152  0.4245 -0.2759
15983SOL    HW148759   1.384   1.720   3.449  1.9653  1.0272 -0.2369
15983SOL    HW248760   1.283   1.752   3.557  0.2703 -1.0655 -1.1282
15984SOL     OW48761   6.674   7.777   6.439 -0.0997  0.1887 -0.0820
15984SOL    HW148762   6.578   7.769   6.439 -0.2101  1.4051 -0.1901
15984SOL    HW248763   6.704   7.701   6.388 -1.0685  0.4314 -1.0646
15985SOL     OW48764   5.323   4.719   7.030  0.7364  0.1503 -0.1274
15985SOL    HW148765   5.416   4.712   7.008  0.2465  0.3522 -2.4671
15985SOL    HW248766   5.278   4.668   6.962 -0.9935  1.8073 -0.3056
15986SOL     OW48767   3.530   0.063   7.340  0.1447  0.3416  0.4729
15986SOL    HW148768   3.536   0.137   7.280 -1.9276  1.4099  1.4729
15986SOL    HW248769   3.580  -0.007   7.297  0.2498  1.5951 -1.5896
15987SOL     OW48770   7.025   5.117   2.159  0.2584 -0.5884 -0.5753
15987SOL    HW148771   7.096   5.085   2.215  0.9582 -0.3638 -1.3200
15987SOL    HW248772   7.046   5.209   2.144 -1.3733  0.1058  0.9847
15988SOL     OW48773   6.921   0.290   3.446  0.3220 -0.0355  0.0726
15988SOL    HW148774   6.970   0.314   3.367 -0.8390 -2.6651 -1.5792
15988SOL    HW248775   6.832   0.321   3.429  0.3902  0.7583  1.0785
15989SOL     OW48776   5.454   0.893   7.609 -0.0162 -0.5798  0.3403
15989SOL    HW148777   5.372   0.922   7.648  0.9043  1.4419  0.9201
15989SOL    HW248778   5.522   0.935   7.662  1.3705 -1.3165 -0.7775
15990SOL     OW48779   2.015   5.221   1.720 -0.0259 -0.0790 -0.3737
15990SOL    HW148780   2.019   5.307   1.677 -1.0981  0.0435 -0.2469
15990SOL    HW248781   2.095   5.217   1.772  0.1222  0.7764 -0.5157
15991SOL     OW48782   7.681   1.228   4.074 -0.5084  0.2965 -0.1560
15991SOL    HW148783   7.643   1.316   4.067  0.9815  1.2787  2.4670
15991SOL    HW248784   7.772   1.244   4.098 -0.3339 -1.9658  0.9085
15992SOL     OW48785   5.704   3.697   0.628  0.1570 -0.0367 -0.4152
15992SOL    HW148786   5.755   3.706   0.548  1.4967  0.0722  0.4274
15992SOL    HW248787   5.764   3.659   0.691 -1.1171 -0.8954  0.3277
15993SOL     OW48788   0.321   3.469   1.326 -0.0546  0.1140 -0.4533
15993SOL    HW148789   0.284   3.546   1.370  1.2334  0.1119  0.7210
15993SOL    HW248790   0.336   3.406   1.397 -0.8422 -1.1446 -1.3590
15994SOL     OW48791   6.121   4.329   7.795  0.0752  0.1330 -0.4738
15994SOL    HW148792   6.199   4.289   7.834 -0.0538  1.8902  1.7485
15994SOL    HW248793   6.109   4.281   7.712  2.5631 -1.2386 -0.1438
15995SOL     OW48794   0.552   3.048   4.957 -0.6441 -0.1522  0.4387
15995SOL    HW148795   0.461   3.069   4.935 -0.8829  0.0499  1.5485
15995SOL    HW248796   0.553   3.042   5.053  0.6898  0.6623  0.5023
15996SOL     OW48797   5.942   1.097   7.481 -0.5898  0.2718 -0.5960
15996SOL    HW148798   5.991   1.066   7.558 -3.2692 -1.9821  0.3741
15996SOL    HW248799   5.864   1.139   7.517 -0.2677  2.3014 -2.1074
15997SOL     OW48800   4.362   4.781   1.991 -0.2180  0.7755 -0.1251
15997SOL    HW148801   4.283   4.737   2.022 -0.1384  1.3189  0.8909
15997SOL    HW248802   4.432   4.750   2.048  0.0747  1.2343 -0.2219
15998SOL     OW48803   7.595   5.919   1.220  0.4118  0.5452  0.5483
15998SOL    HW148804   7.571   5.831   1.249 -1.0629  0.3619 -1.0786
15998SOL    HW248805   7.620   5.909   1.129  4.0506  1.2502  1.2986
15999SOL     OW48806   0.788   1.315   1.317 -0.1767  0.0054 -0.2513
15999SOL    HW148807   0.807   1.298   1.410 -0.5260 -1.5416 -0.4274
15999SOL    HW248808   0.694   1.299   1.309 -0.3920  1.3930 -0.6343
16000SOL     OW48809   0.278   0.134   4.042  0.0598  0.1209  0.2038
16000SOL    HW148810   0.319   0.156   4.125  0.3230  0.8383 -0.1105
16000SOL    HW248811   0.276   0.038   4.041 -0.1734  0.1073  1.1425
16001SOL     OW48812   6.151   1.042   0.143 -0.1252 -0.1824 -0.1671
16001SOL    HW148813   6.200   0.992   0.208  1.4831  1.6981  0.1243
16001SOL    HW248814   6.201   1.032   0.062 -0.1137  0.4769 -0.2470
16002SOL     OW48815   7.605   1.508   7.875  0.1912  0.7488  0.0232
16002SOL    HW148816   7.691   1.476   7.849  0.3338 -1.0716  2.3799
16002SOL    HW248817   7.559   1.523   7.792  1.9654 -0.6030 -1.2846
16003SOL     OW48818   1.694   2.746   3.541 -0.2103 -0.6394  0.2896
16003SOL    HW148819   1.685   2.753   3.636  1.6015  0.5096  0.4297
16003SOL    HW248820   1.686   2.836   3.509 -1.8219 -1.1179 -0.7973
16004SOL     OW48821   4.833   5.219   0.630 -0.7260  0.2036 -0.1258
16004SOL    HW148822   4.789   5.304   0.641 -2.2090 -0.6506  0.8937
16004SOL    HW248823   4.812   5.193   0.541  0.4226  1.2453 -0.7358
16005SOL     OW48824   5.431   7.075   2.251  0.2887  0.0490 -0.0484
16005SOL    HW148825   5.468   7.065   2.164 -0.4309  2.0414 -0.6525
16005SOL    HW248826   5.500   7.121   2.301 -0.3492  1.5176 -0.4548
16006SOL     OW48827   0.503   7.248   5.027 -0.3275 -0.0588 -0.1589
16006SOL    HW148828   0.532   7.319   5.083 -0.6536 -0.3010  0.3238
16006SOL    HW248829   0.478   7.290   4.945 -3.2275  0.7877  1.0369
16007SOL     OW48830   7.474   3.147   3.483 -0.1832  0.2896 -0.3428
16007SOL    HW148831   7.452   3.099   3.562 -1.4057 -0.0404 -0.8616
16007SOL    HW248832   7.464   3.240   3.507  1.0492  0.2647  0.3296
16008SOL     OW48833   3.821   7.837   5.565  0.3557  0.1247  0.2669
16008SOL    HW148834   3.728   7.829   5.590  0.3048  1.1333  0.4297
16008SOL    HW248835   3.857   7.899   5.629  1.5578 -1.5166  1.2742
16009SOL     OW48836   3.913   6.234   1.681  0.1058 -0.3084  0.2815
16009SOL    HW148837   3.928   6.176   1.607  1.3860  0.1903  0.1175
16009SOL    HW248838   3.954   6.317   1.656  1.5935 -0.4520  1.9511
16010SOL     OW48839   2.955   5.490   1.254 -0.4010 -0.2995 -0.1382
16010SOL    HW148840   3.007   5.445   1.321 -0.4184 -1.6991 -1.0198
16010SOL    HW248841   2.898   5.549   1.303  0.6629 -0.1402  0.9687
16011SOL     OW48842   2.432   4.976   4.345  0.1537 -0.1620  0.2754
16011SOL    HW148843   2.433   5.055   4.400 -0.4763 -1.0048  1.5474
16011SOL    HW248844   2.341   4.967   4.318  0.4537  0.2185 -0.9009
16012SOL     OW48845   7.155   0.900   5.931  0.3583 -0.2613 -0.1078
16012SOL    HW148846   7.210   0.945   5.995 -0.4569  2.3301 -1.0950
16012SOL    HW248847   7.087   0.857   5.984  2.2758 -2.1128  0.9933
16013SOL     OW48848   1.938   0.782   4.889  0.2833 -0.1926  0.0056
16013SOL    HW148849   1.865   0.725   4.867 -0.4899  1.1235 -0.9587
16013SOL    HW248850   1.974   0.745   4.969 -0.8058 -1.4477 -0.0569
16014SOL     OW48851   2.964   5.697   2.786  0.0342 -0.2046 -0.2613
16014SOL    HW148852   2.965   5.627   2.851  0.9336  0.2527  0.2465
16014SOL    HW248853   2.978   5.777   2.838 -1.2876  0.4035 -0.7814
16015SOL     OW48854   5.541   1.706   3.111  0.3489  0.3084  0.1450
16015SOL    HW148855   5.467   1.676   3.165 -0.3287 -1.4159 -1.6149
16015SOL    HW248856   5.609   1.640   3.126  0.4021  0.2011 -0.5553
16016SOL     OW48857   7.277   5.683   0.871  0.4405 -0.1361  0.1456
16016SOL    HW148858   7.243   5.691   0.960 -1.4053  2.2146 -0.6620
16016SOL    HW248859   7.205   5.645   0.820  1.8229 -2.4431 -0.2334
16017SOL     OW48860   3.384   0.300   3.173 -0.0626 -0.1085  0.6937
16017SOL    HW148861   3.463   0.332   3.215 -0.3004  0.0092  1.0546
16017SOL    HW248862   3.394   0.326   3.081  0.8691 -1.1547  0.4745
16018SOL     OW48863   1.639   3.686   7.324 -0.1502  0.0708  0.4616
16018SOL    HW148864   1.640   3.752   7.255 -0.1720  0.5088  0.8738
16018SOL    HW248865   1.702   3.619   7.295  0.4800  0.6716  0.4282
16019SOL     OW48866   2.986   1.944   6.027 -0.3394  0.2786  0.3370
16019SOL    HW148867   3.004   1.889   5.950 -1.3085 -1.0349  0.9981
16019SOL    HW248868   2.964   1.881   6.096 -2.0716  1.5161  0.9790
16020SOL     OW48869   4.585   4.984   4.527  0.1783  0.0113  0.1676
16020SOL    HW148870   4.641   5.032   4.588 -1.1842  0.9460  0.7315
16020SOL    HW248871   4.599   5.026   4.443 -0.4611  0.9810  0.5216
16021SOL     OW48872   0.688   1.019   6.450 -0.1442  0.5866 -0.1342
16021SOL    HW148873   0.769   1.050   6.410 -0.2068 -1.1349 -1.7502
16021SOL    HW248874   0.716   0.952   6.512 -0.3031  0.2941 -0.3764
16022SOL     OW48875   1.908   3.323   4.337  0.7965  0.2108 -0.5524
16022SOL    HW148876   1.919   3.230   4.321 -2.9326 -0.3742 -0.6406
16022SOL    HW248877   1.925   3.333   4.431 -2.8184 -1.5312  0.4671
16023SOL     OW48878   6.039   4.316   2.957 -0.0622 -0.4146  0.1060
16023SOL    HW148879   6.025   4.376   3.030  1.6567 -0.8612  0.8551
16023SOL    HW248880   6.076   4.237   2.997 -1.0908 -1.5041 -1.0071
16024SOL     OW48881   6.816   0.078   1.041 -0.0484  0.5359  0.0721
16024SOL    HW148882   6.769   0.035   1.112  0.3867 -0.6305 -0.3212
16024SOL    HW248883   6.867   0.148   1.084  0.1698 -0.1163  0.9028
16025SOL     OW48884   4.631   0.986   0.755  0.4205  0.1630 -0.3044
16025SOL    HW148885   4.552   0.932   0.749  0.6425 -0.3128  0.8703
16025SOL    HW248886   4.599   1.076   0.747 -0.2880 -0.0089  0.4600
16026SOL     OW48887   3.083   5.675   6.658 -0.6135 -0.1291  0.4057
16026SOL    HW148888   3.012   5.684   6.722 -0.6117 -0.0695  0.3990
16026SOL    HW248889   3.160   5.712   6.702 -0.4589 -0.7111  0.6302
16027SOL     OW48890   3.557   4.939   7.059 -0.4565 -0.1915 -0.0085
16027SOL    HW148891   3.513   5.005   7.114  1.0481  1.6898 -0.9345
16027SOL    HW248892   3.486   4.897   7.011 -1.4567  1.0324  0.3299
16028SOL     OW48893   2.249   1.648   0.585  0.3717  0.3600 -0.5403
16028SOL    HW148894   2.258   1.743   0.578 -0.7618  0.4665 -0.8292
16028SOL    HW248895   2.338   1.615   0.581  0.9634  1.5131  1.3723
16029SOL     OW48896   0.272   3.619   0.912 -0.7048  0.2661 -0.2697
16029SOL    HW148897   0.296   3.676   0.985 -0.1259  0.8989 -0.9356
16029SOL    HW248898   0.313   3.535   0.932 -1.7957 -0.0274  0.8558
16030SOL     OW48899   2.701   1.482   5.841 -0.2155 -0.2850  0.2848
16030SOL    HW148900   2.675   1.393   5.818  0.4107 -0.4677  0.2722
16030SOL    HW248901   2.767   1.506   5.776 -1.9244  1.0201 -1.0575
16031SOL     OW48902   0.219   3.594   4.942  0.3991 -0.4431 -0.0692
16031SOL    HW148903   0.215   3.532   5.015 -2.4568 -0.8643 -0.4616
16031SOL    HW248904   0.160   3.665   4.967  2.7685  1.6973 -0.1212
16032SOL     OW48905   2.407   3.464   3.375  0.0574 -0.2716 -0.0749
16032SOL    HW148906   2.391   3.502   3.289 -0.1182 -1.9760 -0.8253
16032SOL    HW248907   2.434   3.538   3.429 -0.4401  0.9312 -1.4247
16033SOL     OW48908   7.100   2.610   6.571  0.4122  0.2828  0.2633
16033SOL    HW148909   7.102   2.553   6.647  0.0324 -1.3419 -0.9038
16033SOL    HW248910   7.159   2.570   6.508 -0.6220  0.5957 -0.9655
16034SOL     OW48911   5.990   0.447   7.184  0.2792  0.4645 -0.5715
16034SOL    HW148912   5.979   0.491   7.100  0.9820 -4.1741 -3.4818
16034SOL    HW248913   6.082   0.421   7.187  0.4832  1.1780  2.1227
16035SOL     OW48914   2.857   3.132   1.952  0.1006 -0.3286  0.0678
16035SOL    HW148915   2.887   3.110   1.864 -1.4842  4.7355 -2.1084
16035SOL    HW248916   2.762   3.130   1.946 -0.0639  1.8060  1.0168
16036SOL     OW48917   6.872   5.589   2.198  0.3988  0.2663  0.0343
16036SOL    HW148918   6.827   5.507   2.179  0.3114  0.2390  0.3503
16036SOL    HW248919   6.833   5.619   2.280  2.0793 -0.5738  1.1891
16037SOL     OW48920   0.819   1.190   1.840  0.1439 -0.1477 -0.3500
16037SOL    HW148921   0.800   1.103   1.804  0.4633 -0.3575 -0.0189
16037SOL    HW248922   0.914   1.195   1.841  0.4433 -1.8135  4.1742
16038SOL     OW48923   3.638   7.415   0.331 -0.0512 -0.2021 -0.2818
16038SOL    HW148924   3.650   7.414   0.236  1.9227  1.1845 -0.1341
16038SOL    HW248925   3.582   7.491   0.347 -0.5218 -0.5358 -0.3489
16039SOL     OW48926   0.599   3.021   2.819  0.7642 -0.1423 -0.5098
16039SOL    HW148927   0.518   3.019   2.768  1.2121 -2.6801 -1.2918
16039SOL    HW248928   0.666   2.992   2.757  2.1587  1.1492  0.3375
16040SOL     OW48929   2.601   2.425   6.753 -0.3053  0.3536  0.1150
16040SOL    HW148930   2.674   2.383   6.708 -1.1368 -0.1758 -0.7779
16040SOL    HW248931   2.602   2.515   6.721 -0.2323  0.2705 -0.1136
16041SOL     OW48932   3.264   7.379   0.864  0.2042 -0.5489  0.2218
16041SOL    HW148933   3.290   7.434   0.790 -1.4674  0.1574  0.1059
16041SOL    HW248934   3.226   7.301   0.824 -0.7401 -0.1481  0.3060
16042SOL     OW48935   7.117   0.803   5.207 -0.9556  0.7485 -0.2232
16042SOL    HW148936   7.194   0.748   5.224 -0.7785  0.2092 -2.4553
16042SOL    HW248937   7.148   0.892   5.220 -0.0354  0.5217 -0.7795
16043SOL     OW48938   4.324   2.893   2.635 -0.4525 -0.5022  0.1390
16043SOL    HW148939   4.404   2.870   2.682 -0.8864 -1.0541  0.6242
16043SOL    HW248940   4.310   2.986   2.656  0.6085 -0.1108 -0.7851
16044SOL     OW48941   7.250   0.959   1.025  0.2832  0.4793  0.6383
16044SOL    HW148942   7.270   0.998   0.940  1.3098 -1.8272 -0.2666
16044SOL    HW248943   7.330   0.912   1.048 -0.7286 -0.7199  1.8398
16045SOL     OW48944   7.800   3.397   1.900  0.2684 -0.3210 -0.3177
16045SOL    HW148945   7.768   3.359   1.818 -0.8246 -1.3489  0.5419
16045SOL    HW248946   7.741   3.471   1.917 -2.5631 -2.7906  1.7639
16046SOL     OW48947   3.510   6.476   2.640 -0.3424 -0.1961  0.0661
16046SOL    HW148948   3.534   6.409   2.576 -2.8981  0.6803 -2.0067
16046SOL    HW248949   3.443   6.434   2.694  0.1813 -0.2219  0.7002
16047SOL     OW48950   3.058   1.379   1.081  0.3904 -0.4771  0.2873
16047SOL    HW148951   3.125   1.395   1.014  1.8529 -0.4075  1.6894
16047SOL    HW248952   3.030   1.289   1.066  0.7049 -0.4675 -0.4101
16048SOL     OW48953   7.624   5.800   2.310 -0.4499  0.1199 -0.5423
16048SOL    HW148954   7.632   5.720   2.361  0.6657  1.9150  2.3335
16048SOL    HW248955   7.705   5.805   2.259  0.2987  0.2494  0.6269
16049SOL     OW48956   2.587   4.079   5.482  0.9087  0.2089  0.1628
16049SOL    HW148957   2.501   4.119   5.498  0.5266 -0.1177 -1.0019
16049SOL    HW248958   2.642   4.151   5.451  0.7247  0.1927 -0.2054
16050SOL     OW48959   4.827   2.971   3.379  0.5211  0.2781  0.1572
16050SOL    HW148960   4.908   2.956   3.331  0.5282  0.1671  0.2018
16050SOL    HW248961   4.846   2.941   3.468  0.2480 -0.3203  0.0238
16051SOL     OW48962   5.740   0.732   4.415  0.1770  0.2455  0.0416
16051SOL    HW148963   5.691   0.795   4.470 -1.8918 -0.9718 -0.2837
16051SOL    HW248964   5.683   0.655   4.411  2.4420 -1.5178  0.0709
16052SOL     OW48965   1.623   2.767   2.063 -0.3747  0.3524  0.5483
16052SOL    HW148966   1.628   2.752   1.968 -2.5507  0.7523  0.3042
16052SOL    HW248967   1.536   2.807   2.076  0.1587  0.9593  2.6316
16053SOL     OW48968   3.415   2.665   3.550 -0.4176 -0.0441  0.4985
16053SOL    HW148969   3.346   2.674   3.484  0.0456  1.2181  0.1511
16053SOL    HW248970   3.439   2.755   3.571  2.5159 -0.4243 -0.8595
16054SOL     OW48971   3.196   4.957   4.263  0.3785  0.1759  0.4565
16054SOL    HW148972   3.248   4.964   4.183 -0.8353 -1.6600 -0.5880
16054SOL    HW248973   3.113   5.000   4.241  0.0925 -0.2137  0.7635
16055SOL     OW48974   2.527   7.511   3.864  0.1438  0.0395  0.2132
16055SOL    HW148975   2.537   7.538   3.772 -0.9800 -0.3778 -0.0453
16055SOL    HW248976   2.440   7.471   3.868  0.2397 -0.0793  1.4369
16056SOL     OW48977   6.368   6.532   3.627  0.6569  0.4858  0.0217
16056SOL    HW148978   6.368   6.558   3.719 -1.1999  0.2602  0.1274
16056SOL    HW248979   6.451   6.486   3.615  0.7405  0.1358  1.6951
16057SOL     OW48980   3.980   5.477   1.297  0.6902 -0.6179  0.6367
16057SOL    HW148981   3.913   5.410   1.308  1.4607 -1.2157  1.9170
16057SOL    HW248982   4.056   5.428   1.264  0.8307 -0.1303  0.2301
16058SOL     OW48983   4.924   2.864   2.685 -0.6291 -0.1163 -0.1724
16058SOL    HW148984   4.837   2.905   2.682 -0.6385  0.1932  2.0310
16058SOL    HW248985   4.983   2.930   2.651 -0.6943  1.7948  3.0033
16059SOL     OW48986   6.064   4.693   6.644 -0.7395 -0.3966  0.5037
16059SOL    HW148987   6.090   4.757   6.578 -1.3059 -0.9383 -0.2653
16059SOL    HW248988   5.971   4.709   6.659 -0.4811  0.1363  1.6549
16060SOL     OW48989   0.450   1.166   2.287  0.0302 -0.3891 -0.1723
16060SOL    HW148990   0.359   1.147   2.310 -0.2842  0.1378 -0.9371
16060SOL    HW248991   0.450   1.173   2.192  0.2863  2.2613 -0.0772
16061SOL     OW48992   6.368   1.819   0.556 -0.2327  0.0612 -0.4790
16061SOL    HW148993   6.371   1.778   0.470  0.0893  1.5659 -1.2195
16061SOL    HW248994   6.352   1.912   0.538 -0.3497  0.3742  1.0906
16062SOL     OW48995   4.033   3.839   0.847 -0.4904  0.4332 -0.1458
16062SOL    HW148996   3.953   3.889   0.865 -1.1916 -0.6604 -0.1321
16062SOL    HW248997   4.070   3.820   0.933  0.0116  1.2784 -0.1663
16063SOL     OW48998   1.199   5.117   0.637 -0.4779 -0.4700  0.4609
16063SOL    HW148999   1.122   5.075   0.676 -3.4575  2.9538 -1.0890
16063SOL    HW249000   1.238   5.166   0.710 -1.5652  0.0315  0.7394
16064SOL     OW49001   7.541   1.331   0.493  0.0396  0.1201  0.6193
16064SOL    HW149002   7.518   1.355   0.583  1.9671 -0.8183  1.4326
16064SOL    HW249003   7.633   1.356   0.485 -0.5272  1.7391 -1.6983
16065SOL     OW49004   6.331   2.704   2.036 -0.1160  0.4013 -0.4468
16065SOL    HW149005   6.294   2.657   1.961 -2.3684  0.8257  0.3095
16065SOL    HW249006   6.286   2.666   2.111 -1.6802  3.3320  0.2453
16066SOL     OW49007   6.001   7.590   4.243 -0.2547 -0.4243  0.6809
16066SOL    HW149008   5.984   7.607   4.150  0.0006 -0.6657  0.5899
16066SOL    HW249009   5.918   7.610   4.286 -0.4240 -0.4741  0.3827
16067SOL     OW49010   5.960   6.008   6.046  0.1258 -0.6182  0.2190
16067SOL    HW149011   5.962   6.066   5.970  1.3495 -0.8357  0.0757
16067SOL    HW249012   5.909   5.932   6.016  1.3281 -1.0991 -0.7030
16068SOL     OW49013   1.026   3.387   4.626 -0.8009  0.0598  0.3256
16068SOL    HW149014   0.939   3.413   4.659 -1.0556  1.2512 -1.1633
16068SOL    HW249015   1.031   3.426   4.539  0.5349 -1.5094 -0.3460
16069SOL     OW49016   3.997   1.368   4.194  0.4031  0.2308  0.2527
16069SOL    HW149017   4.028   1.358   4.104  0.5080  3.0648 -0.1291
16069SOL    HW249018   3.905   1.345   4.191  0.7531 -1.1743 -0.2224
16070SOL     OW49019   1.216   1.096   0.021 -0.6183  0.9808 -0.8726
16070SOL    HW149020   1.245   1.171  -0.032 -1.7372  0.3299 -2.4607
16070SOL    HW249021   1.172   1.136   0.096 -0.3692  1.9248 -1.2114
16071SOL     OW49022   5.443   6.450   6.806  0.1821  0.2022  0.1009
16071SOL    HW149023   5.525   6.403   6.790  0.5885  1.0829 -0.4859
16071SOL    HW249024   5.383   6.383   6.841  1.1154 -0.4697  0.4575
16072SOL     OW49025   0.021   7.718   3.360  0.5055  0.1019  0.3860
16072SOL    HW149026   0.009   7.646   3.299  0.5611  0.7621 -0.4202
16072SOL    HW249027  -0.058   7.717   3.414 -1.5700  1.9716 -2.3198
16073SOL     OW49028   7.816   0.867   1.528  0.0883 -0.8150 -0.2361
16073SOL    HW149029   7.723   0.877   1.548  0.4653  1.0091  0.8373
16073SOL    HW249030   7.837   0.944   1.474  0.7559 -1.7887 -1.4230
16074SOL     OW49031   0.860   3.161   6.581 -0.6039  0.4032 -0.0268
16074SOL    HW149032   0.764   3.162   6.586 -0.5971  1.1332  0.0071
16074SOL    HW249033   0.887   3.109   6.657 -0.8822  2.6226  1.6815
16075SOL     OW49034   7.999   7.403   7.141 -0.1692 -0.0029  0.1508
16075SOL    HW149035   8.080   7.394   7.192  0.4968  0.2667 -0.8357
16075SOL    HW249036   8.026   7.391   7.050 -1.3858 -0.7130 -0.1347
16076SOL     OW49037   5.031   0.866   4.008 -0.6543 -0.4702 -0.0081
16076SOL    HW149038   4.961   0.866   3.942 -1.1003 -0.7318  0.4575
16076SOL    HW249039   5.041   0.773   4.032  0.3617 -0.5274 -0.5970
16077SOL     OW49040   6.563   2.104   2.116  0.2129  0.0289 -0.6155
16077SOL    HW149041   6.613   2.022   2.114  1.6969  0.9147 -0.6708
16077SOL    HW249042   6.501   2.092   2.188  0.9977 -0.8025 -0.0575
16078SOL     OW49043   7.184   3.117   3.924  0.0107 -0.2798  0.2730
16078SOL    HW149044   7.235   3.141   4.002  0.9804 -0.2551 -0.3592
16078SOL    HW249045   7.133   3.195   3.904  1.5392  0.5487 -0.5067
16079SOL     OW49046   2.016   0.573   1.005  0.0437 -0.5120  0.4126
16079SOL    HW149047   2.008   0.608   0.917  0.5065 -1.1387  0.1148
16079SOL    HW249048   2.086   0.625   1.045  0.9172 -1.2432 -0.1173
16080SOL     OW49049   5.265   7.698   4.245  0.2977 -0.3295 -0.3567
16080SOL    HW149050   5.345   7.750   4.247  0.1731 -0.1112 -0.9085
16080SOL    HW249051   5.294   7.611   4.219  0.5222 -0.5816  0.6761
16081SOL     OW49052   7.096   5.012   7.874 -1.1963 -0.1657  0.1225
16081SOL    HW149053   7.095   4.929   7.828  1.9693  0.2761 -0.9425
16081SOL    HW249054   7.070   5.077   7.808  0.6302  0.1440 -0.3345
16082SOL     OW49055   5.933   7.593   0.279  0.0192 -0.0720 -0.8206
16082SOL    HW149056   5.975   7.552   0.204  1.3500 -1.0188  0.3819
16082SOL    HW249057   6.006   7.623   0.334 -0.8680 -0.7464  0.7977
16083SOL     OW49058   6.411   2.373   1.235  0.2028  0.0205  0.3469
16083SOL    HW149059   6.475   2.303   1.251 -0.0858 -0.3944 -0.3077
16083SOL    HW249060   6.326   2.332   1.250  0.0579  0.4212  0.6449
16084SOL     OW49061   4.001   2.661   3.333  0.1247  0.4779  0.1490
16084SOL    HW149062   4.022   2.619   3.417  2.2123  4.2123  1.7094
16084SOL    HW249063   4.025   2.752   3.345 -0.8866  1.5072 -4.1207
16085SOL     OW49064   0.826   6.707   1.690  0.0350 -0.2912  0.1994
16085SOL    HW149065   0.868   6.762   1.756  0.3765 -1.2529  0.8151
16085SOL    HW249066   0.760   6.763   1.649 -0.4323  0.2315  1.6169
16086SOL     OW49067   0.687   7.062   6.690  0.3674  0.4946 -0.2967
16086SOL    HW149068   0.630   7.012   6.631  0.2766  0.4702 -0.1889
16086SOL    HW249069   0.712   6.999   6.758 -0.5038  0.8329  0.3617
16087SOL     OW49070   4.818   1.700   1.997  0.1488  0.1132  0.2160
16087SOL    HW149071   4.835   1.791   1.971  0.5163  0.8102  2.6282
16087SOL    HW249072   4.723   1.692   1.990  0.2929 -0.1920 -2.4400
16088SOL     OW49073   4.414   2.948   4.037  0.2777 -0.2712 -0.1852
16088SOL    HW149074   4.485   2.974   3.978  0.6023 -1.4308 -0.3306
16088SOL    HW249075   4.349   2.908   3.979  0.6477 -1.5201  0.2401
16089SOL     OW49076   2.766   4.943   0.041  0.2421  0.2345  0.7434
16089SOL    HW149077   2.680   4.931   0.001  0.6854 -0.2350 -0.1022
16089SOL    HW249078   2.806   5.013  -0.010  0.7223 -0.2090  0.5034
16090SOL     OW49079   6.246   6.280   2.440  0.6484 -0.3872  0.1774
16090SOL    HW149080   6.282   6.242   2.360 -0.9530  0.0047 -0.7742
16090SOL    HW249081   6.180   6.216   2.468  1.2835 -0.5785  1.2660
16091SOL     OW49082   2.355   4.421   6.891 -0.2388 -0.1236  0.3054
16091SOL    HW149083   2.337   4.474   6.814  0.0264 -1.8445 -0.9993
16091SOL    HW249084   2.293   4.349   6.886  0.2637 -0.6485  1.3063
16092SOL     OW49085   6.531   4.636   3.211 -0.3989 -0.2941  0.7751
16092SOL    HW149086   6.551   4.626   3.304  0.3494 -2.1678  0.4646
16092SOL    HW249087   6.473   4.562   3.191 -1.7128  0.8895  0.0318
16093SOL     OW49088   6.741   2.511   5.276  0.3265  0.3498 -0.3167
16093SOL    HW149089   6.758   2.594   5.232  0.5132  0.7513  0.4935
16093SOL    HW249090   6.673   2.532   5.341 -0.0797 -0.2700 -0.5341
16094SOL     OW49091   7.890   1.787   6.330  0.1202 -0.1872 -0.2207
16094SOL    HW149092   7.820   1.773   6.266 -0.1995  0.9459 -0.1468
16094SOL    HW249093   7.890   1.882   6.344  1.6711 -0.1682 -0.2048
16095SOL     OW49094   7.649   4.125   2.981  0.7880  0.0736 -0.1678
16095SOL    HW149095   7.675   4.215   2.961  1.1751  0.1849  0.7744
16095SOL    HW249096   7.689   4.073   2.912  0.6326  0.6207 -0.6722
16096SOL     OW49097   2.539   5.104   4.039  0.1764  0.2778 -0.0024
16096SOL    HW149098   2.615   5.049   4.056 -1.4919 -1.2627  3.4939
16096SOL    HW249099   2.464   5.044   4.045 -1.4608  1.9496 -2.0607
16097SOL     OW49100   1.351   4.619   1.423 -0.5374 -0.1732  0.3030
16097SOL    HW149101   1.346   4.632   1.518  0.6653 -0.5399  0.4318
16097SOL    HW249102   1.298   4.541   1.407  1.2121 -1.5755  1.0350
16098SOL     OW49103   4.760   2.480   6.948  0.5864 -0.2260  0.1374
16098SOL    HW149104   4.725   2.570   6.944  0.8190 -0.0398  1.6999
16098SOL    HW249105   4.854   2.490   6.933  0.4065 -0.4215 -1.3040
16099SOL     OW49106   2.421   5.447   6.643 -1.0312  0.4948  0.3729
16099SOL    HW149107   2.459   5.364   6.672 -2.5436  0.5509  2.8640
16099SOL    HW249108   2.339   5.454   6.692 -1.9089  2.5651 -1.2383
16100SOL     OW49109   6.054   3.433   7.901  0.6561 -0.8741 -0.5379
16100SOL    HW149110   6.146   3.406   7.906  1.7535  2.1129 -2.0271
16100SOL    HW249111   6.024   3.398   7.817  0.6796 -1.1798 -0.4198
16101SOL     OW49112   1.416   5.760   1.281 -0.3871 -0.8893  0.0316
16101SOL    HW149113   1.364   5.837   1.304  0.0303 -0.9541  1.2680
16101SOL    HW249114   1.458   5.734   1.363  0.4586 -1.6978 -0.6328
16102SOL     OW49115   7.125   0.548   3.263  0.4468  0.0942  0.1801
16102SOL    HW149116   7.060   0.488   3.227 -2.1678  0.3264  3.9243
16102SOL    HW249117   7.193   0.492   3.299 -0.5313 -0.5392  1.1042
16103SOL     OW49118   4.335   4.144   7.043  0.2323 -0.1334 -0.1676
16103SOL    HW149119   4.292   4.181   6.967  2.1719  1.0598 -0.7412
16103SOL    HW249120   4.361   4.055   7.016  0.4347  0.0920 -0.7230
16104SOL     OW49121   6.759   1.288   2.305  0.4090 -0.0066 -0.0466
16104SOL    HW149122   6.704   1.313   2.231  1.2722 -1.3820 -1.2129
16104SOL    HW249123   6.790   1.371   2.341  0.3510  0.6856 -1.5326
16105SOL     OW49124   6.121   2.126   5.000 -0.6748 -0.0762  0.2432
16105SOL    HW149125   6.056   2.066   4.963 -1.0660  0.1807  0.5119
16105SOL    HW249126   6.070   2.197   5.039 -0.2159  0.6024 -0.3491
16106SOL     OW49127   6.992   7.719   0.081  0.0548  0.1241 -0.5822
16106SOL    HW149128   6.988   7.815   0.082  1.0857  0.1867  0.5394
16106SOL    HW249129   6.931   7.692   0.150  1.7280  0.1390  1.0025
16107SOL     OW49130   4.258   3.981   5.740 -0.6149 -0.2459 -0.6547
16107SOL    HW149131   4.186   4.015   5.687 -2.4956 -1.2571  1.1350
16107SOL    HW249132   4.266   4.042   5.813  0.4694 -0.0702 -0.8978
16108SOL     OW49133   1.922   4.344   0.498  0.4891  0.3115 -0.5468
16108SOL    HW149134   2.002   4.388   0.529  1.0599 -0.5113 -0.8068
16108SOL    HW249135   1.872   4.326   0.577  0.1895  1.5155 -0.4457
16109SOL     OW49136   0.705   4.115   1.716 -0.1365  0.4535  0.1285
16109SOL    HW149137   0.706   4.120   1.620 -2.8404 -0.4931 -0.0399
16109SOL    HW249138   0.732   4.025   1.735  0.4018  0.6421  0.2963
16110SOL     OW49139   7.261   4.005   5.214  0.8018 -0.0325 -0.0046
16110SOL    HW149140   7.251   3.970   5.303 -0.2903  3.3820  1.3642
16110SOL    HW249141   7.354   3.993   5.195  0.6691 -2.8204  0.5896
16111SOL     OW49142   2.183   0.932   0.805 -0.0958 -0.0613 -0.6407
16111SOL    HW149143   2.169   1.026   0.813  0.5419 -0.0266  0.1756
16111SOL    HW249144   2.278   0.921   0.802  0.1816 -0.9198  3.7437
16112SOL     OW49145   7.402   6.503   6.164  0.1727 -0.1869  0.0774
16112SOL    HW149146   7.392   6.411   6.138  0.2214 -0.1833  0.0450
16112SOL    HW249147   7.329   6.519   6.224 -1.8388  0.6869 -2.4271
16113SOL     OW49148   0.703   0.062   7.272  0.2699  0.0950  0.0557
16113SOL    HW149149   0.752   0.013   7.337  2.0888  1.1130 -0.4554
16113SOL    HW249150   0.656   0.129   7.322 -0.5602 -0.8328  0.5440
16114SOL     OW49151   4.137   3.080   1.933  0.1366  0.2670 -0.4748
16114SOL    HW149152   4.138   3.128   1.850  1.0120  0.7892 -0.1708
16114SOL    HW249153   4.222   3.037   1.937 -1.2582 -2.9047 -1.6116
16115SOL     OW49154   7.954   1.615   0.430  0.1915  0.8014 -0.0418
16115SOL    HW149155   7.869   1.572   0.424  0.5017  0.2836 -0.9275
16115SOL    HW249156   7.950   1.666   0.510 -0.0548 -1.1650  1.2638
16116SOL     OW49157   5.715   4.108   5.411  0.1069 -1.2106 -0.4988
16116SOL    HW149158   5.624   4.137   5.418  0.1161 -0.5660 -2.3801
16116SOL    HW249159   5.749   4.111   5.500 -1.0558  0.8528 -0.0646
16117SOL     OW49160   4.534   6.710   1.257 -0.6238 -0.1738 -0.3163
16117SOL    HW149161   4.552   6.679   1.345  4.6132 -0.3488 -1.1408
16117SOL    HW249162   4.492   6.636   1.213  0.3593 -1.5555  0.9993
16118SOL     OW49163   0.264   2.133   2.000  0.0895 -0.4143 -0.0143
16118SOL    HW149164   0.360   2.139   1.995  0.1193 -1.1343 -0.3897
16118SOL    HW249165   0.241   2.187   2.076  0.6908  0.6908 -0.6036
16119SOL     OW49166   0.449   0.550   1.639 -0.1501  0.1125  0.1038
16119SOL    HW149167   0.475   0.463   1.610  0.1802  0.1968  0.1379
16119SOL    HW249168   0.411   0.591   1.561  0.5159  0.2523 -0.1561
16120SOL     OW49169   1.305   5.153   3.873  0.0842 -0.2130  0.2786
16120SOL    HW149170   1.304   5.249   3.869  0.1270 -0.2097  0.3586
16120SOL    HW249171   1.389   5.132   3.914  1.2919 -0.3442 -2.0728
16121SOL     OW49172   1.198   0.819   4.596 -0.0847 -0.9715  0.4845
16121SOL    HW149173   1.168   0.898   4.642  1.3830 -0.9477  1.4814
16121SOL    HW249174   1.118   0.769   4.579 -0.9993  0.5683  0.1335
16122SOL     OW49175   3.557   4.047   2.164 -0.1990 -0.0735 -0.0006
16122SOL    HW149176   3.571   3.952   2.162  1.9284  0.1775  0.4331
16122SOL    HW249177   3.507   4.065   2.084  0.7038 -1.3929 -0.9161
16123SOL     OW49178   0.723   4.922   0.415  0.1741 -0.1267  0.4606
16123SOL    HW149179   0.804   4.957   0.379 -0.9153  1.7489 -0.3280
16123SOL    HW249180   0.675   4.999   0.446 -0.7204 -1.3206  2.1976
16124SOL     OW49181   0.968   4.068   5.838 -0.3531 -0.7128 -0.0226
16124SOL    HW149182   0.945   4.103   5.752 -0.9606 -1.8235 -0.3197
16124SOL    HW249183   1.061   4.046   5.831 -0.5442 -1.3665 -0.5985
16125SOL     OW49184   2.079   5.410   7.092  0.2571  0.0091  0.0272
16125SOL    HW149185   2.048   5.320   7.081 -1.0166  0.3660  0.4591
16125SOL    HW249186   2.108   5.437   7.005 -0.8808 -0.2929 -0.4622
16126SOL     OW49187   2.918   7.371   5.124 -0.0728 -0.5376 -0.5601
16126SOL    HW149188   2.989   7.367   5.061 -0.6508 -0.5802 -1.2163
16126SOL    HW249189   2.925   7.290   5.174  0.1202 -0.7075 -0.8655
16127SOL     OW49190   6.213   7.626   6.890  0.1287 -0.6077 -0.5182
16127SOL    HW149191   6.177   7.643   6.976  1.5474 -0.9381  0.1751
16127SOL    HW249192   6.308   7.628   6.903  0.4389  1.3897 -2.4627
16128SOL     OW49193   1.348   3.190   7.780 -0.2228 -0.3366  0.1858
16128SOL    HW149194   1.326   3.249   7.852 -1.0390 -0.9578  0.4603
16128SOL    HW249195   1.278   3.125   7.780  0.5323 -1.1750 -0.2573
16129SOL     OW49196   5.116   5.192   6.632  0.6327  0.3515 -0.6801
16129SOL    HW149197   5.193   5.139   6.610  0.9076  0.3383  0.2478
16129SOL    HW249198   5.065   5.196   6.551  1.2188 -0.3013 -1.0930
16130SOL     OW49199   6.067   4.290   7.492 -0.1498  0.7682 -0.2206
16130SOL    HW149200   6.085   4.202   7.460  0.6210  1.0192 -0.5031
16130SOL    HW249201   6.121   4.347   7.438 -1.5534  1.5506 -0.8755
16131SOL     OW49202   6.146   0.202   5.222  0.7377 -0.2110 -0.1149
16131SOL    HW149203   6.134   0.116   5.261  1.1445 -0.3033 -0.1869
16131SOL    HW249204   6.240   0.219   5.231  0.3112  1.3627  2.3057
16132SOL     OW49205   4.295   7.338   1.736 -0.1995 -0.2686  0.2833
16132SOL    HW149206   4.260   7.426   1.722 -2.5817 -1.0858  0.7967
16132SOL    HW249207   4.263   7.312   1.823  1.7533 -1.0958  0.8334
16133SOL     OW49208   4.831   1.166   7.398 -0.1179  0.7333  0.0962
16133SOL    HW149209   4.780   1.169   7.317 -0.3854  0.9088  0.2680
16133SOL    HW249210   4.775   1.117   7.459  0.5022 -0.2606 -0.1161
16134SOL     OW49211   5.928   3.379   4.640 -1.0284 -0.4640  0.0769
16134SOL    HW149212   5.941   3.365   4.734 -2.8189  0.1210  0.4667
16134SOL    HW249213   5.950   3.295   4.599 -1.2647 -1.0603  1.1450
16135SOL     OW49214   6.509   3.630   5.365  0.5034  0.0792 -0.4777
16135SOL    HW149215   6.455   3.568   5.413 -0.6393  0.3568 -1.3486
16135SOL    HW249216   6.579   3.577   5.327 -1.1917 -0.9776 -2.3133
16136SOL     OW49217   4.789   2.271   7.278 -0.3265  0.0286  0.0388
16136SOL    HW149218   4.704   2.260   7.236  0.4789 -0.1627 -1.6460
16136SOL    HW249219   4.852   2.255   7.208  1.0879  1.3169  0.9640
16137SOL     OW49220   1.092   0.427   2.719  0.1173  0.2895  0.4855
16137SOL    HW149221   1.075   0.336   2.743 -0.0847  0.3279  0.4826
16137SOL    HW249222   1.006   0.467   2.710  0.1953  0.3554  0.0007
16138SOL     OW49223   6.917   3.132   3.041 -0.2597 -0.1303  0.2249
16138SOL    HW149224   6.974   3.078   2.987  0.1658 -1.2013  1.6686
16138SOL    HW249225   6.877   3.194   2.980 -0.1826 -1.5836 -1.3801
16139SOL     OW49226   6.604   3.472   5.689  0.9782  0.1641 -0.1238
16139SOL    HW149227   6.634   3.553   5.731  0.2694 -0.5789  1.9826
16139SOL    HW249228   6.509   3.479   5.688  0.9399 -0.3506 -0.5619
16140SOL     OW49229   3.869   1.007   1.798  0.1879 -0.3474  0.5640
16140SOL    HW149230   3.885   0.993   1.705 -0.9676 -0.8087  0.4234
16140SOL    HW249231   3.956   1.024   1.834  0.6884 -0.4309 -0.5474
16141SOL     OW49232   5.481   4.057   3.345 -0.5946  0.5218 -0.0474
16141SOL    HW149233   5.456   4.144   3.377 -1.2314  0.6415 -0.8388
16141SOL    HW249234   5.451   3.997   3.414 -0.0681  0.9343  0.5431
16142SOL     OW49235   1.136   2.810   1.727 -0.1645  0.0025 -0.7757
16142SOL    HW149236   1.104   2.887   1.679 -0.1459  0.9795  0.7177
16142SOL    HW249237   1.109   2.825   1.817  0.8390 -1.2101 -0.2452
16143SOL     OW49238   7.133   4.873   0.622  0.1453  1.0110  0.1183
16143SOL    HW149239   7.130   4.964   0.592 -1.1637  1.3332  1.1521
16143SOL    HW249240   7.044   4.854   0.650  0.6277 -0.2813  0.8669
16144SOL     OW49241   4.940   2.087   0.681 -0.1089  0.1693  0.2905
16144SOL    HW149242   4.953   2.135   0.599  0.1490  0.0605  0.2662
16144SOL    HW249243   4.971   2.148   0.748 -2.5569  1.2386  0.5474
16145SOL     OW49244   6.691   3.440   2.690  0.4274  0.0347  0.2417
16145SOL    HW149245   6.609   3.467   2.648  1.3354  1.1688 -0.9115
16145SOL    HW249246   6.725   3.520   2.729 -0.4592 -1.0116  3.4516
16146SOL     OW49247   5.332   4.669   1.749 -0.5869 -0.3313 -0.2957
16146SOL    HW149248   5.280   4.662   1.829  0.2753  0.2674  0.3322
16146SOL    HW249249   5.413   4.623   1.768 -0.4923 -0.4370 -0.9284
16147SOL     OW49250   5.031   4.087   5.766 -0.0235 -0.2561 -0.2166
16147SOL    HW149251   5.107   4.029   5.764 -1.1402 -1.7762 -0.4201
16147SOL    HW249252   5.030   4.121   5.856 -0.6073 -2.3991  0.6703
16148SOL     OW49253   6.167   2.008   2.946 -0.3954  0.1072  0.7814
16148SOL    HW149254   6.196   2.055   2.868 -0.5172  1.4981  1.5297
16148SOL    HW249255   6.248   1.977   2.987 -0.3057 -0.2689  0.3155
16149SOL     OW49256   0.173   4.206   7.857  0.5920 -0.1751  0.1664
16149SOL    HW149257   0.231   4.259   7.912  0.6417  0.5697 -0.5793
16149SOL    HW249258   0.171   4.121   7.899  0.8098  0.3136  1.1962
16150SOL     OW49259   7.090   6.197   1.858 -0.4326 -0.0566 -0.0035
16150SOL    HW149260   7.126   6.112   1.881  2.0347  0.4912 -1.4559
16150SOL    HW249261   7.030   6.179   1.786  0.4973 -0.5545 -0.6778
16151SOL     OW49262   4.595   6.289   2.296  0.3624  0.1021  0.8268
16151SOL    HW149263   4.656   6.243   2.239  0.2033 -0.0552  0.7787
16151SOL    HW249264   4.601   6.242   2.380  0.8743  0.5692  1.0569
16152SOL     OW49265   5.083   2.125   3.123  0.0757 -0.5686  0.0912
16152SOL    HW149266   5.104   2.104   3.032  3.0638  0.6745  0.3662
16152SOL    HW249267   5.097   2.042   3.170  0.7961 -0.6742 -0.2943
16153SOL     OW49268   0.388   1.029   4.373  0.0553  0.0791  0.0912
16153SOL    HW149269   0.423   1.028   4.284 -0.9979  0.4860 -0.3438
16153SOL    HW249270   0.294   1.018   4.362 -0.1564  0.7341  1.1253
16154SOL     OW49271   3.719   6.252   3.647  0.1738  0.1975 -0.0624
16154SOL    HW149272   3.743   6.314   3.579  1.0488  0.4968  0.5021
16154SOL    HW249273   3.780   6.270   3.719 -0.8123 -0.0032  0.8552
16155SOL     OW49274   1.046   6.170   3.069 -0.3672 -0.0054  0.3683
16155SOL    HW149275   1.084   6.224   3.138 -1.8922  0.7829  0.6352
16155SOL    HW249276   0.990   6.108   3.117  1.0593 -1.6083  0.0437
16156SOL     OW49277   3.175   4.633   2.399  0.3660  0.4363  0.2683
16156SOL    HW149278   3.144   4.581   2.325 -0.5922 -1.0748  1.6556
16156SOL    HW249279   3.097   4.676   2.433  0.5080 -0.0521  1.2550
16157SOL     OW49280   3.787   6.883   7.558  0.1037  0.1390 -0.3945
16157SOL    HW149281   3.865   6.932   7.584  0.9638 -0.0438 -2.4338
16157SOL    HW249282   3.821   6.797   7.534 -0.9133 -0.3245 -0.2159
16158SOL     OW49283   6.107   7.744   4.680  0.3526  0.3604  0.1611
16158SOL    HW149284   6.164   7.763   4.605  1.5021 -0.4301  0.8057
16158SOL    HW249285   6.115   7.649   4.692 -1.2076  0.2061  0.2028
16159SOL     OW49286   6.529   0.662   1.781 -0.0992  0.0388 -0.1011
16159SOL    HW149287   6.612   0.625   1.811 -0.6676 -2.1216 -1.0271
16159SOL    HW249288   6.463   0.624   1.839 -0.6658 -0.0600 -0.8002
16160SOL     OW49289   6.577   1.789   3.545 -0.1612 -0.1185 -0.2893
16160SOL    HW149290   6.645   1.733   3.509 -0.0240  0.3378 -0.7480
16160SOL    HW249291   6.500   1.731   3.552  0.3660 -0.7352  0.6000
16161SOL     OW49292   5.504   6.858   7.427 -0.0261  0.4688 -0.1840
16161SOL    HW149293   5.586   6.857   7.378  0.0329  2.3787 -0.1943
16161SOL    HW249294   5.530   6.859   7.518 -0.1363 -2.8565  0.0054
16162SOL     OW49295   6.909   3.825   1.504  0.3343 -0.0077  0.0065
16162SOL    HW149296   6.878   3.901   1.554 -0.1522  0.0183 -0.3271
16162SOL    HW249297   6.940   3.862   1.421  1.3789 -0.0209  0.3770
16163SOL     OW49298   0.886   0.050   5.566 -0.8241  0.2866 -0.3092
16163SOL    HW149299   0.797   0.017   5.550 -0.8927  1.1585 -1.8605
16163SOL    HW249300   0.935  -0.028   5.594 -2.4451  0.1013  2.3857
16164SOL     OW49301   5.254   7.741   3.311 -0.7564 -0.3607  0.4592
16164SOL    HW149302   5.204   7.690   3.247  0.1907  0.5330 -1.0642
16164SOL    HW249303   5.200   7.818   3.328 -0.4034  0.0965 -0.3937
16165SOL     OW49304   0.233   2.037   3.585  0.3296  0.3508  0.5760
16165SOL    HW149305   0.180   1.961   3.558 -0.6158  1.1649  0.0741
16165SOL    HW249306   0.208   2.052   3.676 -1.2488  1.4604 -0.0013
16166SOL     OW49307   3.505   1.594   1.973  0.3906  0.2262 -0.1888
16166SOL    HW149308   3.571   1.535   2.009 -0.2258 -0.1865  0.2782
16166SOL    HW249309   3.476   1.646   2.048 -0.6193 -0.3691 -0.1543
16167SOL     OW49310   2.708   1.856   0.341  0.0334 -0.2815 -0.1484
16167SOL    HW149311   2.617   1.828   0.337 -0.6787  1.9358 -2.4139
16167SOL    HW249312   2.756   1.789   0.293 -0.8084 -0.2351 -1.0823
16168SOL     OW49313   3.970   3.115   6.848  0.0156  0.0169  0.3628
16168SOL    HW149314   3.947   3.049   6.782  0.8070 -1.1411  1.2151
16168SOL    HW249315   4.064   3.103   6.862  0.2533  1.6046  0.2543
16169SOL     OW49316   4.394   2.425   2.407 -0.3909  0.7676 -0.1802
16169SOL    HW149317   4.343   2.487   2.459 -0.7395  1.6376 -1.4795
16169SOL    HW249318   4.390   2.343   2.455 -0.6014  1.5431  1.1888
16170SOL     OW49319   5.994   6.490   0.138 -0.0451  0.4837 -0.3998
16170SOL    HW149320   6.001   6.551   0.064  2.0173  0.3018 -0.4118
16170SOL    HW249321   6.061   6.424   0.121 -1.5030 -1.2292  0.1695
16171SOL     OW49322   4.670   3.567   2.115 -0.7346  0.2335 -0.3369
16171SOL    HW149323   4.592   3.614   2.145 -0.5669 -0.9033  2.1695
16171SOL    HW249324   4.652   3.475   2.135  2.4422  0.1844  3.8975
16172SOL     OW49325   6.690   1.490   4.450 -0.3122  0.6115 -0.3617
16172SOL    HW149326   6.708   1.538   4.531 -2.0301  2.3699 -0.9528
16172SOL    HW249327   6.600   1.458   4.461  0.6920 -2.4079 -0.0848
16173SOL     OW49328   0.916   2.777   3.329  0.4011  0.2729  0.6379
16173SOL    HW149329   0.911   2.681   3.331  0.4539  0.2745  0.9060
16173SOL    HW249330   0.979   2.798   3.398  1.5597  0.4217 -0.4306
16174SOL     OW49331   0.178   1.935   3.870 -0.1499  0.3323 -0.2864
16174SOL    HW149332   0.194   1.840   3.870 -1.0411  0.1673  0.3790
16174SOL    HW249333   0.092   1.944   3.911 -0.7368  1.3320 -1.6981
16175SOL     OW49334   2.290   6.594   0.169  0.0165  0.1676 -0.5144
16175SOL    HW149335   2.228   6.523   0.186 -1.2298  0.7116 -2.3562
16175SOL    HW249336   2.323   6.619   0.255 -0.2561 -1.9602  0.2629
16176SOL     OW49337   5.848   0.289   4.829 -0.5407 -0.5572  0.0809
16176SOL    HW149338   5.943   0.287   4.831 -0.5284 -2.6192 -0.0220
16176SOL    HW249339   5.826   0.279   4.736 -0.9544  3.7281 -0.4938
16177SOL     OW49340   1.086   5.304   5.241 -0.0346  0.2759 -0.4095
16177SOL    HW149341   1.044   5.235   5.189 -0.2642 -0.9209  1.2574
16177SOL    HW249342   1.077   5.383   5.188 -1.0895 -0.6756 -1.7419
16178SOL     OW49343   5.222   6.973   0.824 -0.2110  0.4310 -0.2441
16178SOL    HW149344   5.277   7.003   0.896 -1.0047  0.3960  0.3807
16178SOL    HW249345   5.284   6.957   0.752  0.6874 -0.2304  0.6447
16179SOL     OW49346   5.978   7.986   4.305 -0.2143  0.2425  0.0259
16179SOL    HW149347   5.926   7.914   4.343  0.3254 -0.0735  0.1697
16179SOL    HW249348   5.942   7.997   4.217 -0.6844  0.1811  0.2072
16180SOL     OW49349   7.978   1.881   3.348 -0.0409  0.4474 -0.2233
16180SOL    HW149350   7.903   1.836   3.309  0.4650 -1.2041  0.6433
16180SOL    HW249351   8.052   1.861   3.291  0.2559 -0.1242  0.3544
16181SOL     OW49352   6.548   6.039   2.824  0.2657  0.3167 -0.2990
16181SOL    HW149353   6.499   6.014   2.902 -0.1735 -0.7804 -0.8984
16181SOL    HW249354   6.482   6.069   2.762  0.5631  0.7571 -0.4073
16182SOL     OW49355   7.511   6.569   3.173  0.1863 -0.3111  0.3772
16182SOL    HW149356   7.583   6.621   3.135  0.2056 -1.1953 -0.8717
16182SOL    HW249357   7.456   6.633   3.218  0.2476  0.7993 -1.0602
16183SOL     OW49358   3.207   1.019   0.677 -0.0447 -0.1761  0.5410
16183SOL    HW149359   3.279   1.022   0.740  0.3564 -3.4068  0.4167
16183SOL    HW249360   3.213   0.932   0.638 -2.5157  0.3781 -1.3295
16184SOL     OW49361   7.751   3.372   1.546 -0.1522 -0.1901 -0.7366
16184SOL    HW149362   7.704   3.452   1.523 -0.8539  0.2213  1.8650
16184SOL    HW249363   7.840   3.400   1.568 -0.4067 -0.0917  0.2063
16185SOL     OW49364   0.996   4.015   2.612 -0.1211 -0.2979  0.0670
16185SOL    HW149365   1.066   4.033   2.674  1.6532  0.8261 -2.1213
16185SOL    HW249366   1.026   3.940   2.561 -0.7167 -0.1387 -0.5461
16186SOL     OW49367   4.651   3.149   4.329 -0.5684 -0.3944  0.1713
16186SOL    HW149368   4.562   3.116   4.336  0.2380 -3.4783 -2.2717
16186SOL    HW249369   4.666   3.160   4.235  1.4164  0.7880  0.5596
16187SOL     OW49370   4.344   5.212   3.294  0.4721  0.0618 -0.3573
16187SOL    HW149371   4.435   5.184   3.295  1.2088  2.2567  0.0004
16187SOL    HW249372   4.323   5.223   3.201  0.7483  0.0814 -0.4169
16188SOL     OW49373   3.021   5.736   3.297  0.0781  0.1798  0.3350
16188SOL    HW149374   2.953   5.776   3.243  2.5415  2.4424 -1.3807
16188SOL    HW249375   3.064   5.809   3.341  2.5398 -0.8841 -0.0881
16189SOL     OW49376   1.854   3.556   3.383 -0.0961  0.0529 -0.0320
16189SOL    HW149377   1.794   3.574   3.310  1.0587 -0.2937 -1.1060
16189SOL    HW249378   1.892   3.641   3.405  0.8441 -0.0876 -1.0289
16190SOL     OW49379   4.980   5.430   2.673  0.3215 -0.0161 -0.2566
16190SOL    HW149380   4.967   5.367   2.603  2.8045 -0.7985 -0.1207
16190SOL    HW249381   4.969   5.516   2.631  1.5174 -0.4807 -1.5662
16191SOL     OW49382   6.580   0.673   3.418 -0.8526  0.5581 -0.2053
16191SOL    HW149383   6.546   0.763   3.421  1.5837  1.5337  0.2077
16191SOL    HW249384   6.578   0.644   3.510 -2.1709 -0.0625 -0.4092
16192SOL     OW49385   6.175   1.669   2.813  0.0259  0.1534 -0.2131
16192SOL    HW149386   6.230   1.744   2.791  0.5328 -0.2477 -0.3411
16192SOL    HW249387   6.105   1.705   2.867 -0.5932  0.9742 -1.5157
16193SOL     OW49388   5.504   7.357   7.663 -0.1203  0.2281  0.2865
16193SOL    HW149389   5.496   7.373   7.757 -1.6461  0.1829  0.1823
16193SOL    HW249390   5.521   7.263   7.656  2.1940  0.5461  0.5736
16194SOL     OW49391   0.446   4.789   6.618 -0.5010 -0.6552 -0.5493
16194SOL    HW149392   0.365   4.739   6.606 -0.2014 -0.9297 -1.5132
16194SOL    HW249393   0.515   4.723   6.623  0.0183 -0.3622 -2.7873
16195SOL     OW49394   5.677   5.016   1.543 -0.3642 -0.1488  0.0162
16195SOL    HW149395   5.612   4.968   1.492 -0.1074  0.1957 -0.6503
16195SOL    HW249396   5.631   5.044   1.622 -1.6255  1.8651 -1.3583
16196SOL     OW49397   2.745   0.347   3.336  0.4677 -0.0653  0.1517
16196SOL    HW149398   2.780   0.323   3.250 -0.1960 -1.2258  0.1934
16196SOL    HW249399   2.671   0.404   3.317  1.2081  0.8954  0.0189
16197SOL     OW49400   2.067   6.131   0.508 -0.6709  0.1886 -0.0286
16197SOL    HW149401   1.984   6.098   0.473  0.5536 -0.7277 -2.3526
16197SOL    HW249402   2.087   6.074   0.582 -1.2225 -0.8095 -0.6245
16198SOL     OW49403   7.861   0.998   1.845  0.1735 -0.2986  0.4603
16198SOL    HW149404   7.891   0.947   1.770 -0.1673 -2.6556  1.8146
16198SOL    HW249405   7.917   0.969   1.917  1.0674  2.5233  1.0176
16199SOL     OW49406   0.315   6.898   6.388 -0.0924  0.1759  0.0404
16199SOL    HW149407   0.366   6.928   6.312  1.1806 -0.6334  0.5369
16199SOL    HW249408   0.227   6.884   6.354 -0.2738  2.6041 -0.6273
16200SOL     OW49409   4.413   2.819   5.324  0.2833 -0.1142  0.4785
16200SOL    HW149410   4.382   2.868   5.248 -0.7101 -1.4923 -0.0619
16200SOL    HW249411   4.492   2.865   5.352  0.8491  0.2774 -1.5665
16201SOL     OW49412   7.694   5.731   5.903  0.5697 -0.4069  0.4839
16201SOL    HW149413   7.608   5.747   5.942  0.7528  0.9197  0.3991
16201SOL    HW249414   7.677   5.673   5.829 -0.2146 -0.3858  0.6398
16202SOL     OW49415   5.874   5.893   3.129  0.0556 -0.5152  0.2256
16202SOL    HW149416   5.818   5.816   3.122  0.3003 -0.6026 -0.8828
16202SOL    HW249417   5.847   5.949   3.056  2.6619 -1.4039 -1.5636
16203SOL     OW49418   1.625   5.792   0.266  0.0684  0.0952  0.2941
16203SOL    HW149419   1.563   5.783   0.338  0.3477 -1.2130  0.3943
16203SOL    HW249420   1.700   5.838   0.304  1.7234 -3.4918  1.9067
16204SOL     OW49421   0.818   4.012   0.843  0.7937 -0.2637  0.1810
16204SOL    HW149422   0.821   3.988   0.750  3.6472  2.3261 -0.5598
16204SOL    HW249423   0.799   3.930   0.888 -2.5362 -1.3197 -2.6693
16205SOL     OW49424   2.592   5.490   3.326  0.1217  0.3482  0.3010
16205SOL    HW149425   2.639   5.549   3.268  0.5271  1.7883  2.0237
16205SOL    HW249426   2.507   5.479   3.284  0.3176  1.5163 -0.4573
16206SOL     OW49427   5.161   3.555   1.399 -0.2181  0.4650 -0.1808
16206SOL    HW149428   5.152   3.643   1.436 -1.7611  1.0096 -1.7260
16206SOL    HW249429   5.071   3.525   1.386  0.2674 -0.4663 -1.6509
16207SOL     OW49430   1.164   4.321   6.952  0.2363  0.3648  0.0930
16207SOL    HW149431   1.181   4.413   6.973  0.7755  0.2121  0.3394
16207SOL    HW249432   1.102   4.324   6.879  1.7490  0.9589 -1.2298
16208SOL     OW49433   6.719   0.566   2.570  0.3656 -0.4959 -0.6841
16208SOL    HW149434   6.659   0.586   2.642  0.8480 -0.7396 -0.2135
16208SOL    HW249435   6.667   0.582   2.491 -0.3291 -0.7377 -0.2828
16209SOL     OW49436   4.341   1.499   3.701 -0.0728 -0.1038 -0.0047
16209SOL    HW149437   4.410   1.447   3.743 -0.0480 -0.8361 -0.9137
16209SOL    HW249438   4.387   1.576   3.666  0.2089 -0.3617 -0.2064
16210SOL     OW49439   0.903   7.565   5.859 -0.7365 -0.3297  0.0585
16210SOL    HW149440   0.916   7.534   5.769 -0.9353 -2.4686  0.7113
16210SOL    HW249441   0.975   7.526   5.908 -0.1633  1.4699  0.7276
16211SOL     OW49442   7.739   5.664   4.427  0.7126  1.0296  0.6296
16211SOL    HW149443   7.674   5.602   4.461  0.8127 -0.2958 -1.4410
16211SOL    HW249444   7.713   5.748   4.465 -0.9208  0.1632  1.5622
16212SOL     OW49445   3.179   3.734   1.118  0.4476 -0.0577  0.5113
16212SOL    HW149446   3.235   3.698   1.049  1.7892  0.1973  1.4339
16212SOL    HW249447   3.106   3.774   1.071  1.6999  0.7564 -0.8304
16213SOL     OW49448   6.765   7.284   5.793 -0.2282 -0.5031  0.1160
16213SOL    HW149449   6.852   7.303   5.828 -0.6263  1.0691  0.3303
16213SOL    HW249450   6.705   7.320   5.858 -0.9986  0.9383 -1.3207
16214SOL     OW49451   4.946   4.861   4.462  0.1012 -0.2911 -0.1780
16214SOL    HW149452   5.031   4.865   4.417 -0.2746 -2.9214 -1.3130
16214SOL    HW249453   4.898   4.792   4.416 -1.7057 -0.6089  2.0181
16215SOL     OW49454   2.749   0.949   4.637 -0.0654 -0.2919  0.2973
16215SOL    HW149455   2.740   0.857   4.660  0.2005 -1.1728 -2.6556
16215SOL    HW249456   2.839   0.957   4.606 -0.6165  0.4882 -1.1924
16216SOL     OW49457   0.846   1.246   0.348 -0.4109  0.1337 -0.0054
16216SOL    HW149458   0.812   1.335   0.345 -1.9318 -0.3777  0.8794
16216SOL    HW249459   0.844   1.222   0.440  0.7040 -0.5730 -0.1411
16217SOL     OW49460   7.324   5.135   5.893 -0.2608  0.3841  0.1860
16217SOL    HW149461   7.304   5.228   5.882  0.1559  0.6794  1.6997
16217SOL    HW249462   7.239   5.092   5.887 -0.4070  0.7843 -1.0052
16218SOL     OW49463   2.411   3.179   6.462  0.2392 -0.6573  0.2755
16218SOL    HW149464   2.413   3.255   6.403 -0.1808 -0.7912  0.0833
16218SOL    HW249465   2.325   3.186   6.505  0.5683 -0.5241  0.9187
16219SOL     OW49466   7.477   0.735   1.341 -0.2741 -0.1743 -0.0694
16219SOL    HW149467   7.543   0.741   1.272  0.0778  1.4761  0.3647
16219SOL    HW249468   7.483   0.818   1.388 -1.1885 -0.8539  1.3411
16220SOL     OW49469   2.949   5.108   4.161  0.0410 -0.0472  0.4575
16220SOL    HW149470   2.955   5.186   4.216  0.4189  0.7202 -0.6236
16220SOL    HW249471   2.955   5.141   4.072 -2.7287 -1.0241 -0.1980
16221SOL     OW49472   6.073   3.219   5.242 -0.0340 -0.6078 -0.1542
16221SOL    HW149473   6.017   3.164   5.189  0.9359 -0.9932 -0.8004
16221SOL    HW249474   6.057   3.308   5.210 -0.9655 -0.5927  0.3167
16222SOL     OW49475   3.952   0.210   1.787  0.7211  0.0474 -0.5149
16222SOL    HW149476   3.971   0.202   1.693  2.2711  0.6371 -0.2782
16222SOL    HW249477   3.938   0.120   1.816 -3.0914  0.0155 -1.8831
16223SOL     OW49478   6.419   5.236   4.096  0.0939  0.3019  0.0758
16223SOL    HW149479   6.491   5.263   4.152 -0.3296 -0.9725  1.2905
16223SOL    HW249480   6.450   5.155   4.055 -0.6520 -0.3255  0.7046
16224SOL     OW49481   4.958   5.857   1.631 -0.0578 -0.3614  0.4354
16224SOL    HW149482   4.911   5.927   1.585 -3.2307 -3.0891 -0.8627
16224SOL    HW249483   5.019   5.822   1.567  0.9187  0.5869  0.8159
16225SOL     OW49484   7.368   1.949   0.265 -0.4945  0.3632  0.2386
16225SOL    HW149485   7.282   1.973   0.232 -1.2593 -0.8028  1.3048
16225SOL    HW249486   7.400   2.028   0.309 -0.3788  1.2415 -1.3696
16226SOL     OW49487   2.019   2.960   6.555 -0.4826 -0.0667 -0.1312
16226SOL    HW149488   2.058   2.890   6.503 -1.7978 -1.2292  0.3810
16226SOL    HW249489   2.015   2.925   6.644 -1.6942  0.4084  0.0216
16227SOL     OW49490   3.209   3.566   0.555 -0.2591  0.3938 -0.1071
16227SOL    HW149491   3.227   3.564   0.461  1.0272 -0.8913  0.1396
16227SOL    HW249492   3.197   3.659   0.575 -0.9696  0.6475 -1.5987
16228SOL     OW49493   1.799   3.802   1.740  0.3840 -0.2921  0.0967
16228SOL    HW149494   1.777   3.729   1.682  1.5769 -0.0001 -0.7647
16228SOL    HW249495   1.774   3.880   1.690  0.5377 -0.0629  0.3751
16229SOL     OW49496   3.779   7.753   1.944 -0.1869 -0.2387 -0.1634
16229SOL    HW149497   3.787   7.846   1.965 -1.8028 -0.2226  0.5610
16229SOL    HW249498   3.869   7.721   1.938  0.3887  1.0229  1.1815
16230SOL     OW49499   2.305   4.817   7.690  0.3690 -0.4819 -0.3200
16230SOL    HW149500   2.360   4.742   7.669 -0.1925 -1.0384  0.1672
16230SOL    HW249501   2.219   4.780   7.708  0.0628  0.2859 -0.1490
16231SOL     OW49502   3.069   6.108   4.191  0.0003 -0.6444  0.4080
16231SOL    HW149503   3.162   6.092   4.177  0.3067  0.6925  0.7060
16231SOL    HW249504   3.065   6.200   4.219 -1.4613 -0.4868 -0.2089
16232SOL     OW49505   6.221   2.409   0.733  0.1259 -0.7463  0.2526
16232SOL    HW149506   6.250   2.324   0.700  0.8446  0.1978 -1.7314
16232SOL    HW249507   6.129   2.415   0.708 -0.1276 -1.2179  1.0429
16233SOL     OW49508   4.804   7.940   6.106  0.4052 -0.5491  0.0093
16233SOL    HW149509   4.816   7.942   6.201  1.2806 -1.4119 -0.0676
16233SOL    HW249510   4.797   8.032   6.081  0.1575 -0.3151  0.9082
16234SOL     OW49511   4.614   0.638   4.719 -0.4304  0.8248 -0.0165
16234SOL    HW149512   4.636   0.724   4.753  2.1551  0.8127 -1.3963
16234SOL    HW249513   4.587   0.654   4.628 -1.9672  0.3398  0.3227
16235SOL     OW49514   0.223   2.203   7.236  0.5464 -0.0817 -0.1643
16235SOL    HW149515   0.170   2.237   7.308  0.6755 -0.6005  0.1803
16235SOL    HW249516   0.262   2.281   7.196 -0.2450  0.2820 -0.2489
16236SOL     OW49517   5.533   4.637   5.245 -0.1221  0.2206  0.3901
16236SOL    HW149518   5.476   4.660   5.172  0.6895  1.5332  0.1260
16236SOL    HW249519   5.503   4.552   5.274 -1.8395  0.6302 -0.1021
16237SOL     OW49520   6.061   6.813   2.776  0.5465 -0.2650  0.5867
16237SOL    HW149521   6.084   6.723   2.753 -0.4433 -1.3930  3.5584
16237SOL    HW249522   6.137   6.865   2.751  1.9748 -2.2470  0.6322
16238SOL     OW49523   6.925   2.226   5.748 -0.0185  0.1945  0.2139
16238SOL    HW149524   6.944   2.262   5.835  0.9978  1.9182 -0.6782
16238SOL    HW249525   6.992   2.159   5.734 -0.1123 -0.0042  0.6806
16239SOL     OW49526   4.718   4.065   3.317  0.1012 -0.6571 -0.1709
16239SOL    HW149527   4.625   4.063   3.298  0.0594 -0.7428  0.0415
16239SOL    HW249528   4.760   4.063   3.231 -0.1017  0.3777 -0.3019
16240SOL     OW49529   5.562   1.208   3.717  0.2843  0.5038 -1.0791
16240SOL    HW149530   5.647   1.252   3.706  1.9102 -2.5870 -2.1984
16240SOL    HW249531   5.580   1.137   3.778 -2.0933  0.9735  0.2852
16241SOL     OW49532   4.345   0.664   2.635 -0.1363  0.2574  0.7701
16241SOL    HW149533   4.367   0.741   2.584 -0.7570 -1.0401 -1.5932
16241SOL    HW249534   4.290   0.697   2.706  1.1546  2.1877  0.9389
16242SOL     OW49535   3.060   6.455   2.891  0.1207  0.0163  0.2929
16242SOL    HW149536   3.021   6.533   2.929  0.6252  0.3351  0.1738
16242SOL    HW249537   3.028   6.382   2.945 -1.5552  0.1241 -0.5115
16243SOL     OW49538   6.387   0.153   0.510 -0.6431 -0.6737 -1.0408
16243SOL    HW149539   6.475   0.143   0.472 -0.5195  0.2791 -1.0281
16243SOL    HW249540   6.331   0.173   0.435 -0.6204 -0.0308 -0.8905
16244SOL     OW49541   3.933   0.852   0.971  0.5501 -0.4372  0.0425
16244SOL    HW149542   3.987   0.898   0.907 -0.7168  0.1189 -0.6776
16244SOL    HW249543   3.907   0.920   1.034  0.1094 -0.5448 -0.0211
16245SOL     OW49544   0.074   1.622   1.212  0.0635 -0.4666 -0.2596
16245SOL    HW149545   0.080   1.529   1.189  1.8540 -0.2480 -0.7797
16245SOL    HW249546   0.027   1.623   1.296 -1.4341 -1.6982 -1.0388
16246SOL     OW49547   3.509   4.473   1.397 -0.2392  0.6594  0.4404
16246SOL    HW149548   3.437   4.524   1.361  0.3417  1.3370  0.1978
16246SOL    HW249549   3.504   4.487   1.492 -0.6056  0.4652  0.4475
16247SOL     OW49550   0.923   6.084   7.918 -0.3793  0.4005 -0.3992
16247SOL    HW149551   0.844   6.104   7.969 -0.2219 -1.7770  0.8236
16247SOL    HW249552   0.890   6.065   7.830 -1.0079  1.1790 -0.3443
16248SOL     OW49553   2.722   7.589   5.065 -0.1541  0.1258 -0.1151
16248SOL    HW149554   2.746   7.504   5.101 -1.2981 -0.1784 -0.0272
16248SOL    HW249555   2.805   7.628   5.039  0.6595 -0.0286  1.9823
16249SOL     OW49556   0.212   0.838   3.521  0.2473  0.2364  0.0848
16249SOL    HW149557   0.229   0.859   3.429  1.2894  2.2401  0.6770
16249SOL    HW249558   0.299   0.827   3.559 -0.1624 -0.1199  0.9295
16250SOL     OW49559   0.840   4.400   5.437 -0.1480 -0.4743 -0.0500
16250SOL    HW149560   0.845   4.419   5.343 -1.5949  1.3936  0.1963
16250SOL    HW249561   0.895   4.466   5.478  1.2504 -1.8659  0.4123
16251SOL     OW49562   6.811   4.437   0.290  0.1612 -0.0025  0.5712
16251SOL    HW149563   6.715   4.440   0.292  0.0141 -2.1300 -0.6975
16251SOL    HW249564   6.834   4.368   0.352  0.7841 -0.3647 -0.0544
16252SOL     OW49565   5.443   4.135   5.344 -0.3814  0.5115  0.0098
16252SOL    HW149566   5.423   4.062   5.285 -0.1420  0.2750  0.2207
16252SOL    HW249567   5.397   4.114   5.425  1.2209 -0.3712  0.7305
16253SOL     OW49568   6.854   5.109   3.546 -0.3180 -0.5395 -0.2281
16253SOL    HW149569   6.949   5.115   3.534 -0.4532 -0.5642 -1.4564
16253SOL    HW249570   6.819   5.106   3.457 -1.6565  2.3110  0.0908
16254SOL     OW49571   6.620   5.861   6.445 -0.2806  0.0939  0.1873
16254SOL    HW149572   6.537   5.888   6.406  0.5409 -0.3799 -2.0599
16254SOL    HW249573   6.632   5.918   6.521 -2.3817  0.5164  0.2470
16255SOL     OW49574   6.078   6.468   4.628  0.1075  0.1009 -0.1522
16255SOL    HW149575   6.001   6.423   4.664 -0.9820  1.3825 -0.7844
16255SOL    HW249576   6.075   6.449   4.534  1.7332 -1.4794  0.0557
16256SOL     OW49577   2.467   0.204   1.326  0.3590 -0.8289 -0.7342
16256SOL    HW149578   2.539   0.202   1.262  0.0909 -3.1095 -1.0653
16256SOL    HW249579   2.498   0.149   1.398 -0.3842 -0.4144 -0.0874
16257SOL     OW49580   3.285   5.525   3.442 -0.0398  0.1616 -0.3074
16257SOL    HW149581   3.283   5.617   3.414 -0.3417 -0.0709 -1.0674
16257SOL    HW249582   3.378   5.508   3.457  0.0237  0.5799 -0.1991
16258SOL     OW49583   3.186   0.774   0.366  0.6172  0.2595  0.5564
16258SOL    HW149584   3.131   0.810   0.436 -0.1763 -0.8066  0.4985
16258SOL    HW249585   3.222   0.694   0.402  0.6319 -0.0207 -0.0654
16259SOL     OW49586   3.858   0.956   1.525 -0.5176  0.1493 -0.0731
16259SOL    HW149587   3.823   0.869   1.504 -0.5986 -0.0460  0.8364
16259SOL    HW249588   3.887   0.991   1.440 -1.6873 -0.2236 -0.6422
16260SOL     OW49589   2.785   6.271   3.537  0.1057  0.4071  0.2606
16260SOL    HW149590   2.785   6.236   3.626 -1.6257 -1.2157 -0.3025
16260SOL    HW249591   2.702   6.318   3.529  0.1752  0.4196 -0.5423
16261SOL     OW49592   0.504   3.744   3.758  0.2084 -0.6752 -0.5989
16261SOL    HW149593   0.544   3.704   3.835  0.0862  1.0561  0.4137
16261SOL    HW249594   0.535   3.834   3.759 -2.4813  0.3469 -0.5958
16262SOL     OW49595   2.845   3.201   7.621 -0.3417  0.5205  0.0716
16262SOL    HW149596   2.887   3.136   7.678 -0.8389  1.6420  1.7772
16262SOL    HW249597   2.773   3.236   7.673 -2.3514 -0.0795 -2.1449
16263SOL     OW49598   4.897   2.034   3.541 -0.4320  0.3092  1.0157
16263SOL    HW149599   4.918   1.943   3.563  0.6606  0.7629  1.9009
16263SOL    HW249600   4.952   2.086   3.599  0.2407  1.5529 -0.6692
16264SOL     OW49601   2.460   1.335   6.886  0.1045  0.1377  0.5505
16264SOL    HW149602   2.421   1.360   6.802  1.1463 -1.3996 -0.4670
16264SOL    HW249603   2.472   1.240   6.878  0.6247  0.0308  2.2902
16265SOL     OW49604   1.815   6.351   7.098  0.0996  0.3077 -0.2617
16265SOL    HW149605   1.764   6.370   7.176  3.3223  0.6230  1.9654
16265SOL    HW249606   1.831   6.436   7.058  0.7842  0.4899  0.3771
16266SOL     OW49607   6.964   7.864   4.639 -0.3443 -0.1677 -0.1839
16266SOL    HW149608   6.956   7.785   4.692 -0.7271 -0.1430 -0.1994
16266SOL    HW249609   6.909   7.928   4.684  0.6312  0.3539  0.3097
16267SOL     OW49610   3.244   0.566   2.073 -0.1513 -0.2706 -0.0813
16267SOL    HW149611   3.338   0.577   2.059 -0.0007 -0.6798  0.5872
16267SOL    HW249612   3.237   0.488   2.127 -0.8196  0.3087  0.6841
16268SOL     OW49613   1.223   7.312   5.664  0.2123 -0.1112 -0.1165
16268SOL    HW149614   1.273   7.339   5.587  0.7315  2.4150  1.0011
16268SOL    HW249615   1.132   7.332   5.642 -0.0810 -2.2949 -1.1678
16269SOL     OW49616   3.864   3.649   7.220  0.1382  0.2210  0.4717
16269SOL    HW149617   3.883   3.560   7.249  0.1476 -0.3038 -1.0177
16269SOL    HW249618   3.768   3.653   7.216  0.1421  0.1512  0.2396
16270SOL     OW49619   2.734   2.830   1.551 -0.1326 -0.4197  0.1615
16270SOL    HW149620   2.819   2.810   1.512  0.4576  0.5054  0.9186
16270SOL    HW249621   2.727   2.771   1.625  0.1302 -0.0897  0.4535
16271SOL     OW49622   6.705   6.959   2.186  0.0363 -0.2429  0.3172
16271SOL    HW149623   6.672   6.912   2.109 -1.3184  1.5149 -0.2415
16271SOL    HW249624   6.799   6.964   2.173 -0.0194 -1.1359 -0.5435
16272SOL     OW49625   1.033   0.213   5.365 -0.6194 -0.0152 -0.2930
16272SOL    HW149626   1.045   0.154   5.292 -3.0060  0.1754 -0.9418
16272SOL    HW249627   0.987   0.161   5.431 -0.4510  0.4065  0.1638
16273SOL     OW49628   3.918   0.364   3.274 -0.4199 -0.1873  0.3762
16273SOL    HW149629   3.898   0.298   3.341 -1.0360  0.4805  0.8649
16273SOL    HW249630   3.833   0.387   3.237 -0.1683  0.0830 -0.0417
16274SOL     OW49631   1.702   4.883   7.138  0.1600 -0.0427 -0.2415
16274SOL    HW149632   1.748   4.857   7.218 -0.8361  1.0014  0.7122
16274SOL    HW249633   1.614   4.846   7.149  0.3095 -0.7556 -1.3405
16275SOL     OW49634   3.466   0.723   7.964  0.0082 -0.8781 -0.2325
16275SOL    HW149635   3.549   0.714   8.011 -0.8331 -2.2318  1.0973
16275SOL    HW249636   3.480   0.796   7.904  1.9461 -0.6751  0.3969
16276SOL     OW49637   0.583   0.333   6.371  0.1317 -0.5805  0.2989
16276SOL    HW149638   0.610   0.375   6.452 -0.0284 -0.5781  0.3518
16276SOL    HW249639   0.649   0.266   6.356 -0.0786 -0.8759  0.6693
16277SOL     OW49640   0.752   3.517   2.442  0.2720 -0.2288  0.2234
16277SOL    HW149641   0.808   3.440   2.431 -0.1381 -0.5011 -0.0102
16277SOL    HW249642   0.807   3.581   2.487  1.4511  0.2798 -1.8389
16278SOL     OW49643   2.314   7.845   2.351 -0.4682 -0.3989 -0.4388
16278SOL    HW149644   2.388   7.891   2.312 -1.8768  0.2588 -2.5173
16278SOL    HW249645   2.322   7.861   2.445  1.7084  0.0643 -0.6444
16279SOL     OW49646   2.444   3.011   6.828  0.6140  0.0609  0.5542
16279SOL    HW149647   2.539   3.020   6.825  0.7542 -1.2907 -0.0162
16279SOL    HW249648   2.422   2.963   6.748 -0.5147  0.0980  0.8210
16280SOL     OW49649   1.057   5.565   4.131  0.3107  0.1445  0.2729
16280SOL    HW149650   1.076   5.659   4.126  0.7751 -0.0014 -1.4819
16280SOL    HW249651   0.968   5.557   4.096  0.3761 -0.0993  0.1666
16281SOL     OW49652   4.442   6.477   7.961 -0.1387  0.2248  0.2709
16281SOL    HW149653   4.504   6.430   7.905 -1.0595 -0.1732 -0.4423
16281SOL    HW249654   4.497   6.538   8.011  0.7319  0.4459 -0.9028
16282SOL     OW49655   1.078   6.569   2.741  0.3037 -0.2903  0.4908
16282SOL    HW149656   1.096   6.636   2.807  1.0028  0.1853 -0.1649
16282SOL    HW249657   1.140   6.499   2.761  0.0721 -0.4354  0.7230
16283SOL     OW49658   7.453   2.887   5.810  0.2026  0.2730 -0.3867
16283SOL    HW149659   7.522   2.868   5.873  1.2629  0.6547 -1.3883
16283SOL    HW249660   7.372   2.860   5.853  0.8454  0.8496  1.2667
16284SOL     OW49661   7.288   1.201   5.963  0.1765 -0.4296  0.1166
16284SOL    HW149662   7.307   1.239   6.048 -0.4619 -1.8970  0.9611
16284SOL    HW249663   7.370   1.212   5.913  1.2476 -1.2617  1.5934
16285SOL     OW49664   5.922   0.033   5.299  0.0149 -0.1152 -0.2208
16285SOL    HW149665   5.852  -0.027   5.270 -1.3412  0.8406  0.9648
16285SOL    HW249666   5.956   0.070   5.217 -0.5980 -0.8795 -0.8479
16286SOL     OW49667   1.452   7.452   4.477  0.0776  0.5843 -0.0336
16286SOL    HW149668   1.465   7.363   4.445 -0.3903  0.9242 -1.2325
16286SOL    HW249669   1.504   7.457   4.557  2.0585 -0.0557 -1.2046
16287SOL     OW49670   4.205   3.716   3.275 -0.1965  0.1896 -0.1044
16287SOL    HW149671   4.300   3.722   3.276 -0.2177  0.4786  0.1480
16287SOL    HW249672   4.176   3.778   3.341 -0.5695  0.2565 -0.3294
16288SOL     OW49673   0.882   4.949   5.869  0.4290  0.4563  0.2581
16288SOL    HW149674   0.829   4.873   5.845  0.4458  0.2600  0.8433
16288SOL    HW249675   0.941   4.961   5.794  0.4284 -0.1025  0.1624
16289SOL     OW49676   3.017   3.715   3.952 -0.4197 -0.0893 -0.2713
16289SOL    HW149677   3.076   3.658   4.003 -1.3996 -0.5991  0.3322
16289SOL    HW249678   2.968   3.654   3.897 -0.5469  0.3119 -0.6046
16290SOL     OW49679   6.447   2.892   2.392 -0.4245  0.4684  0.3600
16290SOL    HW149680   6.471   2.866   2.482  1.2804  1.6596  0.2896
16290SOL    HW249681   6.353   2.908   2.397 -0.7012 -1.1466  1.5021
16291SOL     OW49682   4.316   3.395   0.441 -0.7704 -0.2216 -0.3122
16291SOL    HW149683   4.374   3.419   0.513 -1.0156 -2.7661  0.8360
16291SOL    HW249684   4.253   3.468   0.436  0.2635  0.8078  0.9008
16292SOL     OW49685   6.579   5.126   2.672  0.2288  0.3188 -0.0232
16292SOL    HW149686   6.632   5.046   2.679 -0.1877 -0.1460 -1.6406
16292SOL    HW249687   6.620   5.188   2.732  1.7753 -0.4851 -0.1963
16293SOL     OW49688   0.586   1.356   5.082 -0.0096  0.0073 -0.7870
16293SOL    HW149689   0.599   1.445   5.049  1.3895  0.1720  0.1337
16293SOL    HW249690   0.492   1.340   5.073 -0.1228  1.2008 -1.8853
16294SOL     OW49691   0.862   1.678   1.872  0.2212 -0.4274  0.1276
16294SOL    HW149692   0.811   1.742   1.922 -0.7673 -1.1873  0.1397
16294SOL    HW249693   0.952   1.692   1.899  0.0273  0.9502  0.1294
16295SOL     OW49694   7.414   6.033   4.232  0.1095  0.2469 -0.8041
16295SOL    HW149695   7.472   6.109   4.240  0.0009  0.4127 -1.5653
16295SOL    HW249696   7.465   5.969   4.183 -0.6612  0.7237 -2.2659
16296SOL     OW49697   7.068   6.050   2.219  0.5650 -0.1484  0.4918
16296SOL    HW149698   7.092   6.065   2.311 -1.7572 -2.0973  1.5368
16296SOL    HW249699   7.116   5.970   2.195  1.1262  0.3288  0.0095
16297SOL     OW49700   0.513   6.648   0.689 -0.0321  0.2739 -0.4806
16297SOL    HW149701   0.549   6.605   0.612  0.6723 -0.7019  0.3646
16297SOL    HW249702   0.490   6.576   0.748  2.0410  1.0322  1.3647
16298SOL     OW49703   2.152   4.697   6.402  0.0873  0.3862 -0.5568
16298SOL    HW149704   2.183   4.770   6.347  1.4898  0.2689  0.0452
16298SOL    HW249705   2.118   4.739   6.481  1.2823  0.4002 -0.0260
16299SOL     OW49706   3.358   0.867   4.770 -0.3213  0.4565  0.3414
16299SOL    HW149707   3.297   0.940   4.757 -0.4390  0.8321  2.6615
16299SOL    HW249708   3.444   0.908   4.776 -0.3008  0.3253  0.9398
16300SOL     OW49709   7.695   4.706   7.840 -0.0327 -0.1449 -0.0142
16300SOL    HW149710   7.639   4.649   7.787 -0.9752 -0.2143  1.0072
16300SOL    HW249711   7.772   4.721   7.786 -0.1016 -1.7591 -0.6213
16301SOL     OW49712   1.734   1.274   1.680  0.3428  0.4526 -0.1910
16301SOL    HW149713   1.761   1.300   1.592  0.6872 -1.1252 -0.5899
16301SOL    HW249714   1.658   1.217   1.666 -0.0809  0.8091  0.5912
16302SOL     OW49715   2.178   5.261   3.380  0.1692  0.3992 -0.2317
16302SOL    HW149716   2.247   5.275   3.315  0.3822  1.9068  0.2795
16302SOL    HW249717   2.225   5.241   3.461 -0.0948 -1.3929 -0.4885
16303SOL     OW49718   3.707   6.939   6.402 -0.6693 -0.1879  0.2959
16303SOL    HW149719   3.727   6.860   6.352 -1.0553  1.5773 -2.9282
16303SOL    HW249720   3.792   6.977   6.422 -0.4611  0.4910 -1.6233
16304SOL     OW49721   6.611   0.267   1.433  0.4038  0.0927  0.0305
16304SOL    HW149722   6.556   0.345   1.443 -0.3009 -0.3127 -0.5432
16304SOL    HW249723   6.676   0.274   1.503 -0.0098  0.8925  0.3490
16305SOL     OW49724   6.383   6.094   0.647  0.1318  0.1542  0.0242
16305SOL    HW149725   6.444   6.083   0.573  0.4051  0.3835  0.2112
16305SOL    HW249726   6.432   6.146   0.710 -0.6992  1.4656 -0.3603
16306SOL     OW49727   1.462   4.954   5.362  0.2350  1.0148 -0.3459
16306SOL    HW149728   1.437   4.870   5.322 -0.0023  1.0091 -0.1909
16306SOL    HW249729   1.542   4.979   5.317 -0.1846  1.1521 -1.0424
16307SOL     OW49730   3.276   1.555   2.347 -0.9678  0.3701  0.3019
16307SOL    HW149731   3.299   1.479   2.294 -0.9000 -0.3289  1.3074
16307SOL    HW249732   3.241   1.619   2.284 -0.0514 -0.0838 -0.6990
16308SOL     OW49733   1.667   3.559   7.583 -0.0110 -0.0677 -0.0700
16308SOL    HW149734   1.727   3.486   7.567 -1.3176 -1.2094  0.0538
16308SOL    HW249735   1.655   3.600   7.497  0.2185 -0.4086 -0.2646
16309SOL     OW49736   0.535   7.008   1.165  0.2312 -0.4787  0.0504
16309SOL    HW149737   0.516   7.091   1.210  2.1881 -0.4708  0.9296
16309SOL    HW249738   0.486   7.014   1.083 -1.0861  0.7693  0.8750
16310SOL     OW49739   5.194   6.383   4.231 -0.2529  0.1389 -0.2218
16310SOL    HW149740   5.192   6.474   4.261 -2.8577  1.2772 -3.3621
16310SOL    HW249741   5.136   6.337   4.291  1.1968  0.3974  1.4807
16311SOL     OW49742   3.751   4.915   5.661 -0.1836  0.0346 -0.2126
16311SOL    HW149743   3.701   4.850   5.610 -0.0047 -0.2272 -0.0552
16311SOL    HW249744   3.684   4.975   5.694 -0.5289 -0.9030  0.8585
16312SOL     OW49745   1.361   7.027   3.851  0.0033 -0.2629  0.3269
16312SOL    HW149746   1.345   6.946   3.803 -0.8059 -0.5722  1.0721
16312SOL    HW249747   1.421   7.003   3.921  1.7823  0.3471 -0.9253
16313SOL     OW49748   1.604   7.333   1.167  0.2022  0.1388 -0.4804
16313SOL    HW149749   1.537   7.275   1.130  2.1950 -1.5168 -1.7283
16313SOL    HW249750   1.621   7.298   1.254 -0.7352  0.7652 -0.0287
16314SOL     OW49751   0.400   2.093   2.797  0.6801  0.1765 -0.0220
16314SOL    HW149752   0.388   2.139   2.713  1.9546 -0.8353 -0.7926
16314SOL    HW249753   0.459   2.149   2.847  1.1691  0.0362 -0.4324
16315SOL     OW49754   4.100   2.809   3.104  0.4220 -0.3627 -0.0759
16315SOL    HW149755   4.133   2.721   3.086  2.5180 -0.2798  2.6870
16315SOL    HW249756   4.169   2.851   3.155 -0.9909  2.5344 -0.3162
16316SOL     OW49757   5.078   6.505   3.055 -0.1133 -0.4338 -0.7047
16316SOL    HW149758   5.023   6.438   3.097 -1.2061  0.3384 -0.8706
16316SOL    HW249759   5.140   6.530   3.123 -0.0599 -1.2071 -0.4574
16317SOL     OW49760   3.684   0.284   4.791 -0.2890 -0.4556 -0.5541
16317SOL    HW149761   3.696   0.308   4.883  2.3940 -1.5335 -0.5105
16317SOL    HW249762   3.641   0.359   4.751 -1.3573  0.0967  1.5236
16318SOL     OW49763   7.590   5.458   7.078 -0.5862 -0.4650 -0.3101
16318SOL    HW149764   7.650   5.529   7.101  0.6962 -1.6487  0.1634
16318SOL    HW249765   7.573   5.414   7.161  1.0272 -2.4704 -0.9523
16319SOL     OW49766   5.254   2.593   0.924  0.0433 -0.1715 -0.0893
16319SOL    HW149767   5.276   2.684   0.901  0.4810  0.1807  1.5586
16319SOL    HW249768   5.329   2.563   0.976 -0.4824 -1.1976  0.0940
16320SOL     OW49769   2.703   3.338   4.481 -0.2990 -0.1453  0.2452
16320SOL    HW149770   2.616   3.354   4.517 -0.4494  1.1659 -0.6173
16320SOL    HW249771   2.693   3.260   4.427 -1.3659  0.9043 -1.1366
16321SOL     OW49772   0.235   5.024   1.767  0.1442 -0.1938  0.5807
16321SOL    HW149773   0.167   5.010   1.701  0.4411 -1.5844  0.5391
16321SOL    HW249774   0.313   4.983   1.730  0.6574  0.1790  1.2346
16322SOL     OW49775   2.606   6.818   7.662  0.0309  0.4494  0.2109
16322SOL    HW149776   2.590   6.784   7.750  0.4171 -0.2925  0.0070
16322SOL    HW249777   2.653   6.900   7.675 -2.4977  1.9073  0.7799
16323SOL     OW49778   5.012   2.578   7.040 -0.2700  0.2527 -0.6094
16323SOL    HW149779   4.975   2.602   7.125 -0.2229  1.5275 -0.9316
16323SOL    HW249780   5.102   2.610   7.043 -0.1645 -0.0032 -1.0075
16324SOL     OW49781   6.936   6.252   2.113  0.3128  0.4346  0.4175
16324SOL    HW149782   6.983   6.177   2.151  0.8579  0.4140 -0.2952
16324SOL    HW249783   6.973   6.263   2.026 -1.3127  0.1357 -0.3610
16325SOL     OW49784   5.578   7.343   7.309 -0.2316  0.7774 -0.4310
16325SOL    HW149785   5.487   7.373   7.306 -0.3525  0.3665 -0.8835
16325SOL    HW249786   5.628   7.419   7.278 -0.5445  0.5007 -1.6583
16326SOL     OW49787   5.007   6.215   4.659 -0.1476 -0.1397  0.3853
16326SOL    HW149788   4.955   6.159   4.716 -1.6280  2.3962  1.6976
16326SOL    HW249789   5.098   6.196   4.683 -0.6548  1.7061  4.7444
16327SOL     OW49790   0.342   5.690   0.143 -0.5720 -0.5384 -0.5537
16327SOL    HW149791   0.267   5.639   0.171 -1.9302  0.2348 -2.5561
16327SOL    HW249792   0.305   5.771   0.107  0.9915 -0.9787 -3.4881
16328SOL     OW49793   5.296   3.792   2.694  0.6017 -0.4551 -0.4435
16328SOL    HW149794   5.226   3.795   2.629  0.3149  0.2375 -0.1076
16328SOL    HW249795   5.358   3.860   2.666  0.5202 -0.2134 -0.0468
16329SOL     OW49796   6.244   1.863   4.431  0.3467 -0.2097 -0.1391
16329SOL    HW149797   6.293   1.817   4.499  0.4306 -0.9946 -0.7203
16329SOL    HW249798   6.309   1.884   4.364 -0.3107 -2.5189 -1.5861
16330SOL     OW49799   3.569   5.468   1.804  0.3511  0.4492 -0.0221
16330SOL    HW149800   3.524   5.411   1.742  1.8055 -0.8867  0.0889
16330SOL    HW249801   3.531   5.448   1.889 -0.3574  0.9405 -0.2160
16331SOL     OW49802   3.382   7.367   6.496 -0.2717 -0.0637  0.0756
16331SOL    HW149803   3.412   7.444   6.543  0.2281 -0.1706 -0.0624
16331SOL    HW249804   3.359   7.304   6.565  0.6779 -0.3044  0.1887
16332SOL     OW49805   1.658   4.550   1.078  0.0577 -0.2506  0.5251
16332SOL    HW149806   1.660   4.626   1.020 -1.5886 -0.4014  0.2114
16332SOL    HW249807   1.712   4.576   1.153  2.9191 -0.3701 -1.3711
16333SOL     OW49808   4.332   2.400   7.396 -0.3020 -0.3599 -0.1988
16333SOL    HW149809   4.317   2.494   7.385 -1.8972 -0.7079 -1.2885
16333SOL    HW249810   4.300   2.381   7.484 -0.2376  0.0561 -0.0825
16334SOL     OW49811   5.924   4.233   1.384  0.0714  0.2592 -0.3365
16334SOL    HW149812   6.014   4.200   1.375 -0.2946 -0.7079 -0.5281
16334SOL    HW249813   5.929   4.324   1.356  1.0418  0.2847 -0.1201
16335SOL     OW49814   3.975   6.449   5.785  0.0492  0.1034 -0.2174
16335SOL    HW149815   4.012   6.419   5.869  0.3235  0.1072 -0.3364
16335SOL    HW249816   3.882   6.462   5.804 -0.3094 -1.8000 -0.4010
16336SOL     OW49817   4.319   7.609   1.614 -0.6604 -0.1034 -0.5673
16336SOL    HW149818   4.227   7.623   1.637 -0.7773 -0.6532 -0.6811
16336SOL    HW249819   4.363   7.690   1.642 -1.5023  1.0723 -2.4790
16337SOL     OW49820   2.833   1.301   0.578 -0.2986 -0.0759  0.1877
16337SOL    HW149821   2.916   1.268   0.544  0.5996  0.3940  1.8508
16337SOL    HW249822   2.767   1.246   0.535  0.8238 -0.2586 -1.4029
16338SOL     OW49823   0.053   0.965   2.538 -0.2748 -0.8408 -0.1637
16338SOL    HW149824   0.139   0.927   2.560 -0.1620 -0.0657  0.8206
16338SOL    HW249825   0.010   0.977   2.623 -0.7041  0.2870 -0.5255
16339SOL     OW49826   5.882   1.588   7.177 -0.7031  0.3767  0.0741
16339SOL    HW149827   5.818   1.607   7.246  0.4712  0.8292  1.0638
16339SOL    HW249828   5.871   1.494   7.161 -2.3248  0.6322 -0.5279
16340SOL     OW49829   0.525   7.335   6.082 -0.2223 -0.0301 -0.0904
16340SOL    HW149830   0.615   7.313   6.106  0.6650  0.9667 -2.3105
16340SOL    HW249831   0.515   7.301   5.993 -1.5825  1.1360 -0.4107
16341SOL     OW49832   4.531   3.790   0.751 -0.3935 -0.4283  0.5311
16341SOL    HW149833   4.542   3.800   0.656 -0.4098 -2.7018  0.2350
16341SOL    HW249834   4.438   3.808   0.766 -0.0711  1.5006  0.3803
16342SOL     OW49835   3.664   4.784   2.355 -0.1601 -0.2009  0.1878
16342SOL    HW149836   3.595   4.721   2.336 -0.0111 -0.8499  1.6347
16342SOL    HW249837   3.618   4.864   2.380 -0.3815 -0.3865  0.3791
16343SOL     OW49838   3.339   0.839   5.587 -0.3467  0.3579 -0.1455
16343SOL    HW149839   3.351   0.830   5.493  0.8205 -1.6265  0.1530
16343SOL    HW249840   3.250   0.807   5.603 -0.5807  0.7837 -0.5687
16344SOL     OW49841   7.051   0.306   7.566  0.3430 -0.6109 -0.0254
16344SOL    HW149842   7.108   0.265   7.502 -1.6048  1.2497 -3.2469
16344SOL    HW249843   7.074   0.399   7.563 -1.2386 -0.1652  0.3283
16345SOL     OW49844   6.468   4.266   4.252 -0.3346 -0.2695  0.0426
16345SOL    HW149845   6.532   4.260   4.181 -0.0912 -0.6072  0.2857
16345SOL    HW249846   6.427   4.352   4.240 -1.4826 -0.9813 -1.4880
16346SOL     OW49847   0.012   7.602   2.114  0.0239 -0.3525  0.3739
16346SOL    HW149848  -0.062   7.543   2.125  0.0625 -1.1661 -2.8519
16346SOL    HW249849   0.085   7.546   2.088  0.9600  0.7820  0.4347
16347SOL     OW49850   6.932   7.998   5.110 -0.4057  0.1022  0.0019
16347SOL    HW149851   6.971   8.020   5.026 -0.7303  1.2070  0.1172
16347SOL    HW249852   6.838   7.995   5.094 -0.3729 -1.6224 -0.0714
16348SOL     OW49853   2.350   5.856   2.447  0.1719 -0.0086 -0.0819
16348SOL    HW149854   2.443   5.836   2.437  0.1702 -1.5693  2.3703
16348SOL    HW249855   2.307   5.771   2.448 -0.9128  0.5072  1.7249
16349SOL     OW49856   3.327   7.379   2.540 -0.1582  0.4643  0.1093
16349SOL    HW149857   3.264   7.446   2.564 -0.9877 -0.2663  0.0069
16349SOL    HW249858   3.405   7.401   2.591  0.4053  2.8106 -1.5723
16350SOL     OW49859   0.427   0.734   5.552 -0.5184 -0.1209  0.1316
16350SOL    HW149860   0.427   0.816   5.602  2.4683 -0.0117  0.1305
16350SOL    HW249861   0.453   0.667   5.616 -2.7423 -1.1221  0.0891
16351SOL     OW49862   1.373   7.159   7.531 -0.5137  0.3601  0.7617
16351SOL    HW149863   1.450   7.216   7.526 -2.2371  2.7212 -1.8890
16351SOL    HW249864   1.301   7.218   7.553 -1.9622 -1.3371  0.7847
16352SOL     OW49865   6.993   1.182   5.097 -0.0602  0.2129  0.0085
16352SOL    HW149866   7.062   1.165   5.161 -0.9797  0.3527  1.0755
16352SOL    HW249867   7.018   1.265   5.057  0.8547 -0.1876 -0.2693
16353SOL     OW49868   3.220   3.446   3.408  0.2025  0.5919  0.1834
16353SOL    HW149869   3.176   3.531   3.419 -1.3404 -0.0908 -0.3801
16353SOL    HW249870   3.221   3.433   3.313 -0.7234 -0.5695  0.3162
16354SOL     OW49871   0.937   2.918   0.719 -0.2153 -0.2420  0.0608
16354SOL    HW149872   0.990   2.990   0.754 -0.6189  0.7165 -1.2064
16354SOL    HW249873   0.871   2.902   0.786  0.8746 -0.5837  1.0925
16355SOL     OW49874   0.587   4.388   4.084  0.3335 -0.3936 -0.1030
16355SOL    HW149875   0.664   4.398   4.140 -1.1870  0.3760  1.9759
16355SOL    HW249876   0.558   4.477   4.067 -0.5360 -0.6858 -0.2053
16356SOL     OW49877   6.811   0.681   1.005  0.3630  0.7324 -0.3362
16356SOL    HW149878   6.881   0.746   0.998  1.3092  0.0962  2.1638
16356SOL    HW249879   6.735   0.731   1.033  0.6358  1.0119 -0.0787
16357SOL     OW49880   3.539   0.349   6.756  0.7042  0.1015 -0.2727
16357SOL    HW149881   3.517   0.267   6.712  1.2829  1.1227 -2.6100
16357SOL    HW249882   3.481   0.351   6.833 -1.3900 -1.1361 -1.7188
16358SOL     OW49883   1.947   5.338   2.659 -0.4220  0.1907  0.2256
16358SOL    HW149884   2.037   5.356   2.634 -0.3352 -0.6137 -0.0833
16358SOL    HW249885   1.915   5.421   2.694  1.1493 -0.0916  2.5171
16359SOL     OW49886   7.143   5.881   3.726 -0.0529  0.5576 -0.1362
16359SOL    HW149887   7.135   5.972   3.754 -0.4055  0.8396 -1.1376
16359SOL    HW249888   7.140   5.884   3.631 -0.8696 -0.5807 -0.1712
16360SOL     OW49889   7.304   2.642   1.717  0.6343  0.4731  0.1985
16360SOL    HW149890   7.327   2.671   1.805  0.5410 -2.2620  1.2320
16360SOL    HW249891   7.325   2.548   1.717 -1.2298 -0.0216 -2.0437
16361SOL     OW49892   2.454   3.435   0.647  0.4362 -0.1798  0.0716
16361SOL    HW149893   2.522   3.372   0.671 -0.1319 -0.7219  0.2843
16361SOL    HW249894   2.413   3.460   0.730  0.5935  0.4014 -0.0199
16362SOL     OW49895   0.523   2.284   3.954 -0.2689 -0.2290 -0.2187
16362SOL    HW149896   0.484   2.252   3.873  0.4074  0.3120 -0.7707
16362SOL    HW249897   0.611   2.246   3.955  0.0611  0.5053 -0.2120
16363SOL     OW49898   3.338   6.579   5.489  0.0391  0.2113  0.2421
16363SOL    HW149899   3.276   6.652   5.485  0.2098  0.4506  1.4843
16363SOL    HW249900   3.323   6.530   5.408 -0.3670  1.3861 -0.4293
16364SOL     OW49901   1.775   6.337   4.354  0.3785  0.3240 -0.5908
16364SOL    HW149902   1.813   6.255   4.385  0.9123  1.7120  2.8054
16364SOL    HW249903   1.681   6.327   4.370  0.4805  0.4587  0.1365
16365SOL     OW49904   2.003   5.431   4.595 -0.2141 -0.1787 -0.2516
16365SOL    HW149905   1.937   5.464   4.656  0.4798  0.3268  0.2324
16365SOL    HW249906   1.953   5.376   4.534 -0.9648 -0.3963  0.5435
16366SOL     OW49907   5.739   0.707   3.598 -0.3528  0.1996 -0.9014
16366SOL    HW149908   5.793   0.777   3.563 -0.9664  1.3789  0.4093
16366SOL    HW249909   5.657   0.749   3.622 -0.9556 -1.0835 -0.6199
16367SOL     OW49910   4.832   4.119   1.751 -0.3118  0.1945  0.3216
16367SOL    HW149911   4.802   4.090   1.665 -2.1923 -0.3653  1.1132
16367SOL    HW249912   4.751   4.138   1.800  0.7088  0.8995  1.8321
16368SOL     OW49913   6.108   7.461   4.812  0.0376 -0.1105 -0.0604
16368SOL    HW149914   6.138   7.439   4.724  0.4330 -1.9063  0.4890
16368SOL    HW249915   6.189   7.474   4.862 -0.1821  1.4646 -0.0510
16369SOL     OW49916   2.211   7.606   4.934 -0.1433 -0.1612 -0.0492
16369SOL    HW149917   2.251   7.686   4.968 -0.5105  0.7684 -1.7038
16369SOL    HW249918   2.128   7.635   4.896 -0.7955 -1.5214  0.2734
16370SOL     OW49919   3.111   5.681   2.542  0.4399  0.1947 -0.3742
16370SOL    HW149920   3.051   5.687   2.617 -0.4574  1.3690 -1.1432
16370SOL    HW249921   3.197   5.704   2.577  0.4897 -1.5373  0.7573
16371SOL     OW49922   0.111   7.867   3.592  0.1958  0.2363  0.0468
16371SOL    HW149923   0.067   7.832   3.515  1.1011 -1.4461  0.2452
16371SOL    HW249924   0.071   7.821   3.666  0.1481  0.9644  0.4789
16372SOL     OW49925   7.664   7.996   1.865  0.4652 -0.4733 -0.2921
16372SOL    HW149926   7.637   8.088   1.862  0.0377 -0.6234 -1.0804
16372SOL    HW249927   7.733   7.989   1.799 -0.6101 -1.0642 -1.3988
16373SOL     OW49928   6.989   5.301   0.180  0.6756 -0.1984 -0.5531
16373SOL    HW149929   7.036   5.221   0.156  0.7873  0.3327 -2.2604
16373SOL    HW249930   7.031   5.370   0.129  0.4142  0.9268  0.6988
16374SOL     OW49931   3.069   6.557   2.534 -0.8003  0.2176  0.2359
16374SOL    HW149932   3.128   6.486   2.507 -1.1422 -0.1354  0.4087
16374SOL    HW249933   3.111   6.596   2.610 -0.7008  0.0871  0.2479
16375SOL     OW49934   3.709   0.609   0.039 -0.0401  0.3961 -0.4678
16375SOL    HW149935   3.681   0.525   0.076  1.3070 -0.2375 -0.8166
16375SOL    HW249936   3.802   0.614   0.061  0.1386  1.3028 -1.3893
16376SOL     OW49937   1.962   4.107   4.897  0.0600 -0.0950 -0.1269
16376SOL    HW149938   1.914   4.029   4.870  0.1230  0.0404 -0.6392
16376SOL    HW249939   1.977   4.095   4.991 -2.1346  0.4626  0.3663
16377SOL     OW49940   4.452   1.278   5.222 -0.1202 -0.2506 -0.2461
16377SOL    HW149941   4.527   1.324   5.186  0.4570 -1.6999 -0.9872
16377SOL    HW249942   4.383   1.291   5.158 -0.5864  1.2037  0.5046
16378SOL     OW49943   3.842   4.800   7.828 -0.5677  0.3020  0.2066
16378SOL    HW149944   3.808   4.715   7.857  0.4473 -0.1574  0.0900
16378SOL    HW249945   3.880   4.839   7.906  0.1122  0.0731 -0.0014
16379SOL     OW49946   7.821   1.382   7.826 -0.2721 -0.6607  0.1844
16379SOL    HW149947   7.822   1.313   7.760  2.0809 -0.1297 -0.4377
16379SOL    HW249948   7.913   1.395   7.848 -0.6162  2.3359  0.2215
16380SOL     OW49949   4.445   7.265   6.693 -0.2919 -0.4397 -0.2355
16380SOL    HW149950   4.380   7.326   6.729 -0.4761 -1.1313  0.6478
16380SOL    HW249951   4.442   7.279   6.599  1.2223  2.4993  0.0167
16381SOL     OW49952   6.620   2.544   1.337 -0.8830  0.1851 -0.5355
16381SOL    HW149953   6.565   2.483   1.287 -1.7466  0.4743  0.0261
16381SOL    HW249954   6.594   2.631   1.306 -1.3895  0.3651  0.3514
16382SOL     OW49955   4.950   1.768   3.630 -0.1857 -0.3625 -0.6096
16382SOL    HW149956   4.894   1.735   3.700 -0.0560 -1.0972 -0.8383
16382SOL    HW249957   4.914   1.730   3.550  0.2063 -0.2596 -0.8426
16383SOL     OW49958   0.196   6.060   2.692 -0.1219  0.2686  0.4632
16383SOL    HW149959   0.251   5.986   2.718 -0.8215 -0.7836 -0.8920
16383SOL    HW249960   0.108   6.023   2.685 -0.5134  1.2645 -0.1112
16384SOL     OW49961   0.458   5.518   7.147 -0.1846 -0.2324 -0.1466
16384SOL    HW149962   0.520   5.530   7.074  1.8384 -0.5362  1.4281
16384SOL    HW249963   0.372   5.517   7.105  0.7324  1.6100 -2.3155
16385SOL     OW49964   2.137   0.055   2.622  0.4083  0.0738 -0.1701
16385SOL    HW149965   2.153   0.115   2.550 -1.3391 -0.6685 -1.2521
16385SOL    HW249966   2.223   0.042   2.662  1.2451  1.3069 -1.4671
16386SOL     OW49967   2.395   4.111   5.018 -0.0845  0.2950 -0.1890
16386SOL    HW149968   2.405   4.177   5.086  0.9581 -0.9060  0.8874
16386SOL    HW249969   2.302   4.087   5.022 -0.3983  1.4468 -0.3736
16387SOL     OW49970   6.283   5.101   3.733 -0.6760  0.2587 -0.5316
16387SOL    HW149971   6.313   5.192   3.726  3.0768 -0.8164 -0.5347
16387SOL    HW249972   6.309   5.074   3.820 -0.4214 -1.2271 -1.0465
16388SOL     OW49973   4.314   0.595   0.888  0.1791  0.0940 -0.1100
16388SOL    HW149974   4.288   0.531   0.822  1.7101 -0.7426  0.0579
16388SOL    HW249975   4.409   0.588   0.893  0.2950  1.6809  0.6442
16389SOL     OW49976   5.021   1.837   0.902  0.3233  0.4577 -0.0167
16389SOL    HW149977   4.958   1.907   0.921  0.6511  0.1610  2.4596
16389SOL    HW249978   5.014   1.777   0.976  2.4233 -0.4056 -0.4447
16390SOL     OW49979   6.616   2.146   6.606  0.3332 -1.0219  0.2659
16390SOL    HW149980   6.536   2.173   6.651  1.2697  0.1921  1.2743
16390SOL    HW249981   6.600   2.054   6.583 -1.3788 -0.7765  0.3398
16391SOL     OW49982   0.038   0.752   0.457 -0.0593 -0.1661 -0.5616
16391SOL    HW149983   0.049   0.743   0.552 -1.2411 -0.6971 -0.4514
16391SOL    HW249984  -0.039   0.698   0.437 -0.6305  0.9867 -1.6231
16392SOL     OW49985   3.208   6.797   4.665  0.3018 -0.4620  0.1848
16392SOL    HW149986   3.204   6.751   4.749 -0.7637  0.1478  0.4790
16392SOL    HW249987   3.260   6.875   4.683 -0.4087 -0.0445  0.4119
16393SOL     OW49988   6.617   6.578   6.940 -0.5671 -0.2571 -0.0592
16393SOL    HW149989   6.584   6.598   6.852  1.5427  0.8282 -0.6881
16393SOL    HW249990   6.645   6.663   6.974  1.0714 -1.0076  0.5763
16394SOL     OW49991   1.201   4.805   4.621 -0.1254  0.1610  0.8169
16394SOL    HW149992   1.184   4.811   4.527 -0.9263 -0.8489  0.8670
16394SOL    HW249993   1.260   4.731   4.630 -1.3867 -0.8434  1.2147
16395SOL     OW49994   4.004   5.713   1.035 -0.2521 -0.6043  0.1827
16395SOL    HW149995   3.973   5.773   1.103 -2.1432  1.0023 -1.9301
16395SOL    HW249996   4.099   5.710   1.047 -0.3582  0.9288  1.8391
16396SOL     OW49997   6.315   4.572   5.468  0.1213  0.0807  0.8724
16396SOL    HW149998   6.307   4.525   5.385  0.4773 -0.1352  0.9557
16396SOL    HW249999   6.409   4.582   5.481  0.0733 -0.0273  1.3249
16397SOL     OW50000   6.905   3.994   7.754  0.1839 -0.0586  0.3784
16397SOL    HW150001   6.936   4.085   7.756 -1.0806  0.3743  1.5964
16397SOL    HW250002   6.815   4.000   7.722  0.2761 -0.9502 -0.0615
16398SOL     OW50003   0.393   2.359   1.774  0.1748  0.0979 -0.1865
16398SOL    HW150004   0.359   2.429   1.718  1.5680  0.0816 -1.1043
16398SOL    HW250005   0.353   2.375   1.859 -1.0110  0.8798 -0.8559
16399SOL     OW50006   4.499   1.567   2.989  0.4896 -0.4578  0.0315
16399SOL    HW150007   4.479   1.657   3.016  0.1205 -0.4496 -0.2673
16399SOL    HW250008   4.556   1.534   3.058  1.2989  0.2745 -0.2620
16400SOL     OW50009   7.554   1.659   4.989  0.9386 -0.3785  0.1971
16400SOL    HW150010   7.581   1.634   4.901 -1.1982  0.9865 -0.9348
16400SOL    HW250011   7.467   1.619   5.000  0.7360  0.3119  1.2779
16401SOL     OW50012   5.345   7.490   5.883  0.1247 -0.2532 -0.3047
16401SOL    HW150013   5.361   7.452   5.797  1.1203 -0.0693 -0.2121
16401SOL    HW250014   5.261   7.453   5.910  0.2343 -1.0163 -0.9653
16402SOL     OW50015   3.525   1.354   3.746 -0.8668 -0.1028 -0.2972
16402SOL    HW150016   3.534   1.302   3.827 -0.7393 -2.0334 -1.4781
16402SOL    HW250017   3.430   1.367   3.737 -0.8557  0.5154  0.3747
16403SOL     OW50018   4.420   7.264   2.211  0.2078  0.0183 -0.4034
16403SOL    HW150019   4.510   7.296   2.214  0.5881 -1.0184 -0.3715
16403SOL    HW250020   4.397   7.248   2.302  0.7806 -1.7684 -0.5165
16404SOL     OW50021   6.202   0.120   7.516 -0.1682 -0.4569 -0.0113
16404SOL    HW150022   6.296   0.129   7.500 -0.2206  1.1738  0.4051
16404SOL    HW250023   6.168   0.079   7.437  0.4592  1.8788 -1.6064
16405SOL     OW50024   6.645   1.111   5.458 -0.1466 -0.9031  0.5723
16405SOL    HW150025   6.598   1.068   5.386 -0.1378 -1.7160  1.0394
16405SOL    HW250026   6.610   1.070   5.537  1.1224 -1.3033  0.9517
16406SOL     OW50027   2.322   1.042   1.128 -0.0502 -0.3871  0.0084
16406SOL    HW150028   2.328   1.110   1.061  0.7576 -1.2099 -0.7849
16406SOL    HW250029   2.241   1.062   1.175  0.1508  1.0958 -0.2186
16407SOL     OW50030   0.371   2.325   2.281  0.2043  0.4293 -0.2977
16407SOL    HW150031   0.342   2.415   2.300 -1.2014 -0.0572 -0.0444
16407SOL    HW250032   0.291   2.273   2.285  1.2079 -1.1047  1.1330
16408SOL     OW50033   6.044   5.881   1.352  0.0657  0.1330 -0.3479
16408SOL    HW150034   6.126   5.835   1.332 -0.2518  0.0505 -1.5244
16408SOL    HW250035   6.039   5.878   1.448  1.5234  0.3026 -0.2334
16409SOL     OW50036   5.559   4.745   4.099 -0.1652 -0.0586  0.1563
16409SOL    HW150037   5.623   4.678   4.123  0.4505  1.0747  1.8510
16409SOL    HW250038   5.607   4.806   4.043 -0.5957 -0.6996 -0.9714
16410SOL     OW50039   2.804   5.117   2.719 -0.3646 -0.3576  0.2637
16410SOL    HW150040   2.739   5.070   2.667 -1.0685 -1.9128  2.4002
16410SOL    HW250041   2.796   5.079   2.807  2.5187  0.3110  0.9166
16411SOL     OW50042   4.240   3.569   6.034  0.6953  0.0557 -0.3432
16411SOL    HW150043   4.207   3.657   6.053  1.7392 -0.1445  3.0831
16411SOL    HW250044   4.162   3.515   6.023  0.0126  0.9555  0.0080
16412SOL     OW50045   3.203   7.531   7.433 -0.1617 -0.0576 -0.3850
16412SOL    HW150046   3.121   7.546   7.481 -0.5236 -3.5462  0.2835
16412SOL    HW250047   3.188   7.573   7.348 -2.6842 -0.6447 -0.3076
16413SOL     OW50048   6.435   3.289   5.875 -0.1503 -0.0253  0.6302
16413SOL    HW150049   6.365   3.233   5.841  0.3874 -0.1198 -0.3473
16413SOL    HW250050   6.486   3.314   5.798 -0.4654  1.9598  1.0162
16414SOL     OW50051   1.697   4.451   2.721  0.2513 -0.2886  0.0091
16414SOL    HW150052   1.792   4.450   2.735  0.0566  2.0217  2.2887
16414SOL    HW250053   1.680   4.536   2.680 -0.9454  0.0323  1.1045
16415SOL     OW50054   1.962   7.845   3.589  0.4298  0.1028  0.3135
16415SOL    HW150055   1.868   7.856   3.603  0.5612  1.4616  0.2251
16415SOL    HW250056   1.969   7.808   3.501 -0.0932 -2.2093  1.1531
16416SOL     OW50057   1.517   1.672   4.870  0.0639 -0.0566  0.2857
16416SOL    HW150058   1.552   1.591   4.907 -0.0111 -0.4870 -0.5634
16416SOL    HW250059   1.424   1.655   4.856 -0.4379  0.9240  2.0953
16417SOL     OW50060   4.319   2.370   6.441 -0.3286 -0.0241 -0.4165
16417SOL    HW150061   4.318   2.465   6.449  1.6969 -0.1058  2.2208
16417SOL    HW250062   4.401   2.350   6.398  0.3945 -0.5841  1.1277
16418SOL     OW50063   5.682   7.349   3.534  0.3812  0.5744 -0.7759
16418SOL    HW150064   5.669   7.258   3.506 -0.8860  0.7641 -0.8585
16418SOL    HW250065   5.707   7.343   3.626 -0.4187  0.1612 -0.5747
16419SOL     OW50066   2.061   0.896   3.556  0.1096 -0.0650  0.2161
16419SOL    HW150067   2.007   0.854   3.623  1.3979 -0.2966  1.1360
16419SOL    HW250068   2.020   0.871   3.473  0.2165 -2.2926  0.7812
16420SOL     OW50069   2.636   3.106   4.348 -0.2589  0.4028  0.3444
16420SOL    HW150070   2.585   3.065   4.278  3.4228 -1.7477 -1.3604
16420SOL    HW250071   2.665   3.033   4.403  1.1630  1.4731  1.0933
16421SOL     OW50072   4.893   4.931   4.753 -0.7464  0.2591  0.0209
16421SOL    HW150073   4.892   4.899   4.662  0.5365  0.6337 -0.1426
16421SOL    HW250074   4.833   5.006   4.752 -1.1053 -0.0277 -0.4084
16422SOL     OW50075   5.076   7.072   6.456  0.3443  0.1086  0.0143
16422SOL    HW150076   5.128   7.028   6.523 -0.1988 -1.2757 -0.4218
16422SOL    HW250077   4.986   7.049   6.477  0.1674 -0.3336 -1.1437
16423SOL     OW50078   4.492   1.084   4.984  0.1537  0.4302  0.2739
16423SOL    HW150079   4.414   1.137   5.001 -0.5114  0.0410 -1.3098
16423SOL    HW250080   4.554   1.144   4.943 -0.2434  0.2155 -0.6619
16424SOL     OW50081   2.454   2.854   3.019  0.1101  0.2941  0.1642
16424SOL    HW150082   2.498   2.894   2.944  2.0403  0.5413  1.3363
16424SOL    HW250083   2.396   2.788   2.982 -0.4912  1.7516 -1.6226
16425SOL     OW50084   7.858   5.116   3.769  0.2423 -0.1074 -0.4561
16425SOL    HW150085   7.823   5.029   3.786  1.2455 -0.6280 -0.9641
16425SOL    HW250086   7.880   5.116   3.675  0.6961  0.5252 -0.3618
16426SOL     OW50087   6.211   6.240   5.036 -0.5463  0.0541 -0.2457
16426SOL    HW150088   6.165   6.189   5.103  0.2083  0.2198  0.4178
16426SOL    HW250089   6.192   6.195   4.954  0.9207 -1.9145  0.4423
16427SOL     OW50090   0.170   7.897   4.765 -0.2236 -0.2494 -0.3541
16427SOL    HW150091   0.195   7.873   4.676  0.3705  1.1051 -0.5820
16427SOL    HW250092   0.223   7.841   4.822  0.7370  0.1334 -0.8525
16428SOL     OW50093   7.515   0.900   3.887 -0.2494 -0.4967  0.8712
16428SOL    HW150094   7.540   0.810   3.907 -0.6497 -0.3210  2.2706
16428SOL    HW250095   7.596   0.950   3.896 -0.0642 -0.6838  0.2714
16429SOL     OW50096   0.669   0.477   3.179 -0.8238  0.1050 -0.0207
16429SOL    HW150097   0.693   0.386   3.160  0.2715  0.4340 -0.2864
16429SOL    HW250098   0.591   0.493   3.125 -1.8349 -1.0580  1.0232
16430SOL     OW50099   0.421   3.845   1.797  0.1731  0.2378  0.6356
16430SOL    HW150100   0.361   3.868   1.869  0.1231  0.2168  0.6009
16430SOL    HW250101   0.496   3.804   1.841 -1.0795 -2.4027  0.5210
16431SOL     OW50102   3.733   7.338   7.812 -0.6945  0.1813 -0.3402
16431SOL    HW150103   3.745   7.404   7.881  1.0608 -2.4954  2.1561
16431SOL    HW250104   3.664   7.281   7.845  1.0883 -1.9211 -0.0516
16432SOL     OW50105   6.460   1.309   3.824 -0.2685  0.3827 -0.2269
16432SOL    HW150106   6.492   1.224   3.854  1.2376  1.3772  1.1972
16432SOL    HW250107   6.441   1.297   3.731  0.4625 -1.3489 -0.1900
16433SOL     OW50108   7.621   6.621   5.193 -0.1335 -0.8831 -0.1769
16433SOL    HW150109   7.711   6.615   5.160 -0.1616  0.0562 -0.4475
16433SOL    HW250110   7.588   6.704   5.158 -0.3734 -0.1367  1.6765
16434SOL     OW50111   1.377   3.861   1.856 -0.1014  0.8819 -0.5345
16434SOL    HW150112   1.380   3.842   1.763  1.8258  0.6242 -0.4518
16434SOL    HW250113   1.376   3.957   1.861  2.2522  0.9733 -0.8380
16435SOL     OW50114   1.794   4.321   4.153 -0.4774 -0.2668 -0.0250
16435SOL    HW150115   1.761   4.272   4.228 -1.7528 -0.7406 -0.8628
16435SOL    HW250116   1.880   4.283   4.135  0.6982  1.0702  2.2840
16436SOL     OW50117   7.300   7.620   6.444 -0.2179 -0.0304  0.2514
16436SOL    HW150118   7.263   7.657   6.524 -0.2006  0.8288 -0.1345
16436SOL    HW250119   7.394   7.611   6.462  0.2412  2.4511 -0.4793
16437SOL     OW50120   7.812   0.399   5.600 -0.2053 -0.1756 -0.0466
16437SOL    HW150121   7.876   0.341   5.558  1.3855  1.4103  0.0578
16437SOL    HW250122   7.803   0.364   5.689 -0.3465 -1.0683 -0.4057
16438SOL     OW50123   7.865   7.626   2.798  0.5415 -0.1682 -0.2581
16438SOL    HW150124   7.947   7.674   2.785  0.8570 -0.6024  0.1216
16438SOL    HW250125   7.882   7.539   2.762  0.1148 -0.1370 -0.5413
16439SOL     OW50126   1.438   5.104   1.639 -0.0509 -0.6660  0.5692
16439SOL    HW150127   1.434   5.198   1.656 -0.4234 -0.0193 -2.5289
16439SOL    HW250128   1.349   5.080   1.614  0.4958 -1.3307 -0.8196
16440SOL     OW50129   4.359   6.330   3.027 -0.4854 -0.1525  0.0145
16440SOL    HW150130   4.389   6.362   3.112  0.5432  0.7731 -0.6702
16440SOL    HW250131   4.420   6.260   3.004 -1.2631 -0.9776  0.3930
16441SOL     OW50132   7.580   0.374   4.972  0.2626  0.2863  0.1703
16441SOL    HW150133   7.534   0.334   4.898  0.8775 -1.7178  0.7842
16441SOL    HW250134   7.601   0.300   5.029  0.6947  1.6516  1.8629
16442SOL     OW50135   1.883   6.914   2.476 -0.2646 -0.7776  0.2016
16442SOL    HW150136   1.857   6.935   2.386  0.6260  2.8409  0.6357
16442SOL    HW250137   1.817   6.851   2.506 -2.1632 -0.0424 -2.1344
16443SOL     OW50138   0.443   2.332   4.480  0.4088 -0.4473  0.5705
16443SOL    HW150139   0.420   2.380   4.401 -0.7297  0.9847  1.7218
16443SOL    HW250140   0.520   2.377   4.514  0.8324 -0.9933  0.3420
16444SOL     OW50141   5.433   5.158   5.762 -0.5439 -0.1297 -1.0328
16444SOL    HW150142   5.503   5.212   5.799 -0.2055 -0.5447 -1.0609
16444SOL    HW250143   5.472   5.071   5.752 -1.6724 -0.9014  0.8834
16445SOL     OW50144   4.370   3.714   1.528 -0.8537  0.3280  0.1663
16445SOL    HW150145   4.306   3.770   1.486 -0.7972  1.1979  1.1889
16445SOL    HW250146   4.358   3.730   1.622  0.8815  0.5757  0.3879
16446SOL     OW50147   4.659   0.016   0.959  0.1622 -0.0499 -0.1851
16446SOL    HW150148   4.616   0.051   0.881 -0.3524 -1.3290 -0.4917
16446SOL    HW250149   4.752   0.011   0.935  0.3583  1.6263  0.0778
16447SOL     OW50150   4.096   0.827   6.653  0.5247 -0.3351  0.3181
16447SOL    HW150151   4.025   0.850   6.593  0.0084  0.3745  1.1711
16447SOL    HW250152   4.080   0.881   6.731  2.6377  0.6891  0.1074
16448SOL     OW50153   4.410   1.297   2.016  0.4393  0.2995  0.1885
16448SOL    HW150154   4.329   1.252   1.992  0.7027  0.5017 -1.1681
16448SOL    HW250155   4.441   1.251   2.095  0.4324 -1.5767 -0.8446
16449SOL     OW50156   7.157   5.684   2.178  0.2263 -0.3053 -0.2997
16449SOL    HW150157   7.188   5.665   2.267 -0.1936 -2.5410 -0.5594
16449SOL    HW250158   7.070   5.645   2.175  0.5069 -0.8729 -1.8812
16450SOL     OW50159   7.373   6.985   2.460  0.4856 -0.0420  0.0830
16450SOL    HW150160   7.338   6.945   2.380 -0.7297  1.7809 -0.3677
16450SOL    HW250161   7.458   7.021   2.433  0.6233 -0.4662 -0.0601
16451SOL     OW50162   1.816   4.229   5.155 -0.3053 -0.2132 -0.0612
16451SOL    HW150163   1.750   4.225   5.085 -0.5227 -2.6432  0.1851
16451SOL    HW250164   1.826   4.138   5.182  3.1234  0.0690 -0.0212
16452SOL     OW50165   3.188   4.181   4.169  0.0172  0.2143  0.4408
16452SOL    HW150166   3.279   4.208   4.177  0.3424 -1.3341  3.3411
16452SOL    HW250167   3.192   4.086   4.155 -1.1466  0.2003  0.1053
16453SOL     OW50168   1.970   4.656   0.932  0.2381 -0.3521  0.1148
16453SOL    HW150169   1.950   4.701   0.850  2.5593 -0.1567 -0.3943
16453SOL    HW250170   1.926   4.571   0.924 -2.2948  0.8615  0.1252
16454SOL     OW50171   3.745   0.679   7.514  0.3658  0.4045  0.0827
16454SOL    HW150172   3.772   0.771   7.523  0.7150  0.1977  1.4253
16454SOL    HW250173   3.701   0.659   7.597 -2.0273  0.0726 -1.1735
16455SOL     OW50174   0.504   6.330   2.903 -0.0870  0.1999  0.9049
16455SOL    HW150175   0.568   6.385   2.948 -0.1390  0.0633  1.1509
16455SOL    HW250176   0.540   6.319   2.815 -0.0993  0.6613  0.8401
16456SOL     OW50177   4.069   6.063   4.085 -0.0667 -0.2496 -0.2354
16456SOL    HW150178   4.084   5.998   4.153  1.8545 -0.9216 -1.2233
16456SOL    HW250179   4.027   6.014   4.014  1.4126 -0.4786 -0.9935
16457SOL     OW50180   3.744   4.295   0.090  0.6438  0.4785  0.2357
16457SOL    HW150181   3.791   4.352   0.029  0.7787  1.4082  1.1897
16457SOL    HW250182   3.799   4.217   0.096  0.3956  0.1546 -1.1697
16458SOL     OW50183   7.230   2.550   0.176  0.1478  0.1144 -0.3872
16458SOL    HW150184   7.282   2.600   0.113  0.9749  0.2785  0.4033
16458SOL    HW250185   7.217   2.611   0.249 -0.6317 -0.1388 -0.3091
16459SOL     OW50186   4.606   0.338   4.510 -0.0725 -0.5264 -0.2909
16459SOL    HW150187   4.634   0.337   4.601  0.7819 -0.6187 -0.5491
16459SOL    HW250188   4.523   0.290   4.510 -0.0528 -0.5708  0.4226
16460SOL     OW50189   3.362   1.605   6.046  0.2045 -0.2442  0.8155
16460SOL    HW150190   3.275   1.566   6.039 -0.5298  0.9895  2.3263
16460SOL    HW250191   3.349   1.682   6.101  2.5275 -0.9007  2.4384
16461SOL     OW50192   5.080   4.116   5.035 -0.5896  0.3276 -0.3200
16461SOL    HW150193   5.157   4.172   5.025  0.2777 -0.8204 -0.3108
16461SOL    HW250194   5.033   4.152   5.111  0.6481  0.2786  0.5027
16462SOL     OW50195   6.324   2.524   4.050 -0.2853  0.5926  0.4700
16462SOL    HW150196   6.314   2.488   3.962 -2.5365  0.6875  0.6152
16462SOL    HW250197   6.320   2.618   4.038  0.4811  0.6364  0.5699
16463SOL     OW50198   3.430   7.628   5.110 -0.3176 -0.9992 -0.0132
16463SOL    HW150199   3.427   7.589   5.198 -0.9986 -2.0284 -0.4804
16463SOL    HW250200   3.376   7.706   5.117 -0.0812 -0.8775  0.5709
16464SOL     OW50201   4.370   0.087   4.491  0.0039 -0.5136 -0.0160
16464SOL    HW150202   4.356   0.137   4.572  0.2718 -0.6690  0.1240
16464SOL    HW250203   4.289   0.101   4.441 -0.5134 -1.0885  0.6296
16465SOL     OW50204   3.823   4.093   1.942 -0.0616 -0.0862 -0.2393
16465SOL    HW150205   3.735   4.126   1.962 -0.2065 -0.0870 -0.8487
16465SOL    HW250206   3.881   4.164   1.969 -0.2230 -0.2224  0.4806
16466SOL     OW50207   0.420   6.637   7.362  0.2136 -0.0295  0.6747
16466SOL    HW150208   0.402   6.729   7.381  0.1053  0.1005 -0.0280
16466SOL    HW250209   0.515   6.632   7.353  0.0858  0.5436 -1.7688
16467SOL     OW50210   3.989   5.736   5.754 -0.1166  0.3580 -0.7633
16467SOL    HW150211   3.979   5.816   5.702  0.4194 -0.4426 -2.1525
16467SOL    HW250212   3.916   5.680   5.727  0.0910 -0.0235 -0.5406
16468SOL     OW50213   4.366   0.739   0.339  1.3912 -0.0066 -0.0869
16468SOL    HW150214   4.433   0.702   0.397  1.0087  0.3136  0.5701
16468SOL    HW250215   4.286   0.741   0.393  1.7427  3.3036  0.4872
16469SOL     OW50216   5.110   4.869   3.729 -0.0123 -0.4663  0.0965
16469SOL    HW150217   5.203   4.846   3.732  0.7197  1.2774 -3.3342
16469SOL    HW250218   5.099   4.935   3.797  1.2057 -0.8584  0.7018
16470SOL     OW50219   1.027   2.855   6.941  0.2245  0.1355  0.6525
16470SOL    HW150220   1.040   2.869   7.035  0.8725 -0.1823  0.6142
16470SOL    HW250221   1.013   2.761   6.933 -0.1853  0.2103  0.4662
16471SOL     OW50222   6.632   3.082   3.318 -0.1023  0.7131  0.1290
16471SOL    HW150223   6.631   2.988   3.330 -0.1023  0.7599  0.5107
16471SOL    HW250224   6.540   3.107   3.318 -0.0828  0.8489  1.1875
16472SOL     OW50225   6.198   6.968   4.476 -0.2650 -0.0189 -0.0895
16472SOL    HW150226   6.246   6.919   4.408 -0.6194 -0.1958 -0.2154
16472SOL    HW250227   6.177   6.903   4.542  2.1657  0.5914  1.3861
16473SOL     OW50228   0.273   4.231   2.858 -0.3975 -0.1791 -0.3907
16473SOL    HW150229   0.180   4.247   2.841 -1.2953 -0.3598  3.5496
16473SOL    HW250230   0.286   4.139   2.835 -1.0694 -0.0884 -1.2140
16474SOL     OW50231   5.729   3.324   4.038  0.1182 -0.3411 -0.2281
16474SOL    HW150232   5.788   3.272   4.094  2.6815  2.4856 -0.0430
16474SOL    HW250233   5.765   3.314   3.950 -0.7514 -0.6170 -0.5630
16475SOL     OW50234   2.274   1.562   1.259 -0.0158 -0.1626  0.1747
16475SOL    HW150235   2.321   1.563   1.342 -0.3586 -1.0151  0.3862
16475SOL    HW250236   2.330   1.612   1.199  0.7262 -0.4066  0.6555
16476SOL     OW50237   7.669   1.865   3.019  0.4642  0.2031  0.4880
16476SOL    HW150238   7.743   1.809   3.044  0.7110 -0.1530 -0.9586
16476SOL    HW250239   7.710   1.941   2.978  0.0903  1.0338  1.6139
16477SOL     OW50240   0.456   4.555   1.433 -0.4150 -0.1644 -0.2291
16477SOL    HW150241   0.470   4.572   1.340  0.5118 -2.0689 -0.4835
16477SOL    HW250242   0.391   4.485   1.435  0.0558 -0.5975  0.5095
16478SOL     OW50243   0.456   0.615   7.097  0.2298  0.0859 -0.4517
16478SOL    HW150244   0.475   0.693   7.045  1.3846 -0.2507 -0.5572
16478SOL    HW250245   0.370   0.586   7.067  0.5086  0.3919 -1.5633
16479SOL     OW50246   1.279   4.442   0.985  0.2032 -0.0746 -0.0874
16479SOL    HW150247   1.269   4.514   1.047 -1.5850 -1.7116  1.6964
16479SOL    HW250248   1.219   4.463   0.913 -0.0709  0.3725  0.2682
16480SOL     OW50249   2.701   4.168   0.189  0.0898 -0.3556 -0.4904
16480SOL    HW150250   2.615   4.127   0.177 -0.1344  0.1479 -0.6019
16480SOL    HW250251   2.763   4.098   0.168 -0.2906 -0.3826 -1.5725
16481SOL     OW50252   3.685   0.643   5.333  0.4997 -0.0018 -0.0475
16481SOL    HW150253   3.689   0.567   5.390 -2.5486  0.1877  0.5689
16481SOL    HW250254   3.667   0.607   5.246 -0.5017 -0.0348  0.1652
16482SOL     OW50255   2.202   7.444   7.604 -0.4828 -0.1234 -0.0650
16482SOL    HW150256   2.161   7.372   7.652  0.9315  0.3283  1.9429
16482SOL    HW250257   2.285   7.407   7.573 -0.0119  0.4440  0.4845
16483SOL     OW50258   1.443   5.785   2.685  0.3478 -0.5211  0.1017
16483SOL    HW150259   1.471   5.706   2.733 -0.9107 -1.3953 -0.5646
16483SOL    HW250260   1.428   5.755   2.596 -0.5716  0.3870 -0.0634
16484SOL     OW50261   5.268   0.734   4.128 -0.8885  0.2438  0.0266
16484SOL    HW150262   5.362   0.722   4.112 -0.7438 -2.0057  2.0557
16484SOL    HW250263   5.263   0.815   4.179  0.0389  0.0705  0.4166
16485SOL     OW50264   3.508   4.269   0.948 -0.5686  0.3421 -0.3122
16485SOL    HW150265   3.468   4.188   0.917 -3.6796  1.8191 -0.5803
16485SOL    HW250266   3.515   4.258   1.043 -1.1827 -0.1970 -0.3240
16486SOL     OW50267   3.217   7.907   1.985  0.8081  0.9918  0.0160
16486SOL    HW150268   3.214   7.889   2.079 -0.3551  0.7520 -0.0560
16486SOL    HW250269   3.303   7.946   1.971  1.6058 -0.3859  0.9179
16487SOL     OW50270   2.204   5.556   6.812  0.2795  0.4883 -0.0967
16487SOL    HW150271   2.154   5.499   6.753  0.6151 -1.3000  1.2864
16487SOL    HW250272   2.138   5.615   6.848 -0.2781  0.2426 -0.6785
16488SOL     OW50273   7.334   0.817   6.623  0.4443 -0.5181 -0.4649
16488SOL    HW150274   7.345   0.725   6.599  0.0635 -0.6613 -0.1049
16488SOL    HW250275   7.245   0.838   6.595  0.4623 -0.3128 -0.3704
16489SOL     OW50276   6.477   4.590   1.108  0.1573 -0.4236  0.0413
16489SOL    HW150277   6.569   4.566   1.117 -0.0921 -1.0200  1.1676
16489SOL    HW250278   6.445   4.537   1.035 -0.0886 -2.7379  1.7331
16490SOL     OW50279   0.689   7.687   6.048  0.2613 -0.0302 -0.1229
16490SOL    HW150280   0.595   7.683   6.027 -0.4522  3.4306  1.6867
16490SOL    HW250281   0.733   7.661   5.967 -2.2600  0.8988 -1.9066
16491SOL     OW50282   7.234   7.695   4.050  0.1578 -0.3899  0.3945
16491SOL    HW150283   7.320   7.680   4.088  0.2908 -1.1129 -0.1729
16491SOL    HW250284   7.180   7.624   4.084  0.3929 -1.3211 -1.0872
16492SOL     OW50285   3.951   0.754   4.951 -0.1916 -0.2014  0.1357
16492SOL    HW150286   3.935   0.673   4.902 -0.5496 -0.4899  0.7144
16492SOL    HW250287   3.863   0.786   4.973 -0.0826  0.8584 -0.9006
16493SOL     OW50288   7.175   6.017   4.063  0.0406 -0.3730  0.2214
16493SOL    HW150289   7.263   6.029   4.098  0.2641  0.1041 -0.4932
16493SOL    HW250290   7.120   6.002   4.140  0.5999  0.2010  0.7386
16494SOL     OW50291   0.046   0.113   6.960  0.1593  0.2512  0.2815
16494SOL    HW150292   0.040   0.206   6.938 -2.9503  0.0127 -0.3324
16494SOL    HW250293   0.076   0.071   6.880  0.1845  0.5692  0.1235
16495SOL     OW50294   3.775   4.801   7.117 -0.0281  0.6088  0.7596
16495SOL    HW150295   3.782   4.752   7.035 -0.5997  1.3813  0.2369
16495SOL    HW250296   3.688   4.840   7.114  0.8547  2.7144  0.5475
16496SOL     OW50297   4.786   2.232   0.010  0.3174 -0.4938  0.3541
16496SOL    HW150298   4.783   2.271   0.097 -0.7222 -0.8168  0.4713
16496SOL    HW250299   4.878   2.213  -0.005  0.7527  1.2021  0.6494
16497SOL     OW50300   2.533   0.719   5.609 -0.3395 -0.3091  0.1461
16497SOL    HW150301   2.492   0.692   5.527  2.0125 -0.1853 -1.1623
16497SOL    HW250302   2.510   0.812   5.617  2.1143  0.6705 -2.2931
16498SOL     OW50303   6.297   6.298   7.090 -0.1644 -0.2072 -0.0568
16498SOL    HW150304   6.271   6.379   7.046 -0.3847 -0.6237 -0.6949
16498SOL    HW250305   6.393   6.303   7.094 -0.2504  0.8513  1.3932
16499SOL     OW50306   6.113   1.116   6.815 -1.4069 -0.1205  0.0702
16499SOL    HW150307   6.027   1.151   6.792 -1.9323 -1.0882  0.5118
16499SOL    HW250308   6.096   1.028   6.850 -0.4557  0.4479  2.1578
16500SOL     OW50309   5.751   7.775   4.934 -0.4850  0.0412  0.5846
16500SOL    HW150310   5.716   7.814   4.854 -0.6652 -1.2302  0.0157
16500SOL    HW250311   5.818   7.714   4.904  0.8657  0.9705  1.5446
16501SOL     OW50312   0.480   0.092   4.251 -0.1516 -0.2267 -0.1593
16501SOL    HW150313   0.559   0.053   4.289  0.2119 -0.1156 -0.7858
16501SOL    HW250314   0.440   0.141   4.324  0.8297  0.4468 -0.0486
16502SOL     OW50315   6.273   4.806   4.605  0.1841  0.1928 -0.0483
16502SOL    HW150316   6.363   4.827   4.578  0.7268 -1.5091  0.2619
16502SOL    HW250317   6.221   4.817   4.525  0.8139  0.4215 -0.4352
16503SOL     OW50318   2.403   0.066   1.615 -0.0051  0.3485  0.2926
16503SOL    HW150319   2.383   0.157   1.640 -0.4212  0.9026 -1.8721
16503SOL    HW250320   2.339   0.046   1.546  1.4001 -0.8756 -0.7027
16504SOL     OW50321   0.028   3.383   7.553  0.4652  0.0988  0.4400
16504SOL    HW150322   0.062   3.346   7.472 -2.0161  0.6978 -0.9606
16504SOL    HW250323  -0.043   3.441   7.526 -2.0357 -1.4157  3.1363
16505SOL     OW50324   6.601   4.106   0.212 -0.0066 -0.3081 -0.6037
16505SOL    HW150325   6.689   4.100   0.249 -0.0611  1.3758 -0.1255
16505SOL    HW250326   6.615   4.126   0.120  0.1287  0.8132 -0.3505
16506SOL     OW50327   1.396   2.679   3.821 -0.6867 -0.4722  0.3504
16506SOL    HW150328   1.346   2.673   3.902  0.4221  0.1881  1.1211
16506SOL    HW250329   1.471   2.621   3.835  0.0423  0.4159  0.2135
16507SOL     OW50330   3.429   3.456   1.472 -0.3283  0.0276 -0.1880
16507SOL    HW150331   3.357   3.484   1.415  0.8386  0.2413 -1.6266
16507SOL    HW250332   3.442   3.530   1.532 -0.3018  0.6416 -0.9320
16508SOL     OW50333   0.003   3.446   6.177 -0.1075  0.0718  0.0807
16508SOL    HW150334  -0.070   3.487   6.224 -2.6723 -2.0133 -1.7970
16508SOL    HW250335   0.012   3.360   6.219  2.5632  0.8866  1.4114
16509SOL     OW50336   6.389   6.145   0.039  0.4761  0.0434 -0.3682
16509SOL    HW150337   6.372   6.066  -0.012 -0.5336 -0.0153  0.0392
16509SOL    HW250338   6.484   6.155   0.037  0.4676 -0.0701 -2.0632
16510SOL     OW50339   2.578   3.603   2.741  0.1406  0.4283 -0.7919
16510SOL    HW150340   2.673   3.605   2.732  0.0594 -0.5179 -2.0225
16510SOL    HW250341   2.554   3.512   2.725 -0.8943  0.4403  0.4938
16511SOL     OW50342   7.080   5.887   7.046  0.1673  0.3493 -0.2714
16511SOL    HW150343   7.023   5.959   7.072 -1.5252 -1.0859  0.2749
16511SOL    HW250344   7.168   5.915   7.068 -0.5166  1.9838  0.4762
16512SOL     OW50345   3.661   6.275   5.642 -0.0655 -0.2952  0.2409
16512SOL    HW150346   3.586   6.217   5.655  0.1483 -0.2298  2.0705
16512SOL    HW250347   3.622   6.358   5.615 -0.5035 -0.7473 -0.5765
16513SOL     OW50348   0.568   1.654   5.190 -0.6559 -0.0503  0.1081
16513SOL    HW150349   0.535   1.740   5.166 -0.1102 -0.0978 -0.8963
16513SOL    HW250350   0.644   1.641   5.132  0.8051 -0.1613  1.9484
16514SOL     OW50351   5.964   1.330   7.694 -0.2332  0.1970  0.3534
16514SOL    HW150352   5.997   1.241   7.681  0.2304  0.4544 -0.3502
16514SOL    HW250353   5.930   1.331   7.783 -0.6204 -0.7997  0.2271
16515SOL     OW50354   3.422   3.938   5.518  0.4375  0.0532 -0.0019
16515SOL    HW150355   3.468   3.912   5.438 -0.8788 -0.2728 -0.6868
16515SOL    HW250356   3.398   3.856   5.560  0.9932  0.2252  0.6501
16516SOL     OW50357   0.232   6.676   4.120  0.4854 -0.1703  0.4217
16516SOL    HW150358   0.232   6.670   4.024 -3.3843  1.7736  0.1340
16516SOL    HW250359   0.194   6.593   4.149 -1.0071  0.3567  0.0444
16517SOL     OW50360   2.385   1.020   4.897 -0.0568 -0.1640  0.5612
16517SOL    HW150361   2.425   1.070   4.826 -0.6117 -0.2959  0.1522
16517SOL    HW250362   2.333   1.085   4.945  1.1898  0.1618  1.5262
16518SOL     OW50363   2.188   1.493   0.909  0.7127 -0.0912  0.2836
16518SOL    HW150364   2.144   1.553   0.969  0.8542 -0.3035  0.6065
16518SOL    HW250365   2.276   1.529   0.899  0.7687 -0.1932  0.4052
16519SOL     OW50366   7.972   5.822   1.834  0.1965 -1.0527  0.2162
16519SOL    HW150367   7.913   5.898   1.830 -0.6358 -1.7337 -1.0475
16519SOL    HW250368   8.002   5.820   1.924 -0.1703  0.4785  0.4045
16520SOL     OW50369   2.336   2.423   1.997 -0.3170  0.0079 -0.5410
16520SOL    HW150370   2.304   2.366   1.927 -1.1981 -0.9700  0.5986
16520SOL    HW250371   2.258   2.442   2.050  0.3339  0.6236  0.2340
16521SOL     OW50372   4.649   5.048   2.456  0.1136 -0.0223  0.3179
16521SOL    HW150373   4.591   4.979   2.487 -0.6399  0.4398 -0.0441
16521SOL    HW250374   4.735   5.025   2.492 -0.5140 -0.0865  1.8328
16522SOL     OW50375   0.384   2.266   0.701  0.0429 -0.0860 -0.5618
16522SOL    HW150376   0.337   2.340   0.738 -1.8081 -1.5423  0.1661
16522SOL    HW250377   0.477   2.285   0.717 -0.3946  1.9010 -0.1682
16523SOL     OW50378   4.510   3.999   6.524 -0.1147  0.0868  0.1740
16523SOL    HW150379   4.458   3.954   6.590  0.9405 -1.5896 -0.0586
16523SOL    HW250380   4.591   4.023   6.569  0.2455 -0.2766 -0.2594
16524SOL     OW50381   1.001   3.586   6.942 -0.6719  0.1301  0.0365
16524SOL    HW150382   0.908   3.564   6.944 -0.2364 -1.9031  0.4630
16524SOL    HW250383   1.042   3.510   6.899  1.0037 -0.0130  1.7677
16525SOL     OW50384   5.071   4.927   2.793 -0.0164 -0.1142  0.3879
16525SOL    HW150385   5.042   4.836   2.789 -1.0496  0.2519 -0.9024
16525SOL    HW250386   5.165   4.921   2.815  0.4127 -1.5782 -1.5719
16526SOL     OW50387   7.464   0.609   2.289 -0.1055  0.3312 -0.1997
16526SOL    HW150388   7.468   0.543   2.220  1.2629  1.1325 -0.9255
16526SOL    HW250389   7.422   0.684   2.248 -1.5289 -0.0092  0.5825
16527SOL     OW50390   5.644   0.079   0.482 -0.3594 -0.0553 -0.2053
16527SOL    HW150391   5.582   0.016   0.519  1.3470 -1.4331  0.4353
16527SOL    HW250392   5.620   0.085   0.390 -0.4409 -1.8504 -0.3366
16528SOL     OW50393   7.143   1.479   2.688 -0.1287  0.1173  0.0143
16528SOL    HW150394   7.173   1.546   2.628 -1.2325  0.1529 -0.5312
16528SOL    HW250395   7.219   1.424   2.703  0.3639  0.5527 -0.8121
16529SOL     OW50396   4.120   4.116   7.253 -0.5877  0.2492  0.4682
16529SOL    HW150397   4.083   4.034   7.220 -0.3620  0.6965 -0.9729
16529SOL    HW250398   4.204   4.124   7.207  1.1460 -0.4619  3.2361
16530SOL     OW50399   4.621   1.190   5.599  0.4496 -0.1267 -0.8368
16530SOL    HW150400   4.577   1.272   5.624  0.6795 -0.5703  1.1668
16530SOL    HW250401   4.690   1.218   5.539 -0.6996  0.9066 -1.7465
16531SOL     OW50402   0.643   1.354   2.768 -0.3299 -0.2500  0.6497
16531SOL    HW150403   0.604   1.440   2.780  0.7250  0.4320 -0.6500
16531SOL    HW250404   0.568   1.294   2.765 -1.2944  0.9833 -1.4091
16532SOL     OW50405   7.059   7.387   1.235 -0.5512  0.0466  0.1873
16532SOL    HW150406   6.964   7.385   1.228 -0.5707 -0.5930  0.5753
16532SOL    HW250407   7.077   7.379   1.329 -0.0847 -1.6738 -0.0112
16533SOL     OW50408   3.693   1.284   1.038  0.2854  0.3948  0.2126
16533SOL    HW150409   3.774   1.306   0.992 -0.4768  1.3918 -0.6898
16533SOL    HW250410   3.681   1.355   1.101  0.1698  0.1820  0.4340
16534SOL     OW50411   3.349   2.354   7.793  0.5244 -0.5988 -1.0303
16534SOL    HW150412   3.297   2.316   7.722 -0.5312 -0.8321 -0.1682
16534SOL    HW250413   3.330   2.299   7.869  1.2903 -0.1048 -0.4614
16535SOL     OW50414   7.946   6.153   7.523  0.0961 -0.1948 -0.4539
16535SOL    HW150415   7.946   6.201   7.441 -1.9639 -0.0695 -0.4476
16535SOL    HW250416   7.856   6.160   7.555  0.3403 -1.9219  0.8060
16536SOL     OW50417   6.863   2.030   1.440  0.2659  0.3187  0.2527
16536SOL    HW150418   6.920   1.987   1.503 -1.0759 -0.5245  0.9428
16536SOL    HW250419   6.803   2.082   1.493  0.9101  1.9262 -0.5004
16537SOL     OW50420   3.013   0.999   0.127 -0.1258 -0.0106  0.2784
16537SOL    HW150421   3.094   0.953   0.150 -0.6913 -0.8736  0.5615
16537SOL    HW250422   3.041   1.089   0.111  0.7187  0.0070  1.6541
16538SOL     OW50423   6.812   4.819   2.499  0.3638  0.1235  0.5302
16538SOL    HW150424   6.898   4.779   2.487 -0.2533 -0.7407 -1.4404
16538SOL    HW250425   6.815   4.900   2.448 -0.4275 -0.6575 -0.8224
16539SOL     OW50426   6.437   2.330   4.204 -0.7553  0.4921  0.3695
16539SOL    HW150427   6.385   2.379   4.141 -0.7494 -1.5892 -1.3558
16539SOL    HW250428   6.372   2.296   4.267 -0.9960  1.0125  0.4059
16540SOL     OW50429   3.635   6.609   7.073  0.2782 -0.1323 -0.2868
16540SOL    HW150430   3.552   6.629   7.117  0.7954  0.4125  0.4734
16540SOL    HW250431   3.669   6.695   7.048  1.2788 -0.2211  0.6718
16541SOL     OW50432   1.175   0.494   2.410 -0.2814  0.2472  0.2333
16541SOL    HW150433   1.179   0.399   2.406 -1.7856  0.2016 -0.7885
16541SOL    HW250434   1.089   0.513   2.449  0.3055  1.1886  1.1284
16542SOL     OW50435   3.147   5.111   1.783 -0.3160 -0.4774 -0.5939
16542SOL    HW150436   3.107   5.194   1.758 -2.7268 -0.1231  3.5204
16542SOL    HW250437   3.111   5.048   1.721 -4.2004  0.5725  0.2706
16543SOL     OW50438   6.838   3.857   6.078  0.3462  0.0263 -0.0761
16543SOL    HW150439   6.902   3.926   6.065 -0.1792  0.1581 -2.2567
16543SOL    HW250440   6.786   3.856   5.998 -1.3257 -1.1788  0.9462
16544SOL     OW50441   4.307   2.202   7.897  0.1317 -0.1730  0.3250
16544SOL    HW150442   4.351   2.170   7.976  1.1401  2.0230  0.7546
16544SOL    HW250443   4.233   2.253   7.930  0.1795  0.2159 -0.1494
16545SOL     OW50444   1.183   0.301   6.924 -0.5999 -0.7090 -0.9830
16545SOL    HW150445   1.203   0.347   6.843  1.6282  1.4723  0.6323
16545SOL    HW250446   1.269   0.282   6.962 -1.5455 -0.4646  1.4672
16546SOL     OW50447   4.789   0.850   4.267 -0.0554  0.2011  0.1652
16546SOL    HW150448   4.850   0.781   4.292  0.1644 -0.0984 -1.1407
16546SOL    HW250449   4.763   0.891   4.350 -0.1909 -1.4362  0.9691
16547SOL     OW50450   5.918   0.766   2.998  0.8243  0.3041  0.1035
16547SOL    HW150451   5.955   0.849   3.028  2.7493 -0.3546 -0.2776
16547SOL    HW250452   5.837   0.790   2.955 -0.1783  1.6616  2.5338
16548SOL     OW50453   1.489   3.255   0.440 -0.6425 -0.1604 -0.3595
16548SOL    HW150454   1.579   3.260   0.472 -0.5191 -1.1881 -0.4945
16548SOL    HW250455   1.486   3.172   0.392 -1.3959  0.3427 -1.2031
16549SOL     OW50456   0.140   2.723   2.504  0.3090 -0.0812 -0.0291
16549SOL    HW150457   0.154   2.794   2.567  0.8256  1.7819 -2.1294
16549SOL    HW250458   0.055   2.744   2.464  1.0157  0.0726 -1.5093
16550SOL     OW50459   1.299   6.972   7.751  0.5097  0.5413  0.2333
16550SOL    HW150460   1.259   7.035   7.811  1.4050  1.8359 -0.4700
16550SOL    HW250461   1.303   7.018   7.667  0.0446 -0.9236 -0.6257
16551SOL     OW50462   6.968   3.107   0.527  0.1709  0.1174  0.2851
16551SOL    HW150463   6.889   3.054   0.537  0.7669 -0.9295 -0.3827
16551SOL    HW250464   6.957   3.151   0.443  0.8003 -0.9408 -0.3702
16552SOL     OW50465   5.975   3.860   4.720  0.1890  0.3744 -0.1257
16552SOL    HW150466   5.970   3.824   4.632 -1.2203  0.6818 -0.1843
16552SOL    HW250467   6.064   3.897   4.725  0.7552 -0.8221 -0.9289
16553SOL     OW50468   4.832   2.821   0.916 -0.0878  0.5155  0.5004
16553SOL    HW150469   4.883   2.741   0.903  0.1512  0.8352 -0.7451
16553SOL    HW250470   4.780   2.829   0.835 -0.8692  1.0743  1.0427
16554SOL     OW50471   7.537   7.556   2.490 -0.2882 -0.1698  0.2735
16554SOL    HW150472   7.444   7.568   2.473  0.4625  1.6956 -3.3751
16554SOL    HW250473   7.579   7.634   2.454  2.9183 -2.3201 -1.1540
16555SOL     OW50474   5.597   6.020   4.174 -0.1027 -0.2614 -0.0949
16555SOL    HW150475   5.611   5.983   4.261 -1.1408 -0.0595  0.1690
16555SOL    HW250476   5.680   6.004   4.128  0.2967 -0.7825  0.7707
16556SOL     OW50477   2.781   7.921   2.702  0.0543 -0.0260 -0.7114
16556SOL    HW150478   2.750   7.834   2.728 -0.3810  0.9442  2.4357
16556SOL    HW250479   2.729   7.943   2.624  0.3832 -2.6223 -1.7828
16557SOL     OW50480   1.103   3.925   1.650  0.2208  0.7399 -0.3002
16557SOL    HW150481   1.115   3.868   1.574 -0.0220  2.2769 -1.5235
16557SOL    HW250482   1.021   3.971   1.633  1.8293  3.6044 -0.7868
16558SOL     OW50483   0.915   6.161   0.594  0.0944  0.6421 -0.0863
16558SOL    HW150484   0.957   6.099   0.654 -3.0761 -1.7875 -0.0728
16558SOL    HW250485   0.975   6.235   0.589  2.7237 -1.1267  2.3101
16559SOL     OW50486   6.740   1.311   1.258 -0.3197 -0.0385 -0.1020
16559SOL    HW150487   6.774   1.243   1.316  2.3917  1.1294 -0.1736
16559SOL    HW250488   6.741   1.271   1.171 -1.7409 -0.8605  0.2146
16560SOL     OW50489   7.318   0.804   1.787 -0.2189 -0.4640 -0.7105
16560SOL    HW150490   7.394   0.841   1.743 -0.3736  1.6962  0.6995
16560SOL    HW250491   7.245   0.860   1.761 -0.6156 -0.1750  0.9264
16561SOL     OW50492   4.787   6.497   0.579  0.2510 -0.3309  0.5914
16561SOL    HW150493   4.827   6.583   0.592  0.6889 -0.5775  0.8979
16561SOL    HW250494   4.854   6.446   0.533  0.7898 -1.1196  2.1613
16562SOL     OW50495   1.397   6.255   0.115 -0.0553  0.3366 -0.3468
16562SOL    HW150496   1.358   6.340   0.134  0.2477  0.5194 -0.5266
16562SOL    HW250497   1.483   6.276   0.078  0.5003 -0.0590  0.6598
16563SOL     OW50498   2.774   2.353   0.214 -0.2463  0.2218  0.8891
16563SOL    HW150499   2.864   2.330   0.191 -0.7026 -1.6980  0.8829
16563SOL    HW250500   2.736   2.385   0.132 -0.4351 -1.9278  0.0725
16564SOL     OW50501   3.203   1.602   0.153  0.1133  0.2113  0.6457
16564SOL    HW150502   3.257   1.622   0.076  0.2524 -0.6831  0.4933
16564SOL    HW250503   3.115   1.589   0.117  0.0909  0.2276  0.6954
16565SOL     OW50504   2.131   0.066   1.866 -0.5490 -0.0506  0.2604
16565SOL    HW150505   2.112   0.135   1.930  0.9645  1.1055 -0.4783
16565SOL    HW250506   2.211   0.026   1.897 -1.2565 -1.3121  0.5106
16566SOL     OW50507   7.585   2.081   4.658 -0.4854  0.0113  0.3191
16566SOL    HW150508   7.577   2.166   4.701  0.6470  0.6952 -0.7797
16566SOL    HW250509   7.506   2.033   4.685 -0.9022  1.2231  1.3303
16567SOL     OW50510   5.304   4.390   6.064 -0.1566  0.2191 -0.3332
16567SOL    HW150511   5.246   4.420   6.133 -1.1622  0.6099 -1.3088
16567SOL    HW250512   5.375   4.454   6.062  0.2464 -0.1754  0.7641
16568SOL     OW50513   4.256   3.351   6.900  0.2082 -0.3760  0.1392
16568SOL    HW150514   4.259   3.361   6.995 -1.7029 -1.9771  0.4181
16568SOL    HW250515   4.163   3.355   6.878  0.6008 -0.2177 -1.6608
16569SOL     OW50516   7.272   0.387   3.430  0.0194  0.3161 -0.0924
16569SOL    HW150517   7.182   0.388   3.462  0.0969  0.0830  0.1303
16569SOL    HW250518   7.322   0.341   3.497 -0.2072 -2.2785 -1.5664
16570SOL     OW50519   2.240   3.059   1.577 -0.2001 -0.1398  0.0289
16570SOL    HW150520   2.266   3.140   1.620 -1.4272  0.7070 -0.7522
16570SOL    HW250521   2.183   3.015   1.640  0.2862 -0.2801  0.3674
16571SOL     OW50522   1.039   1.560   1.391  1.2447 -0.4336  0.2759
16571SOL    HW150523   1.111   1.621   1.406  2.5728 -2.1676  1.4475
16571SOL    HW250524   0.983   1.568   1.468 -0.2883  1.4173 -0.9491
16572SOL     OW50525   5.705   5.959   7.644  0.6189 -0.0559  0.1164
16572SOL    HW150526   5.683   5.974   7.735 -0.0689  3.6421 -0.5148
16572SOL    HW250527   5.621   5.942   7.601  0.6736  0.3646 -0.1614
16573SOL     OW50528   1.536   5.201   1.928  0.1746 -0.0351 -0.1769
16573SOL    HW150529   1.512   5.278   1.877  0.5018 -0.3233 -0.7880
16573SOL    HW250530   1.630   5.189   1.910 -0.3665 -2.0089 -2.1152
16574SOL     OW50531   0.862   2.201   2.343 -0.0913 -0.3590 -0.3435
16574SOL    HW150532   0.922   2.218   2.271  1.1599  2.6905  1.2437
16574SOL    HW250533   0.777   2.232   2.311  0.2205 -0.0666 -0.8933
16575SOL     OW50534   7.733   3.374   4.551 -0.1371  0.6567 -0.0503
16575SOL    HW150535   7.638   3.362   4.555 -0.0966 -0.1037 -0.9470
16575SOL    HW250536   7.768   3.286   4.560  0.5642  1.0706  1.6408
16576SOL     OW50537   6.697   4.178   6.016  0.3104 -0.4100 -0.6714
16576SOL    HW150538   6.775   4.212   6.059 -0.0677  1.1493 -1.1238
16576SOL    HW250539   6.627   4.237   6.045 -0.5328 -1.2629 -0.9317
16577SOL     OW50540   2.964   6.907   3.150 -0.2952 -0.5492  0.4399
16577SOL    HW150541   2.984   6.964   3.076 -0.6186 -1.7476 -0.6055
16577SOL    HW250542   2.912   6.962   3.209  0.7820  0.7087  0.2571
16578SOL     OW50543   4.839   3.867   2.689  0.0703  0.0343 -0.5548
16578SOL    HW150544   4.901   3.908   2.749  1.9620 -0.3699 -2.1278
16578SOL    HW250545   4.832   3.928   2.616 -1.0077 -0.1846 -0.6560
16579SOL     OW50546   5.251   6.894   4.822  0.4815  0.0395 -0.1109
16579SOL    HW150547   5.331   6.856   4.856  0.2210  0.8963  1.5646
16579SOL    HW250548   5.265   6.989   4.828 -0.5044  0.2014 -0.1617
16580SOL     OW50549   3.973   6.815   6.774  0.4622 -0.2460 -0.5351
16580SOL    HW150550   3.933   6.883   6.719 -1.2826 -2.6080 -2.4483
16580SOL    HW250551   3.942   6.835   6.863 -0.7849  0.9046 -1.1832
16581SOL     OW50552   6.343   5.923   7.928  0.2639  0.0346  0.4625
16581SOL    HW150553   6.283   5.859   7.967  0.6087 -0.0373  0.8768
16581SOL    HW250554   6.400   5.871   7.871 -1.8909  0.4245 -2.2726
16582SOL     OW50555   1.431   2.447   6.559  0.2102  0.1012 -0.4466
16582SOL    HW150556   1.507   2.403   6.520 -0.9495  0.1331 -2.9097
16582SOL    HW250557   1.368   2.376   6.573  0.0115  0.3445 -0.1133
16583SOL     OW50558   1.820   0.078   3.055  0.3430  0.3282  0.0412
16583SOL    HW150559   1.756   0.025   3.101  2.5520 -3.0501 -0.4318
16583SOL    HW250560   1.839   0.150   3.116 -1.8488 -0.0872  1.3210
16584SOL     OW50561   3.013   2.317   2.677 -0.5752 -0.0812 -0.0580
16584SOL    HW150562   3.084   2.285   2.733  0.8286 -0.5973 -2.0378
16584SOL    HW250563   3.055   2.341   2.595 -2.7338 -0.6887 -1.4290
16585SOL     OW50564   2.591   1.145   7.715  0.2282 -0.4874 -0.6272
16585SOL    HW150565   2.663   1.208   7.723  1.6225 -2.2138  1.8688
16585SOL    HW250566   2.581   1.133   7.621  1.4963  1.6769 -1.1202
16586SOL     OW50567   5.045   5.921   4.629 -0.2953 -0.1773 -0.4083
16586SOL    HW150568   4.984   5.969   4.573  1.5986  2.3864 -0.4289
16586SOL    HW250569   5.007   5.928   4.717 -0.7335  0.2163 -0.6235
16587SOL     OW50570   0.137   5.292   0.960 -0.2156  0.3359  0.3676
16587SOL    HW150571   0.160   5.230   1.029  1.8772 -0.6738 -1.1147
16587SOL    HW250572   0.051   5.263   0.929 -0.2173 -0.5113  1.1221
16588SOL     OW50573   7.565   0.112   6.214 -0.0323  0.0917  0.4218
16588SOL    HW150574   7.660   0.110   6.220  0.0464 -0.9725 -0.7969
16588SOL    HW250575   7.535   0.050   6.281  0.2855 -1.7527 -1.0617
16589SOL     OW50576   1.101   5.134   1.188 -0.5991  0.1808 -0.4822
16589SOL    HW150577   1.176   5.151   1.131 -0.3417 -1.1495 -0.5764
16589SOL    HW250578   1.030   5.187   1.152  0.3353  1.5835 -0.2906
16590SOL     OW50579   6.104   0.992   6.140 -0.7195 -0.3621  0.1021
16590SOL    HW150580   6.047   1.061   6.105 -0.7536 -0.2349  0.3997
16590SOL    HW250581   6.098   1.003   6.235  0.0044 -0.1828  0.1320
16591SOL     OW50582   2.870   3.962   2.347  0.2171 -0.2698  0.6557
16591SOL    HW150583   2.912   4.048   2.358 -0.0311 -0.3425  2.4817
16591SOL    HW250584   2.936   3.910   2.301  1.3129  0.2522  1.5557
16592SOL     OW50585   2.409   0.589   3.632 -0.2810  0.4864 -0.4434
16592SOL    HW150586   2.418   0.648   3.558 -2.3671  0.1941 -0.9856
16592SOL    HW250587   2.352   0.635   3.693 -1.4929 -0.7233 -0.6306
16593SOL     OW50588   2.561   7.165   0.136  0.0590  0.2682  0.5319
16593SOL    HW150589   2.642   7.167   0.187  0.2653  0.5512  0.1976
16593SOL    HW250590   2.499   7.116   0.191  0.5788 -0.3199  0.6000
16594SOL     OW50591   0.128   5.856   0.039  0.1509  0.0777 -0.4500
16594SOL    HW150592   0.080   5.938   0.030  0.8316  0.3916 -1.4175
16594SOL    HW250593   0.146   5.829  -0.051  0.6458 -0.7062 -0.1285
16595SOL     OW50594   7.588   3.130   0.430  0.3348 -0.2316 -0.9370
16595SOL    HW150595   7.532   3.062   0.469  2.2239 -0.9403  0.7482
16595SOL    HW250596   7.529   3.203   0.413 -1.1549 -1.0117  0.5642
16596SOL     OW50597   7.076   3.062   5.698  0.3536 -0.3272  0.0416
16596SOL    HW150598   7.069   3.054   5.793  0.8189 -0.8094  0.0409
16596SOL    HW250599   7.019   2.992   5.664  1.9012 -1.6224 -0.0001
16597SOL     OW50600   3.550   1.136   1.355 -0.4612 -0.2057 -0.5221
16597SOL    HW150601   3.465   1.167   1.386 -1.0209 -2.0409 -0.1003
16597SOL    HW250602   3.546   1.041   1.364  2.5617 -0.2899  1.9916
16598SOL     OW50603   3.629   5.774   4.404 -0.3979 -0.1568 -0.2233
16598SOL    HW150604   3.640   5.680   4.420  0.4028  0.0374  0.4924
16598SOL    HW250605   3.696   5.795   4.339 -1.4602 -0.3159 -1.4003
16599SOL     OW50606   1.235   1.043   1.558 -0.2257 -0.4349  0.4728
16599SOL    HW150607   1.271   0.997   1.482 -0.3832  0.1645  0.0244
16599SOL    HW250608   1.143   1.059   1.535 -0.2661 -0.2167  0.7729
16600SOL     OW50609   5.929   4.894   6.283  0.2050  0.2127  0.1477
16600SOL    HW150610   5.905   4.805   6.254 -0.0640 -0.5733  2.6014
16600SOL    HW250611   5.877   4.951   6.226 -0.5651 -1.2293 -0.6863
16601SOL     OW50612   3.332   1.048   7.935 -0.1445 -0.4302 -0.6926
16601SOL    HW150613   3.298   0.977   7.989  2.6119 -2.2486 -1.1302
16601SOL    HW250614   3.365   1.112   7.998  0.2695 -1.0893 -0.2231
16602SOL     OW50615   0.230   4.779   5.930 -0.4784  0.4282 -0.1623
16602SOL    HW150616   0.227   4.695   5.976  0.5436  1.1568  1.3383
16602SOL    HW250617   0.140   4.793   5.900 -0.8484 -0.8001  0.3040
16603SOL     OW50618   5.506   6.839   0.752  0.2746 -0.1692  0.0602
16603SOL    HW150619   5.513   6.935   0.751 -2.6107  0.1442  1.0528
16603SOL    HW250620   5.519   6.814   0.843  1.2816 -0.7997 -0.2337
16604SOL     OW50621   5.983   6.533   2.901 -0.2050  0.2011 -0.2314
16604SOL    HW150622   5.969   6.438   2.902 -1.9690  0.4130 -0.8178
16604SOL    HW250623   6.073   6.545   2.933 -0.4962 -1.5756  1.4523
16605SOL     OW50624   0.379   0.191   0.074 -0.6459 -0.8454  0.0743
16605SOL    HW150625   0.397   0.284   0.061 -0.1557 -0.8288  0.8208
16605SOL    HW250626   0.354   0.159  -0.013  1.0114 -0.4173 -0.6034
16606SOL     OW50627   0.224   1.114   5.358  0.2811 -0.0173  0.6099
16606SOL    HW150628   0.222   1.191   5.416  2.2914  1.7568 -1.4880
16606SOL    HW250629   0.149   1.127   5.299  0.2624  0.0216  0.6420
16607SOL     OW50630   0.175   4.689   5.221  0.4729 -0.1952  0.1285
16607SOL    HW150631   0.235   4.752   5.262 -0.7224 -0.6470  2.7347
16607SOL    HW250632   0.194   4.606   5.265 -2.7153 -0.1417  1.9130
16608SOL     OW50633   7.906   6.360   5.155  0.6820  0.3808 -0.3132
16608SOL    HW150634   7.889   6.450   5.126 -0.5675 -0.0488 -1.0077
16608SOL    HW250635   7.829   6.337   5.207  1.5149  0.0826  0.8357
16609SOL     OW50636   7.279   7.825   4.869  0.1125 -0.0795  0.9342
16609SOL    HW150637   7.278   7.886   4.795 -1.0353 -0.2674  0.7744
16609SOL    HW250638   7.237   7.746   4.835  2.3855 -1.3278  0.8651
16610SOL     OW50639   4.422   5.541   4.015 -0.3279 -0.4537  0.5553
16610SOL    HW150640   4.370   5.463   4.036  0.0200 -1.8781 -2.9758
16610SOL    HW250641   4.478   5.554   4.091 -2.3467 -1.8868  2.4357
16611SOL     OW50642   0.323   6.593   6.849 -0.3891  0.2786  0.4134
16611SOL    HW150643   0.334   6.586   6.944 -0.1835 -1.0508  0.3165
16611SOL    HW250644   0.283   6.679   6.836 -0.5710  0.4198  1.7133
16612SOL     OW50645   2.817   7.423   6.811  0.0123 -0.5256 -0.5596
16612SOL    HW150646   2.811   7.350   6.873 -1.0605 -0.3864 -0.4684
16612SOL    HW250647   2.896   7.405   6.760  1.0988 -0.4867  1.0318
16613SOL     OW50648   4.198   6.781   5.203  0.3278 -0.5748 -0.3005
16613SOL    HW150649   4.256   6.705   5.212 -1.1917 -1.7135  0.3627
16613SOL    HW250650   4.174   6.803   5.294  1.4525  1.3001 -0.4127
16614SOL     OW50651   5.388   6.739   3.607 -0.5639  0.2655 -0.3703
16614SOL    HW150652   5.320   6.767   3.546 -0.2498  0.9044 -0.4440
16614SOL    HW250653   5.341   6.697   3.679 -1.0553  0.8665 -0.3308
16615SOL     OW50654   0.684   7.794   6.812 -0.2664  0.1166 -0.7423
16615SOL    HW150655   0.779   7.788   6.822 -0.0227  1.4686 -1.8319
16615SOL    HW250656   0.662   7.882   6.842 -1.6114 -1.0381  2.0413
16616SOL     OW50657   3.216   3.187   4.083 -0.8134  0.4078  0.2544
16616SOL    HW150658   3.236   3.094   4.075 -0.1850  0.4424  1.2263
16616SOL    HW250659   3.121   3.190   4.095 -1.1765  0.0786 -2.0705
16617SOL     OW50660   7.182   2.122   7.879  0.1689  0.2486 -0.5387
16617SOL    HW150661   7.156   2.052   7.820  0.2838 -0.2128 -0.0445
16617SOL    HW250662   7.240   2.178   7.826  2.4116 -1.5734 -0.1729
16618SOL     OW50663   4.678   6.421   1.315 -0.4408 -0.2589 -0.9791
16618SOL    HW150664   4.722   6.476   1.250 -1.2020 -0.4719 -1.6964
16618SOL    HW250665   4.675   6.335   1.275 -2.1363 -0.0900 -1.2705
16619SOL     OW50666   6.961   1.336   6.546  0.1756  0.0424  0.1233
16619SOL    HW150667   6.877   1.327   6.591 -0.2479  1.1632 -0.4069
16619SOL    HW250668   6.938   1.345   6.454  0.6260  3.2663  0.2200
16620SOL     OW50669   4.421   1.519   2.228  0.1226 -0.0611 -0.0730
16620SOL    HW150670   4.511   1.517   2.263  0.9059  1.3581 -1.8405
16620SOL    HW250671   4.424   1.463   2.151 -0.7399 -0.6516  0.3161
16621SOL     OW50672   5.382   3.232   2.133  0.2553 -0.3936  0.0925
16621SOL    HW150673   5.320   3.249   2.204 -1.1783 -1.7869 -0.7611
16621SOL    HW250674   5.351   3.151   2.093  2.5256 -1.0104 -0.5366
16622SOL     OW50675   2.794   5.143   1.443 -0.0639 -0.2356  0.2026
16622SOL    HW150676   2.708   5.131   1.404 -0.3828 -0.4992  0.9697
16622SOL    HW250677   2.856   5.113   1.376 -0.6156 -1.1329  0.0844
16623SOL     OW50678   4.275   6.966   5.009  0.1716 -0.4476 -0.5538
16623SOL    HW150679   4.234   6.887   5.042 -1.2745 -0.4363 -2.2065
16623SOL    HW250680   4.323   7.001   5.084  0.6785 -2.7355  0.2831
16624SOL     OW50681   4.884   0.483   0.530  0.2562  0.1998 -0.1064
16624SOL    HW150682   4.955   0.510   0.589 -0.0961 -0.0553  0.4510
16624SOL    HW250683   4.922   0.413   0.477  0.2727 -0.3088  0.5610
16625SOL     OW50684   4.527   3.138   7.413  0.3294  0.0126  0.0565
16625SOL    HW150685   4.516   3.099   7.500 -2.9655  0.2712 -0.1229
16625SOL    HW250686   4.544   3.230   7.431  0.2864 -0.0495  0.4344
16626SOL     OW50687   7.065   0.253   0.753 -0.4259 -0.4577 -0.3117
16626SOL    HW150688   7.060   0.290   0.841  0.9212  0.9642 -0.7786
16626SOL    HW250689   7.064   0.158   0.766  3.2337 -0.4084  1.5990
16627SOL     OW50690   5.359   1.905   3.070  0.4519 -0.4249  0.3142
16627SOL    HW150691   5.433   1.847   3.083  0.8391  0.0692  0.3638
16627SOL    HW250692   5.387   1.989   3.107 -0.6038 -0.5624  1.4826
16628SOL     OW50693   5.184   7.141   4.295 -0.2219  0.4052 -0.3698
16628SOL    HW150694   5.108   7.139   4.353 -0.7072 -0.3204 -1.0085
16628SOL    HW250695   5.156   7.094   4.217 -0.0507  2.4863 -1.7844
16629SOL     OW50696   7.562   4.160   3.778 -0.3172 -0.1069  0.6437
16629SOL    HW150697   7.582   4.131   3.867 -1.2307  0.4857  1.0616
16629SOL    HW250698   7.473   4.127   3.761 -0.7178  1.0006  0.5042
16630SOL     OW50699   0.427   5.972   3.863  0.3938  0.6233  0.0533
16630SOL    HW150700   0.439   6.027   3.785  0.8315 -0.9561 -1.0532
16630SOL    HW250701   0.477   6.016   3.931  2.5642  0.5071 -1.3641
16631SOL     OW50702   4.631   0.083   5.769 -0.1439 -0.4057  0.4618
16631SOL    HW150703   4.625   0.163   5.716 -0.8774 -1.1387 -0.5893
16631SOL    HW250704   4.661   0.114   5.855 -2.6608  1.3332  0.8341
16632SOL     OW50705   1.045   1.676   0.808  0.3343 -0.3280  0.5200
16632SOL    HW150706   0.982   1.747   0.824 -0.6284 -1.7331  4.1454
16632SOL    HW250707   1.130   1.713   0.832  0.2594  0.3797 -0.2986
16633SOL     OW50708   6.424   6.437   7.496 -0.2574 -0.1280  0.0253
16633SOL    HW150709   6.472   6.376   7.553  0.7438 -0.5117 -1.1667
16633SOL    HW250710   6.409   6.514   7.550 -0.0148 -0.7701  1.0386
16634SOL     OW50711   0.916   0.273   6.915  0.0407  0.1628 -0.2491
16634SOL    HW150712   0.884   0.362   6.906  1.0589  0.3556 -2.5293
16634SOL    HW250713   1.010   0.279   6.900  0.2521 -1.2017  0.3566
16635SOL     OW50714   6.446   7.826   5.564 -0.2276  0.3509  0.1396
16635SOL    HW150715   6.357   7.839   5.599 -0.4007  1.0072 -0.5095
16635SOL    HW250716   6.437   7.844   5.470  0.5981  0.4521  0.0766
16636SOL     OW50717   0.242   0.116   6.425 -0.8832 -0.5566  0.3290
16636SOL    HW150718   0.312   0.175   6.452 -1.1293 -0.8733  1.7721
16636SOL    HW250719   0.202   0.158   6.349  1.6338 -0.9692 -1.3254
16637SOL     OW50720   7.227   6.933   6.192 -0.1766  0.1160 -0.4240
16637SOL    HW150721   7.311   6.974   6.172 -0.9066  2.2399  0.5224
16637SOL    HW250722   7.201   6.891   6.110  1.4126  0.0959 -0.9620
16638NA      NA50723   5.087   5.454   3.253  0.0922  0.0471 -0.2182
16639NA      NA50724   5.457   7.605   6.233 -0.3270  0.0658  0.5287
16640NA      NA50725   0.302   3.915   7.477  0.2511 -0.4119  0.1507
16641NA      NA50726   5.727   1.664   0.549  0.5757  0.2555  0.0987
16642NA      NA50727   1.580   1.885   4.892 -0.2852  0.3719 -0.2922
16643NA      NA50728   0.681   1.145   2.307  0.1920 -0.1770  0.3198
16644NA      NA50729   1.130   5.050   2.025  0.6489  0.0725  0.1462
16645NA      NA50730   7.834   7.314   0.688 -0.4846 -0.3262  0.1406
16646NA      NA50731   3.207   0.093   4.542 -0.7964  0.1113  0.3996
16647NA      NA50732   3.452   1.857   0.442 -0.5111  0.3789  0.4111
16648NA      NA50733   1.572   0.906   0.805  0.1430  0.0558 -0.4703
16649NA      NA50734   2.707   5.079   4.782 -0.1332  0.2202  0.0087
16650NA      NA50735   7.035   2.187   0.014  0.3137  0.2243  0.6516
16651NA      NA50736   1.368   3.558   5.982 -0.1923  0.2269  0.5718
16652NA      NA50737   1.058   6.009   7.528  0.1921  0.0056  0.4167
16653NA      NA50738   5.995   5.266   3.538 -0.2107  0.0818 -0.1288
16654NA      NA50739   3.469   1.597   1.759  0.4715  0.0402  0.1220
16655NA      NA50740   5.302   7.437   3.693  0.5356 -0.3050  0.3120
16656NA      NA50741   2.486   3.578   3.763 -0.9559 -0.2529 -0.3068
16657NA      NA50742   5.116   2.533   5.732 -0.3919 -0.2041  0.0805
16658NA      NA50743   0.088   1.237   6.166 -0.0896  0.4796 -0.2142
16659NA      NA50744   2.045   7.258   5.301 -0.7473 -0.2369 -0.0943
16660NA      NA50745   6.242   0.857   6.063 -0.1550  0.2933  0.0926
16661NA      NA50746   5.244   7.087   2.376  0.2126  0.1533 -0.1115
16662NA      NA50747   3.191   5.826   1.312  0.0766  0.4301 -0.3208
16663NA      NA50748   6.843   5.223   7.189 -0.2438  0.4728  0.5102
16664NA      NA50749   7.542   4.348   4.847 -0.2061  0.2763 -0.0488
16665NA      NA50750   4.695   4.712   7.991 -0.3007  0.3191 -0.2857
16666NA      NA50751   3.057   3.488   5.140 -0.1545 -0.0816  0.3947
16667NA      NA50752   2.703   5.077   1.162 -0.0578 -0.1394 -0.3455
16668NA      NA50753   5.552   0.531   7.269 -0.3944 -0.0800  0.2063
16669NA      NA50754   4.707   1.461   5.988 -0.0394 -0.1617 -0.2357
16670NA      NA50755   1.032   0.258   7.431  0.5964 -0.3674  0.1113
16671NA      NA50756   7.869   6.707   3.609 -0.3250 -0.0900  0.1856
16672NA      NA50757   2.914   6.014   1.820  0.1014  0.3138 -0.3485
16673NA      NA50758   0.388   2.244   4.139  0.0632  0.5594  0.1735
16674NA      NA50759   2.686   5.969   4.848  0.6930 -0.6929 -0.0152
16675NA      NA50760   7.081   3.567   1.670 -0.0540 -0.0873 -0.1525
16676NA      NA50761   0.492   0.889   5.167  0.6512  0.1271  0.2263
16677NA      NA50762   5.432   6.692   0.626  0.5602  0.1577  0.3762
16678NA      NA50763   1.890   4.907   0.649 -0.0411  0.3677 -0.5212
16679NA      NA50764   0.709   5.975   5.804  0.0144  0.3432  0.3960
16680NA      NA50765   5.022   3.412   5.471 -0.2903 -0.2944  0.2742
16681NA      NA50766   0.563   3.065   4.143 -0.1305  0.0916  0.5380
16682NA      NA50767   7.114   5.481   3.239 -0.0458  0.1514 -0.2850
16683NA      NA50768   5.549   3.583   1.997  0.2463  0.0068  0.0528
16684NA      NA50769   3.946   7.449   1.270  0.0284 -0.1002  0.0249
16685CL      CL50770   6.089   0.749   6.504  0.4457  0.3543  0.3205
16686CL      CL50771   1.289   7.549   6.639 -0.0113  0.2682  0.2975
16687CL      CL50772   2.896   4.937   1.204 -0.0804 -0.2358 -0.2908
16688CL      CL50773   1.478   7.700   0.703  0.4820  0.1490  0.0067
16689CL      CL50774   4.713   1.709   6.395 -0.2184 -0.0449  0.2668
16690CL      CL50775   2.403   3.714   3.581 -0.3455 -0.2647 -0.1567
16691CL      CL50776   1.227   0.641   1.515  0.3959  0.1032  0.1798
16692CL      CL50777   7.268   0.185   7.370  0.3944 -0.4157 -0.0857
16693CL      CL50778   4.117   2.577   3.604  0.0957  0.1215 -0.3472
16694CL      CL50779   1.571   5.723   5.535  0.0876  0.2691  0.0417
16695CL      CL50780   6.285   3.811   3.005  0.0394  0.4564  0.3935
16696CL      CL50781   6.854   3.082   7.450 -0.2805 -0.4044  0.1243
16697CL      CL50782   6.360   6.601   6.135  0.0476 -0.1240  0.2911
16698CL      CL50783   0.405   7.356   4.744  0.4620 -0.0119 -0.3887
16699CL      CL50784   2.788   4.028   4.199 -0.1237 -0.0386 -0.1194
16700CL      CL50785   5.612   1.530   1.294  0.4833 -0.2292  0.1434
16701CL      CL50786   4.789   1.680   3.899 -0.1615 -0.4632 -0.0103
16702CL      CL50787   1.882   3.391   1.654  0.0775  0.0792 -0.1228
16703CL      CL50788   3.125   5.214   2.416 -0.0616 -0.2929  0.0108
16704CL      CL50789   2.329   5.469   3.147 -0.1644  0.3727 -1.0352
16705CL      CL50790   5.438   1.451   2.217 -0.0563 -0.2470  0.0331
16706CL      CL50791   5.329   7.885   3.848  0.6658  0.1329 -0.3109
16707CL      CL50792   7.798   7.472   3.285 -0.1379  0.0789 -0.0439
16708CL      CL50793   3.839   3.605   3.063 -0.5311 -0.4446 -0.3021
16709CL      CL50794   5.417   4.515   2.965  0.0210 -0.5912  0.0524
16710CL      CL50795   6.686   2.509   2.822  0.2236  0.4918 -0.3223
16711CL      CL50796   1.045   5.878   6.615 -0.3635  0.0536 -0.2318
16712CL      CL50797   4.598   4.659   0.832 -0.2690  0.4686  0.0679
16713CL      CL50798   3.697   0.462   5.070  0.1988 -0.5209 -0.2369
16714CL      CL50799   1.260   4.698   1.704 -0.1822 -0.2170  0.4375
16715CL      CL50800   3.243   7.985   0.049  0.1549  0.0330  0.0689
16716CL      CL50801   7.906   4.210   6.281 -0.3187  0.1748 -0.0372
16717CL      CL50802   5.581   5.183   2.909  0.1247  0.3733  0.2203
16718CL      CL50803   5.341   3.704   1.967  0.0556  0.0125 -0.3740
16719CL      CL50804   1.205   1.738   4.800  0.1258  0.0175 -0.0227
16720CL      CL50805   5.526   5.121   7.012  0.5301 -0.1885 -0.1329
16721CL      CL50806   3.325   7.641   4.418  0.0593 -0.0877 -0.9308
16722CL      CL50807   2.327   2.345   3.849  0.2824 -0.1701  0.1522
16723CL      CL50808   2.161   7.208   6.078 -0.0046 -0.3356 -0.3185
16724CL      CL50809   2.124   1.644   7.992  0.1354  0.2512  0.4213
16725CL      CL50810   2.891   6.046   4.959  0.0425  0.0187  0.4127
16726CL      CL50811   7.817   3.518   6.836  0.0981  0.2193 -0.2111
16727CL      CL50812   6.759   3.723   5.791  0.3337 -0.4506 -0.0308
16728CL      CL50813   2.974   2.962   7.844 -0.3842 -0.5127 -0.2369
16729CL      CL50814   6.209   7.206   7.920  0.3690 -0.2449 -0.1921
16730CL      CL50815   6.838   6.355   7.280 -0.3592  0.3689 -0.3022
16731CL      CL50816   5.513   1.530   0.609  0.5105 -0.4126  0.2247
   8.00408   8.00408   8.00408
