;
;   File g1np_pamam.itp  was generated
;   By user: sairam (1000)
;   On host: sairam
;   At date: Thu. August  4 12:30:02 2023
;
;   This is a standalone topology file
;
;   Created by:
;   ParmEd:       amb2gro_top_gro.py, VERSION 3.4.1
;   Executable:   amb2gro_top_gro.py
;   Library dir:  /usr/local/gromacs/share/gromacs/top
;   Command line:
;     ./amb2gro_top_gro.py -p g1np_pamam.prmtop -c g1np_pamam.inpcrd -t g1np_pamam.itp -g g1np_pamam.gro -b g1np_pamam.pdb
;

;[ defaults ]
;; nbfunc        comb-rule       gen-pairs       fudgeLJ fudgeQQ
;1               2               yes             0.5          0.83333333  
;
;[ atomtypes ]
;; name    at.num    mass    charge ptype  sigma      epsilon
;c3             6  12.010000  0.00000000  A     0.33996695      0.4577296
;h1             1   1.008000  0.00000000  A      0.2471353      0.0656888
;n3             7  14.010000  0.00000000  A     0.32499985        0.71128
;hc             1   1.008000  0.00000000  A     0.26495328      0.0656888
;c              6  12.010000  0.00000000  A     0.33996695       0.359824
;o              8  16.000000  0.00000000  A     0.29599219        0.87864
;n              7  14.010000  0.00000000  A     0.32499985        0.71128
;hn             1   1.008000  0.00000000  A     0.10690785      0.0656888


[ moleculetype ]
; Name            nrexcl
g1np_pamam          3

[ atoms ]
;   nr       type  resnr residue  atom   cgnr    charge       mass  typeB    chargeB      massB
; residue    1 aaa rtp aaa q -0.0
    1         c3      1    aaa     C1      1 0.02890000  12.010000   ; qtot 0.028900
    2         h1      1    aaa     H1      2 0.08460000   1.008000   ; qtot 0.113500
    3         h1      1    aaa     H2      3 0.08460000   1.008000   ; qtot 0.198100
    4         c3      1    aaa     C2      4 0.02890000  12.010000   ; qtot 0.227000
    5         h1      1    aaa     H3      5 0.08460000   1.008000   ; qtot 0.311600
    6         h1      1    aaa     H4      6 0.08460000   1.008000   ; qtot 0.396200
    7         n3      1    aaa     N1      7 -0.65770000  14.010000   ; qtot -0.261500
    8         n3      1    aaa     N2      8 -0.65770000  14.010000   ; qtot -0.919200
    9         c3      1    aaa     C3      9 0.36940000  12.010000   ; qtot -0.549800
   10         h1      1    aaa     H5     10 0.00650000   1.008000   ; qtot -0.543300
   11         h1      1    aaa     H6     11 0.00650000   1.008000   ; qtot -0.536800
   12         c3      1    aaa     C4     12 0.36940000  12.010000   ; qtot -0.167400
   13         h1      1    aaa     H7     13 0.00650000   1.008000   ; qtot -0.160900
   14         h1      1    aaa     H8     14 0.00650000   1.008000   ; qtot -0.154400
   15         c3      1    aaa     C5     15 0.36940000  12.010000   ; qtot 0.215000
   16         h1      1    aaa     H9     16 0.00650000   1.008000   ; qtot 0.221500
   17         h1      1    aaa    H10     17 0.00650000   1.008000   ; qtot 0.228000
   18         c3      1    aaa     C6     18 0.36940000  12.010000   ; qtot 0.597400
   19         h1      1    aaa    H11     19 0.00650000   1.008000   ; qtot 0.603900
   20         h1      1    aaa    H12     20 0.00650000   1.008000   ; qtot 0.610400
   21         c3      1    aaa     C7     21 -0.54350000  12.010000   ; qtot 0.066900
   22         hc      1    aaa    H13     22 0.15890000   1.008000   ; qtot 0.225800
   23         hc      1    aaa    H14     23 0.15890000   1.008000   ; qtot 0.384700
   24         c3      1    aaa     C8     24 -0.54350000  12.010000   ; qtot -0.158800
   25         hc      1    aaa    H15     25 0.15890000   1.008000   ; qtot 0.000100
   26         hc      1    aaa    H16     26 0.15890000   1.008000   ; qtot 0.159000
   27         c3      1    aaa     C9     27 -0.54350000  12.010000   ; qtot -0.384500
   28         hc      1    aaa    H17     28 0.15890000   1.008000   ; qtot -0.225600
   29         hc      1    aaa    H18     29 0.15890000   1.008000   ; qtot -0.066700
   30         c3      1    aaa    C10     30 -0.54350000  12.010000   ; qtot -0.610200
   31         hc      1    aaa    H19     31 0.15890000   1.008000   ; qtot -0.451300
   32         hc      1    aaa    H20     32 0.15890000   1.008000   ; qtot -0.292400
   33          c      1    aaa    C11     33 0.67800000  12.010000   ; qtot 0.385600
   34          c      1    aaa    C12     34 0.67800000  12.010000   ; qtot 1.063600
   35          c      1    aaa    C13     35 0.67800000  12.010000   ; qtot 1.741600
   36          c      1    aaa    C14     36 0.67800000  12.010000   ; qtot 2.419600
   37          o      1    aaa     O1     37 -0.60490000  16.000000   ; qtot 1.814700
   38          o      1    aaa     O2     38 -0.60490000  16.000000   ; qtot 1.209800
   39          o      1    aaa     O3     39 -0.60490000  16.000000   ; qtot 0.604900
   40          o      1    aaa     O4     40 -0.60490000  16.000000   ; qtot -0.000000
; residue    2 bbb rtp bbb q -0.0
   41         c3      2    bbb     C1     41 0.44180000  12.010000   ; qtot 0.441800
   42         h1      2    bbb     H1     42 -0.03530000   1.008000   ; qtot 0.406500
   43         h1      2    bbb     H2     43 -0.03530000   1.008000   ; qtot 0.371200
   44         c3      2    bbb     C2     44 -0.28250000  12.010000   ; qtot 0.088700
   45         h1      2    bbb     H3     45 0.15710000   1.008000   ; qtot 0.245800
   46         h1      2    bbb     H4     46 0.15710000   1.008000   ; qtot 0.402900
   47         n3      2    bbb     N1     47 -0.74090000  14.010000   ; qtot -0.338000
   48         c3      2    bbb     C3     48 0.51680000  12.010000   ; qtot 0.178800
   49         h1      2    bbb     H5     49 -0.05230000   1.008000   ; qtot 0.126500
   50         h1      2    bbb     H6     50 -0.05230000   1.008000   ; qtot 0.074200
   51         c3      2    bbb     C4     51 0.51680000  12.010000   ; qtot 0.591000
   52         h1      2    bbb     H7     52 -0.05230000   1.008000   ; qtot 0.538700
   53         h1      2    bbb     H8     53 -0.05230000   1.008000   ; qtot 0.486400
   54         c3      2    bbb     C5     54 -0.60390000  12.010000   ; qtot -0.117500
   55         hc      2    bbb     H9     55 0.16730000   1.008000   ; qtot 0.049800
   56         hc      2    bbb    H10     56 0.16730000   1.008000   ; qtot 0.217100
   57         c3      2    bbb     C6     57 -0.60390000  12.010000   ; qtot -0.386800
   58         hc      2    bbb    H11     58 0.16730000   1.008000   ; qtot -0.219500
   59         hc      2    bbb    H12     59 0.16730000   1.008000   ; qtot -0.052200
   60          c      2    bbb     C7     60 0.72110000  12.010000   ; qtot 0.668900
   61          c      2    bbb     C8     61 0.72110000  12.010000   ; qtot 1.390000
   62          o      2    bbb     O1     62 -0.61950000  16.000000   ; qtot 0.770500
   63          o      2    bbb     O2     63 -0.61950000  16.000000   ; qtot 0.151000
   64          n      2    bbb     N4     64 -0.46580000  14.010000   ; qtot -0.314800
   65         hn      2    bbb    H21     65 0.31480000   1.008000   ; qtot -0.000000
; residue    3 bbb rtp bbb q -0.0
   66         c3      3    bbb     C1     66 0.44180000  12.010000   ; qtot 0.441800
   67         h1      3    bbb     H1     67 -0.03530000   1.008000   ; qtot 0.406500
   68         h1      3    bbb     H2     68 -0.03530000   1.008000   ; qtot 0.371200
   69         c3      3    bbb     C2     69 -0.28250000  12.010000   ; qtot 0.088700
   70         h1      3    bbb     H3     70 0.15710000   1.008000   ; qtot 0.245800
   71         h1      3    bbb     H4     71 0.15710000   1.008000   ; qtot 0.402900
   72         n3      3    bbb     N1     72 -0.74090000  14.010000   ; qtot -0.338000
   73         c3      3    bbb     C3     73 0.51680000  12.010000   ; qtot 0.178800
   74         h1      3    bbb     H5     74 -0.05230000   1.008000   ; qtot 0.126500
   75         h1      3    bbb     H6     75 -0.05230000   1.008000   ; qtot 0.074200
   76         c3      3    bbb     C4     76 0.51680000  12.010000   ; qtot 0.591000
   77         h1      3    bbb     H7     77 -0.05230000   1.008000   ; qtot 0.538700
   78         h1      3    bbb     H8     78 -0.05230000   1.008000   ; qtot 0.486400
   79         c3      3    bbb     C5     79 -0.60390000  12.010000   ; qtot -0.117500
   80         hc      3    bbb     H9     80 0.16730000   1.008000   ; qtot 0.049800
   81         hc      3    bbb    H10     81 0.16730000   1.008000   ; qtot 0.217100
   82         c3      3    bbb     C6     82 -0.60390000  12.010000   ; qtot -0.386800
   83         hc      3    bbb    H11     83 0.16730000   1.008000   ; qtot -0.219500
   84         hc      3    bbb    H12     84 0.16730000   1.008000   ; qtot -0.052200
   85          c      3    bbb     C7     85 0.72110000  12.010000   ; qtot 0.668900
   86          c      3    bbb     C8     86 0.72110000  12.010000   ; qtot 1.390000
   87          o      3    bbb     O1     87 -0.61950000  16.000000   ; qtot 0.770500
   88          o      3    bbb     O2     88 -0.61950000  16.000000   ; qtot 0.151000
   89          n      3    bbb     N4     89 -0.46580000  14.010000   ; qtot -0.314800
   90         hn      3    bbb    H21     90 0.31480000   1.008000   ; qtot -0.000000
; residue    4 bbb rtp bbb q -0.0
   91         c3      4    bbb     C1     91 0.44180000  12.010000   ; qtot 0.441800
   92         h1      4    bbb     H1     92 -0.03530000   1.008000   ; qtot 0.406500
   93         h1      4    bbb     H2     93 -0.03530000   1.008000   ; qtot 0.371200
   94         c3      4    bbb     C2     94 -0.28250000  12.010000   ; qtot 0.088700
   95         h1      4    bbb     H3     95 0.15710000   1.008000   ; qtot 0.245800
   96         h1      4    bbb     H4     96 0.15710000   1.008000   ; qtot 0.402900
   97         n3      4    bbb     N1     97 -0.74090000  14.010000   ; qtot -0.338000
   98         c3      4    bbb     C3     98 0.51680000  12.010000   ; qtot 0.178800
   99         h1      4    bbb     H5     99 -0.05230000   1.008000   ; qtot 0.126500
  100         h1      4    bbb     H6    100 -0.05230000   1.008000   ; qtot 0.074200
  101         c3      4    bbb     C4    101 0.51680000  12.010000   ; qtot 0.591000
  102         h1      4    bbb     H7    102 -0.05230000   1.008000   ; qtot 0.538700
  103         h1      4    bbb     H8    103 -0.05230000   1.008000   ; qtot 0.486400
  104         c3      4    bbb     C5    104 -0.60390000  12.010000   ; qtot -0.117500
  105         hc      4    bbb     H9    105 0.16730000   1.008000   ; qtot 0.049800
  106         hc      4    bbb    H10    106 0.16730000   1.008000   ; qtot 0.217100
  107         c3      4    bbb     C6    107 -0.60390000  12.010000   ; qtot -0.386800
  108         hc      4    bbb    H11    108 0.16730000   1.008000   ; qtot -0.219500
  109         hc      4    bbb    H12    109 0.16730000   1.008000   ; qtot -0.052200
  110          c      4    bbb     C7    110 0.72110000  12.010000   ; qtot 0.668900
  111          c      4    bbb     C8    111 0.72110000  12.010000   ; qtot 1.390000
  112          o      4    bbb     O1    112 -0.61950000  16.000000   ; qtot 0.770500
  113          o      4    bbb     O2    113 -0.61950000  16.000000   ; qtot 0.151000
  114          n      4    bbb     N4    114 -0.46580000  14.010000   ; qtot -0.314800
  115         hn      4    bbb    H21    115 0.31480000   1.008000   ; qtot -0.000000
; residue    5 bbb rtp bbb q -0.0
  116         c3      5    bbb     C1    116 0.44180000  12.010000   ; qtot 0.441800
  117         h1      5    bbb     H1    117 -0.03530000   1.008000   ; qtot 0.406500
  118         h1      5    bbb     H2    118 -0.03530000   1.008000   ; qtot 0.371200
  119         c3      5    bbb     C2    119 -0.28250000  12.010000   ; qtot 0.088700
  120         h1      5    bbb     H3    120 0.15710000   1.008000   ; qtot 0.245800
  121         h1      5    bbb     H4    121 0.15710000   1.008000   ; qtot 0.402900
  122         n3      5    bbb     N1    122 -0.74090000  14.010000   ; qtot -0.338000
  123         c3      5    bbb     C3    123 0.51680000  12.010000   ; qtot 0.178800
  124         h1      5    bbb     H5    124 -0.05230000   1.008000   ; qtot 0.126500
  125         h1      5    bbb     H6    125 -0.05230000   1.008000   ; qtot 0.074200
  126         c3      5    bbb     C4    126 0.51680000  12.010000   ; qtot 0.591000
  127         h1      5    bbb     H7    127 -0.05230000   1.008000   ; qtot 0.538700
  128         h1      5    bbb     H8    128 -0.05230000   1.008000   ; qtot 0.486400
  129         c3      5    bbb     C5    129 -0.60390000  12.010000   ; qtot -0.117500
  130         hc      5    bbb     H9    130 0.16730000   1.008000   ; qtot 0.049800
  131         hc      5    bbb    H10    131 0.16730000   1.008000   ; qtot 0.217100
  132         c3      5    bbb     C6    132 -0.60390000  12.010000   ; qtot -0.386800
  133         hc      5    bbb    H11    133 0.16730000   1.008000   ; qtot -0.219500
  134         hc      5    bbb    H12    134 0.16730000   1.008000   ; qtot -0.052200
  135          c      5    bbb     C7    135 0.72110000  12.010000   ; qtot 0.668900
  136          c      5    bbb     C8    136 0.72110000  12.010000   ; qtot 1.390000
  137          o      5    bbb     O1    137 -0.61950000  16.000000   ; qtot 0.770500
  138          o      5    bbb     O2    138 -0.61950000  16.000000   ; qtot 0.151000
  139          n      5    bbb     N4    139 -0.46580000  14.010000   ; qtot -0.314800
  140         hn      5    bbb    H21    140 0.31480000   1.008000   ; qtot -0.000000
; residue    6 ccc rtp ccc q 0.0
  141         c3      6    ccc     C1    141 -0.02400000  12.010000   ; qtot -0.024000
  142         h1      6    ccc     H1    142 0.10170000   1.008000   ; qtot 0.077700
  143         h1      6    ccc     H2    143 0.10170000   1.008000   ; qtot 0.179400
  144         c3      6    ccc     C2    144 0.52570000  12.010000   ; qtot 0.705100
  145         h1      6    ccc     H3    145 -0.02490000   1.008000   ; qtot 0.680200
  146         h1      6    ccc     H4    146 -0.02490000   1.008000   ; qtot 0.655300
  147         n3      6    ccc     N1    147 -1.33770000  14.010000   ; qtot -0.682400
  148         hn      6    ccc     H5    148 0.47210000   1.008000   ; qtot -0.210300
  149         hn      6    ccc     H6    149 0.47210000   1.008000   ; qtot 0.261800
  150          n      6    ccc     N2    150 -0.59180000  14.010000   ; qtot -0.330000
  151         hn      6    ccc     H7    151 0.33000000   1.008000   ; qtot -0.000000
; residue    7 ccc rtp ccc q 0.0
  152         c3      7    ccc     C1    152 -0.02400000  12.010000   ; qtot -0.024000
  153         h1      7    ccc     H1    153 0.10170000   1.008000   ; qtot 0.077700
  154         h1      7    ccc     H2    154 0.10170000   1.008000   ; qtot 0.179400
  155         c3      7    ccc     C2    155 0.52570000  12.010000   ; qtot 0.705100
  156         h1      7    ccc     H3    156 -0.02490000   1.008000   ; qtot 0.680200
  157         h1      7    ccc     H4    157 -0.02490000   1.008000   ; qtot 0.655300
  158         n3      7    ccc     N1    158 -1.33770000  14.010000   ; qtot -0.682400
  159         hn      7    ccc     H5    159 0.47210000   1.008000   ; qtot -0.210300
  160         hn      7    ccc     H6    160 0.47210000   1.008000   ; qtot 0.261800
  161          n      7    ccc     N2    161 -0.59180000  14.010000   ; qtot -0.330000
  162         hn      7    ccc     H7    162 0.33000000   1.008000   ; qtot -0.000000
; residue    8 ccc rtp ccc q 0.0
  163         c3      8    ccc     C1    163 -0.02400000  12.010000   ; qtot -0.024000
  164         h1      8    ccc     H1    164 0.10170000   1.008000   ; qtot 0.077700
  165         h1      8    ccc     H2    165 0.10170000   1.008000   ; qtot 0.179400
  166         c3      8    ccc     C2    166 0.52570000  12.010000   ; qtot 0.705100
  167         h1      8    ccc     H3    167 -0.02490000   1.008000   ; qtot 0.680200
  168         h1      8    ccc     H4    168 -0.02490000   1.008000   ; qtot 0.655300
  169         n3      8    ccc     N1    169 -1.33770000  14.010000   ; qtot -0.682400
  170         hn      8    ccc     H5    170 0.47210000   1.008000   ; qtot -0.210300
  171         hn      8    ccc     H6    171 0.47210000   1.008000   ; qtot 0.261800
  172          n      8    ccc     N2    172 -0.59180000  14.010000   ; qtot -0.330000
  173         hn      8    ccc     H7    173 0.33000000   1.008000   ; qtot -0.000000
; residue    9 ccc rtp ccc q 0.0
  174         c3      9    ccc     C1    174 -0.02400000  12.010000   ; qtot -0.024000
  175         h1      9    ccc     H1    175 0.10170000   1.008000   ; qtot 0.077700
  176         h1      9    ccc     H2    176 0.10170000   1.008000   ; qtot 0.179400
  177         c3      9    ccc     C2    177 0.52570000  12.010000   ; qtot 0.705100
  178         h1      9    ccc     H3    178 -0.02490000   1.008000   ; qtot 0.680200
  179         h1      9    ccc     H4    179 -0.02490000   1.008000   ; qtot 0.655300
  180         n3      9    ccc     N1    180 -1.33770000  14.010000   ; qtot -0.682400
  181         hn      9    ccc     H5    181 0.47210000   1.008000   ; qtot -0.210300
  182         hn      9    ccc     H6    182 0.47210000   1.008000   ; qtot 0.261800
  183          n      9    ccc     N2    183 -0.59180000  14.010000   ; qtot -0.330000
  184         hn      9    ccc     H7    184 0.33000000   1.008000   ; qtot -0.000000
; residue   10 ccc rtp ccc q 0.0
  185         c3     10    ccc     C1    185 -0.02400000  12.010000   ; qtot -0.024000
  186         h1     10    ccc     H1    186 0.10170000   1.008000   ; qtot 0.077700
  187         h1     10    ccc     H2    187 0.10170000   1.008000   ; qtot 0.179400
  188         c3     10    ccc     C2    188 0.52570000  12.010000   ; qtot 0.705100
  189         h1     10    ccc     H3    189 -0.02490000   1.008000   ; qtot 0.680200
  190         h1     10    ccc     H4    190 -0.02490000   1.008000   ; qtot 0.655300
  191         n3     10    ccc     N1    191 -1.33770000  14.010000   ; qtot -0.682400
  192         hn     10    ccc     H5    192 0.47210000   1.008000   ; qtot -0.210300
  193         hn     10    ccc     H6    193 0.47210000   1.008000   ; qtot 0.261800
  194          n     10    ccc     N2    194 -0.59180000  14.010000   ; qtot -0.330000
  195         hn     10    ccc     H7    195 0.33000000   1.008000   ; qtot -0.000000
; residue   11 ccc rtp ccc q 0.0
  196         c3     11    ccc     C1    196 -0.02400000  12.010000   ; qtot -0.024000
  197         h1     11    ccc     H1    197 0.10170000   1.008000   ; qtot 0.077700
  198         h1     11    ccc     H2    198 0.10170000   1.008000   ; qtot 0.179400
  199         c3     11    ccc     C2    199 0.52570000  12.010000   ; qtot 0.705100
  200         h1     11    ccc     H3    200 -0.02490000   1.008000   ; qtot 0.680200
  201         h1     11    ccc     H4    201 -0.02490000   1.008000   ; qtot 0.655300
  202         n3     11    ccc     N1    202 -1.33770000  14.010000   ; qtot -0.682400
  203         hn     11    ccc     H5    203 0.47210000   1.008000   ; qtot -0.210300
  204         hn     11    ccc     H6    204 0.47210000   1.008000   ; qtot 0.261800
  205          n     11    ccc     N2    205 -0.59180000  14.010000   ; qtot -0.330000
  206         hn     11    ccc     H7    206 0.33000000   1.008000   ; qtot -0.000000
; residue   12 ccc rtp ccc q 0.0
  207         c3     12    ccc     C1    207 -0.02400000  12.010000   ; qtot -0.024000
  208         h1     12    ccc     H1    208 0.10170000   1.008000   ; qtot 0.077700
  209         h1     12    ccc     H2    209 0.10170000   1.008000   ; qtot 0.179400
  210         c3     12    ccc     C2    210 0.52570000  12.010000   ; qtot 0.705100
  211         h1     12    ccc     H3    211 -0.02490000   1.008000   ; qtot 0.680200
  212         h1     12    ccc     H4    212 -0.02490000   1.008000   ; qtot 0.655300
  213         n3     12    ccc     N1    213 -1.33770000  14.010000   ; qtot -0.682400
  214         hn     12    ccc     H5    214 0.47210000   1.008000   ; qtot -0.210300
  215         hn     12    ccc     H6    215 0.47210000   1.008000   ; qtot 0.261800
  216          n     12    ccc     N2    216 -0.59180000  14.010000   ; qtot -0.330000
  217         hn     12    ccc     H7    217 0.33000000   1.008000   ; qtot -0.000000
; residue   13 ccc rtp ccc q 0.0
  218         c3     13    ccc     C1    218 -0.02400000  12.010000   ; qtot -0.024000
  219         h1     13    ccc     H1    219 0.10170000   1.008000   ; qtot 0.077700
  220         h1     13    ccc     H2    220 0.10170000   1.008000   ; qtot 0.179400
  221         c3     13    ccc     C2    221 0.52570000  12.010000   ; qtot 0.705100
  222         h1     13    ccc     H3    222 -0.02490000   1.008000   ; qtot 0.680200
  223         h1     13    ccc     H4    223 -0.02490000   1.008000   ; qtot 0.655300
  224         n3     13    ccc     N1    224 -1.33770000  14.010000   ; qtot -0.682400
  225         hn     13    ccc     H5    225 0.47210000   1.008000   ; qtot -0.210300
  226         hn     13    ccc     H6    226 0.47210000   1.008000   ; qtot 0.261800
  227          n     13    ccc     N2    227 -0.59180000  14.010000   ; qtot -0.330000
  228         hn     13    ccc     H7    228 0.33000000   1.008000   ; qtot -0.000000

[ bonds ]
;    ai     aj funct         c0         c1         c2         c3
      1      4     1   0.15375 251793.120000
      1      8     1   0.14647 272713.120000
      4      7     1   0.14647 272713.120000
      7     15     1   0.14647 272713.120000
      7     18     1   0.14647 272713.120000
      8      9     1   0.14647 272713.120000
      8     12     1   0.14647 272713.120000
      9     30     1   0.15375 251793.120000
     12     27     1   0.15375 251793.120000
     15     21     1   0.15375 251793.120000
     18     24     1   0.15375 251793.120000
     21     35     1   0.15241 261918.400000
     24     36     1   0.15241 261918.400000
     27     33     1   0.15241 261918.400000
     30     34     1   0.15241 261918.400000
     33     37     1   0.12183 533627.360000
     33     64     1   0.13789 357815.680000
     34     40     1   0.12183 533627.360000
     34     89     1   0.13789 357815.680000
     35     38     1   0.12183 533627.360000
     35    114     1   0.13789 357815.680000
     36     39     1   0.12183 533627.360000
     36    139     1   0.13789 357815.680000
     41     44     1   0.15375 251793.120000
     41     47     1   0.14647 272713.120000
     44     64     1   0.14619 275056.160000
     47     48     1   0.14647 272713.120000
     47     51     1   0.14647 272713.120000
     48     57     1   0.15375 251793.120000
     51     54     1   0.15375 251793.120000
     54     60     1   0.15241 261918.400000
     57     61     1   0.15241 261918.400000
     60    150     1   0.13789 357815.680000
     60     62     1   0.12183 533627.360000
     61     63     1   0.12183 533627.360000
     61    161     1   0.13789 357815.680000
     66     69     1   0.15375 251793.120000
     66     72     1   0.14647 272713.120000
     69     89     1   0.14619 275056.160000
     72     73     1   0.14647 272713.120000
     72     76     1   0.14647 272713.120000
     73     82     1   0.15375 251793.120000
     76     79     1   0.15375 251793.120000
     79     85     1   0.15241 261918.400000
     82     86     1   0.15241 261918.400000
     85    172     1   0.13789 357815.680000
     85     87     1   0.12183 533627.360000
     86     88     1   0.12183 533627.360000
     86    183     1   0.13789 357815.680000
     91     94     1   0.15375 251793.120000
     91     97     1   0.14647 272713.120000
     94    114     1   0.14619 275056.160000
     97     98     1   0.14647 272713.120000
     97    101     1   0.14647 272713.120000
     98    107     1   0.15375 251793.120000
    101    104     1   0.15375 251793.120000
    104    110     1   0.15241 261918.400000
    107    111     1   0.15241 261918.400000
    110    194     1   0.13789 357815.680000
    110    112     1   0.12183 533627.360000
    111    113     1   0.12183 533627.360000
    111    205     1   0.13789 357815.680000
    116    119     1   0.15375 251793.120000
    116    122     1   0.14647 272713.120000
    119    139     1   0.14619 275056.160000
    122    123     1   0.14647 272713.120000
    122    126     1   0.14647 272713.120000
    123    132     1   0.15375 251793.120000
    126    129     1   0.15375 251793.120000
    129    135     1   0.15241 261918.400000
    132    136     1   0.15241 261918.400000
    135    216     1   0.13789 357815.680000
    135    137     1   0.12183 533627.360000
    136    227     1   0.13789 357815.680000
    136    138     1   0.12183 533627.360000
    141    144     1   0.15375 251793.120000
    141    150     1   0.14619 275056.160000
    144    147     1   0.14647 272713.120000
    152    155     1   0.15375 251793.120000
    152    161     1   0.14619 275056.160000
    155    158     1   0.14647 272713.120000
    163    166     1   0.15375 251793.120000
    163    172     1   0.14619 275056.160000
    166    169     1   0.14647 272713.120000
    174    177     1   0.15375 251793.120000
    174    183     1   0.14619 275056.160000
    177    180     1   0.14647 272713.120000
    185    188     1   0.15375 251793.120000
    185    194     1   0.14619 275056.160000
    188    191     1   0.14647 272713.120000
    196    199     1   0.15375 251793.120000
    196    205     1   0.14619 275056.160000
    199    202     1   0.14647 272713.120000
    207    210     1   0.15375 251793.120000
    207    216     1   0.14619 275056.160000
    210    213     1   0.14647 272713.120000
    218    221     1   0.15375 251793.120000
    218    227     1   0.14619 275056.160000
    221    224     1   0.14647 272713.120000
      1      2     1   0.10969 276646.080000
      1      3     1   0.10969 276646.080000
      4      5     1   0.10969 276646.080000
      4      6     1   0.10969 276646.080000
      9     10     1   0.10969 276646.080000
      9     11     1   0.10969 276646.080000
     12     13     1   0.10969 276646.080000
     12     14     1   0.10969 276646.080000
     15     16     1   0.10969 276646.080000
     15     17     1   0.10969 276646.080000
     18     19     1   0.10969 276646.080000
     18     20     1   0.10969 276646.080000
     21     22     1   0.10969 276646.080000
     21     23     1   0.10969 276646.080000
     24     25     1   0.10969 276646.080000
     24     26     1   0.10969 276646.080000
     27     28     1   0.10969 276646.080000
     27     29     1   0.10969 276646.080000
     30     31     1   0.10969 276646.080000
     30     32     1   0.10969 276646.080000
     41     42     1   0.10969 276646.080000
     41     43     1   0.10969 276646.080000
     44     45     1   0.10969 276646.080000
     44     46     1   0.10969 276646.080000
     48     49     1   0.10969 276646.080000
     48     50     1   0.10969 276646.080000
     51     52     1   0.10969 276646.080000
     51     53     1   0.10969 276646.080000
     54     55     1   0.10969 276646.080000
     54     56     1   0.10969 276646.080000
     57     58     1   0.10969 276646.080000
     57     59     1   0.10969 276646.080000
     64     65     1   0.10129 337397.760000
     66     67     1   0.10969 276646.080000
     66     68     1   0.10969 276646.080000
     69     70     1   0.10969 276646.080000
     69     71     1   0.10969 276646.080000
     73     74     1   0.10969 276646.080000
     73     75     1   0.10969 276646.080000
     76     77     1   0.10969 276646.080000
     76     78     1   0.10969 276646.080000
     79     80     1   0.10969 276646.080000
     79     81     1   0.10969 276646.080000
     82     83     1   0.10969 276646.080000
     82     84     1   0.10969 276646.080000
     89     90     1   0.10129 337397.760000
     91     92     1   0.10969 276646.080000
     91     93     1   0.10969 276646.080000
     94     95     1   0.10969 276646.080000
     94     96     1   0.10969 276646.080000
     98     99     1   0.10969 276646.080000
     98    100     1   0.10969 276646.080000
    101    102     1   0.10969 276646.080000
    101    103     1   0.10969 276646.080000
    104    105     1   0.10969 276646.080000
    104    106     1   0.10969 276646.080000
    107    108     1   0.10969 276646.080000
    107    109     1   0.10969 276646.080000
    114    115     1   0.10129 337397.760000
    116    117     1   0.10969 276646.080000
    116    118     1   0.10969 276646.080000
    119    120     1   0.10969 276646.080000
    119    121     1   0.10969 276646.080000
    123    124     1   0.10969 276646.080000
    123    125     1   0.10969 276646.080000
    126    127     1   0.10969 276646.080000
    126    128     1   0.10969 276646.080000
    129    130     1   0.10969 276646.080000
    129    131     1   0.10969 276646.080000
    132    133     1   0.10969 276646.080000
    132    134     1   0.10969 276646.080000
    139    140     1   0.10129 337397.760000
    141    142     1   0.10969 276646.080000
    141    143     1   0.10969 276646.080000
    144    145     1   0.10969 276646.080000
    144    146     1   0.10969 276646.080000
    147    148     1   0.10190 328360.320000
    147    149     1   0.10190 328360.320000
    150    151     1   0.10129 337397.760000
    152    153     1   0.10969 276646.080000
    152    154     1   0.10969 276646.080000
    155    156     1   0.10969 276646.080000
    155    157     1   0.10969 276646.080000
    158    159     1   0.10190 328360.320000
    158    160     1   0.10190 328360.320000
    161    162     1   0.10129 337397.760000
    163    164     1   0.10969 276646.080000
    163    165     1   0.10969 276646.080000
    166    167     1   0.10969 276646.080000
    166    168     1   0.10969 276646.080000
    169    170     1   0.10190 328360.320000
    169    171     1   0.10190 328360.320000
    172    173     1   0.10129 337397.760000
    174    175     1   0.10969 276646.080000
    174    176     1   0.10969 276646.080000
    177    178     1   0.10969 276646.080000
    177    179     1   0.10969 276646.080000
    180    181     1   0.10190 328360.320000
    180    182     1   0.10190 328360.320000
    183    184     1   0.10129 337397.760000
    185    186     1   0.10969 276646.080000
    185    187     1   0.10969 276646.080000
    188    189     1   0.10969 276646.080000
    188    190     1   0.10969 276646.080000
    191    192     1   0.10190 328360.320000
    191    193     1   0.10190 328360.320000
    194    195     1   0.10129 337397.760000
    196    197     1   0.10969 276646.080000
    196    198     1   0.10969 276646.080000
    199    200     1   0.10969 276646.080000
    199    201     1   0.10969 276646.080000
    202    203     1   0.10190 328360.320000
    202    204     1   0.10190 328360.320000
    205    206     1   0.10129 337397.760000
    207    208     1   0.10969 276646.080000
    207    209     1   0.10969 276646.080000
    210    211     1   0.10969 276646.080000
    210    212     1   0.10969 276646.080000
    213    214     1   0.10190 328360.320000
    213    215     1   0.10190 328360.320000
    216    217     1   0.10129 337397.760000
    218    219     1   0.10969 276646.080000
    218    220     1   0.10969 276646.080000
    221    222     1   0.10969 276646.080000
    221    223     1   0.10969 276646.080000
    224    225     1   0.10190 328360.320000
    224    226     1   0.10190 328360.320000
    227    228     1   0.10129 337397.760000

[ pairs ]
;    ai     aj funct         c0         c1         c2         c3
      1     15     1
      1     18     1
      1     30     1
      1     27     1
      4      9     1
      4     12     1
      4     21     1
      4     24     1
      8      7     1
      7     35     1
      7     36     1
      8     34     1
      8     33     1
      9     27     1
      9     40     1
      9     89     1
     12     30     1
     12     37     1
     12     64     1
     15     24     1
     15     38     1
     15    114     1
     18     21     1
     18     39     1
     18    139     1
     21     94     1
     24    119     1
     27     44     1
     30     69     1
     33     41     1
     34     66     1
     35     91     1
     36    116     1
     37     44     1
     38     94     1
     39    119     1
     40     69     1
     41     57     1
     41     54     1
     44     48     1
     44     51     1
     47     64     1
     47     61     1
     47     60     1
     48     54     1
     48     63     1
     48    161     1
     51     57     1
     51    150     1
     51     62     1
     54    141     1
     57    152     1
     60    144     1
     61    155     1
     62    141     1
     63    152     1
     66     82     1
     66     79     1
     69     73     1
     69     76     1
     72     89     1
     72     86     1
     72     85     1
     73     79     1
     73     88     1
     73    183     1
     76     82     1
     76    172     1
     76     87     1
     79    163     1
     82    174     1
     85    166     1
     86    177     1
     87    163     1
     88    174     1
     91    107     1
     91    104     1
     94     98     1
     94    101     1
     97    114     1
     97    111     1
     97    110     1
     98    104     1
     98    113     1
     98    205     1
    101    107     1
    101    194     1
    101    112     1
    104    185     1
    107    196     1
    110    188     1
    111    199     1
    112    185     1
    113    196     1
    116    132     1
    116    129     1
    119    123     1
    119    126     1
    122    139     1
    122    136     1
    122    135     1
    123    129     1
    123    227     1
    123    138     1
    126    132     1
    126    216     1
    126    137     1
    129    207     1
    132    218     1
    135    210     1
    136    221     1
    137    207     1
    138    218     1
    147    150     1
    158    161     1
    169    172     1
    180    183     1
    191    194     1
    202    205     1
    213    216     1
    224    227     1
      1     10     1
      1     11     1
      1     13     1
      1     14     1
      2      7     1
      2      5     1
      2      6     1
      2      9     1
      2     12     1
      3      7     1
      3      5     1
      3      6     1
      3      9     1
      3     12     1
      4     16     1
      4     17     1
      4     19     1
      4     20     1
      8      5     1
      5     15     1
      5     18     1
      8      6     1
      6     15     1
      6     18     1
      7     22     1
      7     23     1
      7     25     1
      7     26     1
      8     31     1
      8     32     1
      8     28     1
      8     29     1
      9     13     1
      9     14     1
     10     12     1
     10     34     1
     10     31     1
     10     32     1
     11     12     1
     11     34     1
     11     31     1
     11     32     1
     13     33     1
     13     28     1
     13     29     1
     14     33     1
     14     28     1
     14     29     1
     15     19     1
     15     20     1
     16     18     1
     16     35     1
     16     22     1
     16     23     1
     17     18     1
     17     35     1
     17     22     1
     17     23     1
     19     36     1
     19     25     1
     19     26     1
     20     36     1
     20     25     1
     20     26     1
     21    115     1
     22     38     1
     22    114     1
     23     38     1
     23    114     1
     24    140     1
     25     39     1
     25    139     1
     26     39     1
     26    139     1
     27     65     1
     28     37     1
     28     64     1
     29     37     1
     29     64     1
     30     90     1
     31     40     1
     31     89     1
     32     40     1
     32     89     1
     33     45     1
     33     46     1
     34     70     1
     34     71     1
     35     95     1
     35     96     1
     36    120     1
     36    121     1
     37     65     1
     38    115     1
     39    140     1
     40     90     1
     41     65     1
     41     49     1
     41     50     1
     41     52     1
     41     53     1
     42     64     1
     42     45     1
     42     46     1
     42     48     1
     42     51     1
     43     64     1
     43     45     1
     43     46     1
     43     48     1
     43     51     1
     45     47     1
     45     65     1
     46     47     1
     46     65     1
     47     58     1
     47     59     1
     47     55     1
     47     56     1
     48     52     1
     48     53     1
     49     51     1
     49     61     1
     49     58     1
     49     59     1
     50     51     1
     50     61     1
     50     58     1
     50     59     1
     52     60     1
     52     55     1
     52     56     1
     53     60     1
     53     55     1
     53     56     1
     54    151     1
     55    150     1
     55     62     1
     56    150     1
     56     62     1
     57    162     1
     58     63     1
     58    161     1
     59     63     1
     59    161     1
     60    142     1
     60    143     1
     61    153     1
     61    154     1
     62    151     1
     63    162     1
     66     90     1
     66     74     1
     66     75     1
     66     77     1
     66     78     1
     67     89     1
     67     70     1
     67     71     1
     67     73     1
     67     76     1
     68     89     1
     68     70     1
     68     71     1
     68     73     1
     68     76     1
     70     72     1
     70     90     1
     71     72     1
     71     90     1
     72     83     1
     72     84     1
     72     80     1
     72     81     1
     73     77     1
     73     78     1
     74     76     1
     74     86     1
     74     83     1
     74     84     1
     75     76     1
     75     86     1
     75     83     1
     75     84     1
     77     85     1
     77     80     1
     77     81     1
     78     85     1
     78     80     1
     78     81     1
     79    173     1
     80    172     1
     80     87     1
     81    172     1
     81     87     1
     82    184     1
     83     88     1
     83    183     1
     84     88     1
     84    183     1
     85    164     1
     85    165     1
     86    175     1
     86    176     1
     87    173     1
     88    184     1
     91    115     1
     91     99     1
     91    100     1
     91    102     1
     91    103     1
     92    114     1
     92     95     1
     92     96     1
     92     98     1
     92    101     1
     93    114     1
     93     95     1
     93     96     1
     93     98     1
     93    101     1
     95     97     1
     95    115     1
     96     97     1
     96    115     1
     97    108     1
     97    109     1
     97    105     1
     97    106     1
     98    102     1
     98    103     1
     99    101     1
     99    111     1
     99    108     1
     99    109     1
    100    101     1
    100    111     1
    100    108     1
    100    109     1
    102    110     1
    102    105     1
    102    106     1
    103    110     1
    103    105     1
    103    106     1
    104    195     1
    105    194     1
    105    112     1
    106    194     1
    106    112     1
    107    206     1
    108    113     1
    108    205     1
    109    113     1
    109    205     1
    110    186     1
    110    187     1
    111    197     1
    111    198     1
    112    195     1
    113    206     1
    116    140     1
    116    124     1
    116    125     1
    116    127     1
    116    128     1
    117    139     1
    117    120     1
    117    121     1
    117    123     1
    117    126     1
    118    139     1
    118    120     1
    118    121     1
    118    123     1
    118    126     1
    120    122     1
    120    140     1
    121    122     1
    121    140     1
    122    133     1
    122    134     1
    122    130     1
    122    131     1
    123    127     1
    123    128     1
    124    126     1
    124    136     1
    124    133     1
    124    134     1
    125    126     1
    125    136     1
    125    133     1
    125    134     1
    127    135     1
    127    130     1
    127    131     1
    128    135     1
    128    130     1
    128    131     1
    129    217     1
    130    216     1
    130    137     1
    131    216     1
    131    137     1
    132    228     1
    133    227     1
    133    138     1
    134    227     1
    134    138     1
    135    208     1
    135    209     1
    136    219     1
    136    220     1
    137    217     1
    138    228     1
    141    148     1
    141    149     1
    142    147     1
    142    145     1
    142    146     1
    142    151     1
    143    147     1
    143    145     1
    143    146     1
    143    151     1
    144    151     1
    145    150     1
    145    148     1
    145    149     1
    146    150     1
    146    148     1
    146    149     1
    152    159     1
    152    160     1
    153    158     1
    153    156     1
    153    157     1
    153    162     1
    154    158     1
    154    156     1
    154    157     1
    154    162     1
    155    162     1
    156    159     1
    156    160     1
    156    161     1
    157    159     1
    157    160     1
    157    161     1
    163    170     1
    163    171     1
    164    169     1
    164    167     1
    164    168     1
    164    173     1
    165    169     1
    165    167     1
    165    168     1
    165    173     1
    166    173     1
    167    172     1
    167    170     1
    167    171     1
    168    172     1
    168    170     1
    168    171     1
    174    181     1
    174    182     1
    175    180     1
    175    178     1
    175    179     1
    175    184     1
    176    180     1
    176    178     1
    176    179     1
    176    184     1
    177    184     1
    178    181     1
    178    182     1
    178    183     1
    179    181     1
    179    182     1
    179    183     1
    185    192     1
    185    193     1
    186    191     1
    186    189     1
    186    190     1
    186    195     1
    187    191     1
    187    189     1
    187    190     1
    187    195     1
    188    195     1
    189    194     1
    189    192     1
    189    193     1
    190    194     1
    190    192     1
    190    193     1
    196    203     1
    196    204     1
    197    202     1
    197    200     1
    197    201     1
    197    206     1
    198    202     1
    198    200     1
    198    201     1
    198    206     1
    199    206     1
    200    203     1
    200    204     1
    200    205     1
    201    203     1
    201    204     1
    201    205     1
    207    214     1
    207    215     1
    208    213     1
    208    211     1
    208    212     1
    208    217     1
    209    213     1
    209    211     1
    209    212     1
    209    217     1
    210    217     1
    211    216     1
    211    214     1
    211    215     1
    212    216     1
    212    214     1
    212    215     1
    218    225     1
    218    226     1
    219    224     1
    219    222     1
    219    223     1
    219    228     1
    220    224     1
    220    222     1
    220    223     1
    220    228     1
    221    228     1
    222    225     1
    222    226     1
    222    227     1
    223    225     1
    223    226     1
    223    227     1

[ angles ]
;    ai     aj     ak funct         c0         c1         c2         c3
      1      4      7     1   111.0400475 552.288000
      1      8      9     1   112.3500484 533.878400
      1      8     12     1   112.3500484 533.878400
      4      1      8     1   111.0400475 552.288000
      4      7     15     1   112.3500484 533.878400
      4      7     18     1   112.3500484 533.878400
      7     15     21     1   111.0400475 552.288000
      7     18     24     1   111.0400475 552.288000
      8      9     30     1   111.0400475 552.288000
      8     12     27     1   111.0400475 552.288000
      9      8     12     1   112.3500484 533.878400
      9     30     34     1   111.0400475 529.694400
     12     27     33     1   111.0400475 529.694400
     15      7     18     1   112.3500484 533.878400
     15     21     35     1   111.0400475 529.694400
     18     24     36     1   111.0400475 529.694400
     21     35     38     1   123.2000528 564.003200
     21     35    114     1   115.1800491 558.982400
     24     36     39     1   123.2000528 564.003200
     24     36    139     1   115.1800491 558.982400
     27     33     37     1   123.2000528 564.003200
     27     33     64     1   115.1800491 558.982400
     30     34     40     1   123.2000528 564.003200
     30     34     89     1   115.1800491 558.982400
     33     64     44     1   120.6900519 530.531200
     34     89     69     1   120.6900519 530.531200
     35    114     94     1   120.6900519 530.531200
     36    139    119     1   120.6900519 530.531200
     37     33     64     1   123.0500530 620.905600
     38     35    114     1   123.0500530 620.905600
     39     36    139     1   123.0500530 620.905600
     40     34     89     1   123.0500530 620.905600
     41     44     64     1   111.6100477 551.451200
     41     47     48     1   112.3500484 533.878400
     41     47     51     1   112.3500484 533.878400
     44     41     47     1   111.0400475 552.288000
     47     48     57     1   111.0400475 552.288000
     47     51     54     1   111.0400475 552.288000
     48     47     51     1   112.3500484 533.878400
     48     57     61     1   111.0400475 529.694400
     51     54     60     1   111.0400475 529.694400
     54     60    150     1   115.1800491 558.982400
     54     60     62     1   123.2000528 564.003200
     57     61     63     1   123.2000528 564.003200
     57     61    161     1   115.1800491 558.982400
     60    150    141     1   120.6900519 530.531200
     61    161    152     1   120.6900519 530.531200
     62     60    150     1   123.0500530 620.905600
     63     61    161     1   123.0500530 620.905600
     66     69     89     1   111.6100477 551.451200
     66     72     73     1   112.3500484 533.878400
     66     72     76     1   112.3500484 533.878400
     69     66     72     1   111.0400475 552.288000
     72     73     82     1   111.0400475 552.288000
     72     76     79     1   111.0400475 552.288000
     73     72     76     1   112.3500484 533.878400
     73     82     86     1   111.0400475 529.694400
     76     79     85     1   111.0400475 529.694400
     79     85    172     1   115.1800491 558.982400
     79     85     87     1   123.2000528 564.003200
     82     86     88     1   123.2000528 564.003200
     82     86    183     1   115.1800491 558.982400
     85    172    163     1   120.6900519 530.531200
     86    183    174     1   120.6900519 530.531200
     87     85    172     1   123.0500530 620.905600
     88     86    183     1   123.0500530 620.905600
     91     94    114     1   111.6100477 551.451200
     91     97     98     1   112.3500484 533.878400
     91     97    101     1   112.3500484 533.878400
     94     91     97     1   111.0400475 552.288000
     97     98    107     1   111.0400475 552.288000
     97    101    104     1   111.0400475 552.288000
     98     97    101     1   112.3500484 533.878400
     98    107    111     1   111.0400475 529.694400
    101    104    110     1   111.0400475 529.694400
    104    110    194     1   115.1800491 558.982400
    104    110    112     1   123.2000528 564.003200
    107    111    113     1   123.2000528 564.003200
    107    111    205     1   115.1800491 558.982400
    110    194    185     1   120.6900519 530.531200
    111    205    196     1   120.6900519 530.531200
    112    110    194     1   123.0500530 620.905600
    113    111    205     1   123.0500530 620.905600
    116    119    139     1   111.6100477 551.451200
    116    122    123     1   112.3500484 533.878400
    116    122    126     1   112.3500484 533.878400
    119    116    122     1   111.0400475 552.288000
    122    123    132     1   111.0400475 552.288000
    122    126    129     1   111.0400475 552.288000
    123    122    126     1   112.3500484 533.878400
    123    132    136     1   111.0400475 529.694400
    126    129    135     1   111.0400475 529.694400
    129    135    216     1   115.1800491 558.982400
    129    135    137     1   123.2000528 564.003200
    132    136    227     1   115.1800491 558.982400
    132    136    138     1   123.2000528 564.003200
    135    216    207     1   120.6900519 530.531200
    136    227    218     1   120.6900519 530.531200
    137    135    216     1   123.0500530 620.905600
    138    136    227     1   123.0500530 620.905600
    141    144    147     1   111.0400475 552.288000
    144    141    150     1   111.6100477 551.451200
    152    155    158     1   111.0400475 552.288000
    155    152    161     1   111.6100477 551.451200
    163    166    169     1   111.0400475 552.288000
    166    163    172     1   111.6100477 551.451200
    174    177    180     1   111.0400475 552.288000
    177    174    183     1   111.6100477 551.451200
    185    188    191     1   111.0400475 552.288000
    188    185    194     1   111.6100477 551.451200
    196    199    202     1   111.0400475 552.288000
    199    196    205     1   111.6100477 551.451200
    207    210    213     1   111.0400475 552.288000
    210    207    216     1   111.6100477 551.451200
    218    221    224     1   111.0400475 552.288000
    221    218    227     1   111.6100477 551.451200
      1      4      5     1   109.5600471 388.275200
      1      4      6     1   109.5600471 388.275200
      2      1      4     1   109.5600471 388.275200
      2      1      8     1   109.8800469 414.216000
      2      1      3     1   108.4600466 328.025600
      3      1      4     1   109.5600471 388.275200
      3      1      8     1   109.8800469 414.216000
      5      4      7     1   109.8800469 414.216000
      5      4      6     1   108.4600466 328.025600
      6      4      7     1   109.8800469 414.216000
      7     15     16     1   109.8800469 414.216000
      7     15     17     1   109.8800469 414.216000
      7     18     19     1   109.8800469 414.216000
      7     18     20     1   109.8800469 414.216000
      8      9     10     1   109.8800469 414.216000
      8      9     11     1   109.8800469 414.216000
      8     12     13     1   109.8800469 414.216000
      8     12     14     1   109.8800469 414.216000
      9     30     31     1   109.8000471 387.438400
      9     30     32     1   109.8000471 387.438400
     10      9     30     1   109.5600471 388.275200
     10      9     11     1   108.4600466 328.025600
     11      9     30     1   109.5600471 388.275200
     12     27     28     1   109.8000471 387.438400
     12     27     29     1   109.8000471 387.438400
     13     12     27     1   109.5600471 388.275200
     13     12     14     1   108.4600466 328.025600
     14     12     27     1   109.5600471 388.275200
     15     21     22     1   109.8000471 387.438400
     15     21     23     1   109.8000471 387.438400
     16     15     21     1   109.5600471 388.275200
     16     15     17     1   108.4600466 328.025600
     17     15     21     1   109.5600471 388.275200
     18     24     25     1   109.8000471 387.438400
     18     24     26     1   109.8000471 387.438400
     19     18     24     1   109.5600471 388.275200
     19     18     20     1   108.4600466 328.025600
     20     18     24     1   109.5600471 388.275200
     22     21     35     1   108.7700466 392.459200
     22     21     23     1   107.5800459 329.699200
     23     21     35     1   108.7700466 392.459200
     25     24     36     1   108.7700466 392.459200
     25     24     26     1   107.5800459 329.699200
     26     24     36     1   108.7700466 392.459200
     28     27     33     1   108.7700466 392.459200
     28     27     29     1   107.5800459 329.699200
     29     27     33     1   108.7700466 392.459200
     31     30     34     1   108.7700466 392.459200
     31     30     32     1   107.5800459 329.699200
     32     30     34     1   108.7700466 392.459200
     33     64     65     1   117.5500507 404.174400
     34     89     90     1   117.5500507 404.174400
     35    114    115     1   117.5500507 404.174400
     36    139    140     1   117.5500507 404.174400
     41     44     45     1   109.5600471 388.275200
     41     44     46     1   109.5600471 388.275200
     42     41     44     1   109.5600471 388.275200
     42     41     47     1   109.8800469 414.216000
     42     41     43     1   108.4600466 328.025600
     43     41     44     1   109.5600471 388.275200
     43     41     47     1   109.8800469 414.216000
     44     64     65     1   117.6800502 383.254400
     45     44     64     1   108.8800464 416.726400
     45     44     46     1   108.4600466 328.025600
     46     44     64     1   108.8800464 416.726400
     47     48     49     1   109.8800469 414.216000
     47     48     50     1   109.8800469 414.216000
     47     51     52     1   109.8800469 414.216000
     47     51     53     1   109.8800469 414.216000
     48     57     58     1   109.8000471 387.438400
     48     57     59     1   109.8000471 387.438400
     49     48     57     1   109.5600471 388.275200
     49     48     50     1   108.4600466 328.025600
     50     48     57     1   109.5600471 388.275200
     51     54     55     1   109.8000471 387.438400
     51     54     56     1   109.8000471 387.438400
     52     51     54     1   109.5600471 388.275200
     52     51     53     1   108.4600466 328.025600
     53     51     54     1   109.5600471 388.275200
     55     54     60     1   108.7700466 392.459200
     55     54     56     1   107.5800459 329.699200
     56     54     60     1   108.7700466 392.459200
     58     57     61     1   108.7700466 392.459200
     58     57     59     1   107.5800459 329.699200
     59     57     61     1   108.7700466 392.459200
     60    150    151     1   117.5500507 404.174400
     61    161    162     1   117.5500507 404.174400
     66     69     70     1   109.5600471 388.275200
     66     69     71     1   109.5600471 388.275200
     67     66     69     1   109.5600471 388.275200
     67     66     72     1   109.8800469 414.216000
     67     66     68     1   108.4600466 328.025600
     68     66     69     1   109.5600471 388.275200
     68     66     72     1   109.8800469 414.216000
     69     89     90     1   117.6800502 383.254400
     70     69     89     1   108.8800464 416.726400
     70     69     71     1   108.4600466 328.025600
     71     69     89     1   108.8800464 416.726400
     72     73     74     1   109.8800469 414.216000
     72     73     75     1   109.8800469 414.216000
     72     76     77     1   109.8800469 414.216000
     72     76     78     1   109.8800469 414.216000
     73     82     83     1   109.8000471 387.438400
     73     82     84     1   109.8000471 387.438400
     74     73     82     1   109.5600471 388.275200
     74     73     75     1   108.4600466 328.025600
     75     73     82     1   109.5600471 388.275200
     76     79     80     1   109.8000471 387.438400
     76     79     81     1   109.8000471 387.438400
     77     76     79     1   109.5600471 388.275200
     77     76     78     1   108.4600466 328.025600
     78     76     79     1   109.5600471 388.275200
     80     79     85     1   108.7700466 392.459200
     80     79     81     1   107.5800459 329.699200
     81     79     85     1   108.7700466 392.459200
     83     82     86     1   108.7700466 392.459200
     83     82     84     1   107.5800459 329.699200
     84     82     86     1   108.7700466 392.459200
     85    172    173     1   117.5500507 404.174400
     86    183    184     1   117.5500507 404.174400
     91     94     95     1   109.5600471 388.275200
     91     94     96     1   109.5600471 388.275200
     92     91     94     1   109.5600471 388.275200
     92     91     97     1   109.8800469 414.216000
     92     91     93     1   108.4600466 328.025600
     93     91     94     1   109.5600471 388.275200
     93     91     97     1   109.8800469 414.216000
     94    114    115     1   117.6800502 383.254400
     95     94    114     1   108.8800464 416.726400
     95     94     96     1   108.4600466 328.025600
     96     94    114     1   108.8800464 416.726400
     97     98     99     1   109.8800469 414.216000
     97     98    100     1   109.8800469 414.216000
     97    101    102     1   109.8800469 414.216000
     97    101    103     1   109.8800469 414.216000
     98    107    108     1   109.8000471 387.438400
     98    107    109     1   109.8000471 387.438400
     99     98    107     1   109.5600471 388.275200
     99     98    100     1   108.4600466 328.025600
    100     98    107     1   109.5600471 388.275200
    101    104    105     1   109.8000471 387.438400
    101    104    106     1   109.8000471 387.438400
    102    101    104     1   109.5600471 388.275200
    102    101    103     1   108.4600466 328.025600
    103    101    104     1   109.5600471 388.275200
    105    104    110     1   108.7700466 392.459200
    105    104    106     1   107.5800459 329.699200
    106    104    110     1   108.7700466 392.459200
    108    107    111     1   108.7700466 392.459200
    108    107    109     1   107.5800459 329.699200
    109    107    111     1   108.7700466 392.459200
    110    194    195     1   117.5500507 404.174400
    111    205    206     1   117.5500507 404.174400
    116    119    120     1   109.5600471 388.275200
    116    119    121     1   109.5600471 388.275200
    117    116    119     1   109.5600471 388.275200
    117    116    122     1   109.8800469 414.216000
    117    116    118     1   108.4600466 328.025600
    118    116    119     1   109.5600471 388.275200
    118    116    122     1   109.8800469 414.216000
    119    139    140     1   117.6800502 383.254400
    120    119    139     1   108.8800464 416.726400
    120    119    121     1   108.4600466 328.025600
    121    119    139     1   108.8800464 416.726400
    122    123    124     1   109.8800469 414.216000
    122    123    125     1   109.8800469 414.216000
    122    126    127     1   109.8800469 414.216000
    122    126    128     1   109.8800469 414.216000
    123    132    133     1   109.8000471 387.438400
    123    132    134     1   109.8000471 387.438400
    124    123    132     1   109.5600471 388.275200
    124    123    125     1   108.4600466 328.025600
    125    123    132     1   109.5600471 388.275200
    126    129    130     1   109.8000471 387.438400
    126    129    131     1   109.8000471 387.438400
    127    126    129     1   109.5600471 388.275200
    127    126    128     1   108.4600466 328.025600
    128    126    129     1   109.5600471 388.275200
    130    129    135     1   108.7700466 392.459200
    130    129    131     1   107.5800459 329.699200
    131    129    135     1   108.7700466 392.459200
    133    132    136     1   108.7700466 392.459200
    133    132    134     1   107.5800459 329.699200
    134    132    136     1   108.7700466 392.459200
    135    216    217     1   117.5500507 404.174400
    136    227    228     1   117.5500507 404.174400
    141    144    145     1   109.5600471 388.275200
    141    144    146     1   109.5600471 388.275200
    141    150    151     1   117.6800502 383.254400
    142    141    144     1   109.5600471 388.275200
    142    141    150     1   108.8800464 416.726400
    142    141    143     1   108.4600466 328.025600
    143    141    144     1   109.5600471 388.275200
    143    141    150     1   108.8800464 416.726400
    144    147    148     1   109.2900470 396.643200
    144    147    149     1   109.2900470 396.643200
    145    144    147     1   109.8800469 414.216000
    145    144    146     1   108.4600466 328.025600
    146    144    147     1   109.8800469 414.216000
    148    147    149     1   106.4000456 346.435200
    152    155    156     1   109.5600471 388.275200
    152    155    157     1   109.5600471 388.275200
    152    161    162     1   117.6800502 383.254400
    153    152    155     1   109.5600471 388.275200
    153    152    161     1   108.8800464 416.726400
    153    152    154     1   108.4600466 328.025600
    154    152    155     1   109.5600471 388.275200
    154    152    161     1   108.8800464 416.726400
    155    158    159     1   109.2900470 396.643200
    155    158    160     1   109.2900470 396.643200
    156    155    158     1   109.8800469 414.216000
    156    155    157     1   108.4600466 328.025600
    157    155    158     1   109.8800469 414.216000
    159    158    160     1   106.4000456 346.435200
    163    166    167     1   109.5600471 388.275200
    163    166    168     1   109.5600471 388.275200
    163    172    173     1   117.6800502 383.254400
    164    163    166     1   109.5600471 388.275200
    164    163    172     1   108.8800464 416.726400
    164    163    165     1   108.4600466 328.025600
    165    163    166     1   109.5600471 388.275200
    165    163    172     1   108.8800464 416.726400
    166    169    170     1   109.2900470 396.643200
    166    169    171     1   109.2900470 396.643200
    167    166    169     1   109.8800469 414.216000
    167    166    168     1   108.4600466 328.025600
    168    166    169     1   109.8800469 414.216000
    170    169    171     1   106.4000456 346.435200
    174    177    178     1   109.5600471 388.275200
    174    177    179     1   109.5600471 388.275200
    174    183    184     1   117.6800502 383.254400
    175    174    177     1   109.5600471 388.275200
    175    174    183     1   108.8800464 416.726400
    175    174    176     1   108.4600466 328.025600
    176    174    177     1   109.5600471 388.275200
    176    174    183     1   108.8800464 416.726400
    177    180    181     1   109.2900470 396.643200
    177    180    182     1   109.2900470 396.643200
    178    177    180     1   109.8800469 414.216000
    178    177    179     1   108.4600466 328.025600
    179    177    180     1   109.8800469 414.216000
    181    180    182     1   106.4000456 346.435200
    185    188    189     1   109.5600471 388.275200
    185    188    190     1   109.5600471 388.275200
    185    194    195     1   117.6800502 383.254400
    186    185    188     1   109.5600471 388.275200
    186    185    194     1   108.8800464 416.726400
    186    185    187     1   108.4600466 328.025600
    187    185    188     1   109.5600471 388.275200
    187    185    194     1   108.8800464 416.726400
    188    191    192     1   109.2900470 396.643200
    188    191    193     1   109.2900470 396.643200
    189    188    191     1   109.8800469 414.216000
    189    188    190     1   108.4600466 328.025600
    190    188    191     1   109.8800469 414.216000
    192    191    193     1   106.4000456 346.435200
    196    199    200     1   109.5600471 388.275200
    196    199    201     1   109.5600471 388.275200
    196    205    206     1   117.6800502 383.254400
    197    196    199     1   109.5600471 388.275200
    197    196    205     1   108.8800464 416.726400
    197    196    198     1   108.4600466 328.025600
    198    196    199     1   109.5600471 388.275200
    198    196    205     1   108.8800464 416.726400
    199    202    203     1   109.2900470 396.643200
    199    202    204     1   109.2900470 396.643200
    200    199    202     1   109.8800469 414.216000
    200    199    201     1   108.4600466 328.025600
    201    199    202     1   109.8800469 414.216000
    203    202    204     1   106.4000456 346.435200
    207    210    211     1   109.5600471 388.275200
    207    210    212     1   109.5600471 388.275200
    207    216    217     1   117.6800502 383.254400
    208    207    210     1   109.5600471 388.275200
    208    207    216     1   108.8800464 416.726400
    208    207    209     1   108.4600466 328.025600
    209    207    210     1   109.5600471 388.275200
    209    207    216     1   108.8800464 416.726400
    210    213    214     1   109.2900470 396.643200
    210    213    215     1   109.2900470 396.643200
    211    210    213     1   109.8800469 414.216000
    211    210    212     1   108.4600466 328.025600
    212    210    213     1   109.8800469 414.216000
    214    213    215     1   106.4000456 346.435200
    218    221    222     1   109.5600471 388.275200
    218    221    223     1   109.5600471 388.275200
    218    227    228     1   117.6800502 383.254400
    219    218    221     1   109.5600471 388.275200
    219    218    227     1   108.8800464 416.726400
    219    218    220     1   108.4600466 328.025600
    220    218    221     1   109.5600471 388.275200
    220    218    227     1   108.8800464 416.726400
    221    224    225     1   109.2900470 396.643200
    221    224    226     1   109.2900470 396.643200
    222    221    224     1   109.8800469 414.216000
    222    221    223     1   108.4600466 328.025600
    223    221    224     1   109.8800469 414.216000
    225    224    226     1   106.4000456 346.435200

[ dihedrals ]
;    ai     aj     ak     al funct         c0         c1         c2         c3         c4         c5
      1      4      7     15     1  180.0000771  2.0083200  2
      1      4      7     15     1  0.0000000  1.2552000  3
      1      4      7     18     1  180.0000771  2.0083200  2
      1      4      7     18     1  0.0000000  1.2552000  3
      1      8      9     30     1  180.0000771  2.0083200  2
      1      8      9     30     1  0.0000000  1.2552000  3
      1      8     12     27     1  180.0000771  2.0083200  2
      1      8     12     27     1  0.0000000  1.2552000  3
      4      1      8      9     1  180.0000771  2.0083200  2
      4      1      8      9     1  0.0000000  1.2552000  3
      4      1      8     12     1  180.0000771  2.0083200  2
      4      1      8     12     1  0.0000000  1.2552000  3
      4      7     15     21     1  180.0000771  2.0083200  2
      4      7     15     21     1  0.0000000  1.2552000  3
      4      7     18     24     1  180.0000771  2.0083200  2
      4      7     18     24     1  0.0000000  1.2552000  3
      8      1      4      7     1  0.0000000  0.6508444  3
      7     15     21     35     1  0.0000000  0.6508444  3
      7     18     24     36     1  0.0000000  0.6508444  3
      8      9     30     34     1  0.0000000  0.6508444  3
      8     12     27     33     1  0.0000000  0.6508444  3
      9      8     12     27     1  180.0000771  2.0083200  2
      9      8     12     27     1  0.0000000  1.2552000  3
      9     30     34     40     1  180.0000771  0.0000000  2
      9     30     34     89     1  0.0000000  0.2928800  2
      9     30     34     89     1  0.0000000  0.4184000  4
     12      8      9     30     1  180.0000771  2.0083200  2
     12      8      9     30     1  0.0000000  1.2552000  3
     12     27     33     37     1  180.0000771  0.0000000  2
     12     27     33     64     1  0.0000000  0.2928800  2
     12     27     33     64     1  0.0000000  0.4184000  4
     15      7     18     24     1  180.0000771  2.0083200  2
     15      7     18     24     1  0.0000000  1.2552000  3
     15     21     35     38     1  180.0000771  0.0000000  2
     15     21     35    114     1  0.0000000  0.2928800  2
     15     21     35    114     1  0.0000000  0.4184000  4
     18      7     15     21     1  180.0000771  2.0083200  2
     18      7     15     21     1  0.0000000  1.2552000  3
     18     24     36     39     1  180.0000771  0.0000000  2
     18     24     36    139     1  0.0000000  0.2928800  2
     18     24     36    139     1  0.0000000  0.4184000  4
     21     35    114     94     1  180.0000771  6.2760000  1
     21     35    114     94     1  0.0000000  0.0000000  2
     24     36    139    119     1  180.0000771  6.2760000  1
     24     36    139    119     1  0.0000000  0.0000000  2
     27     33     64     44     1  180.0000771  6.2760000  1
     27     33     64     44     1  0.0000000  0.0000000  2
     30     34     89     69     1  180.0000771  6.2760000  1
     30     34     89     69     1  0.0000000  0.0000000  2
     33     64     44     41     1  0.0000000  2.2175200  1
     33     64     44     41     1  0.0000000  0.0000000  2
     33     64     44     41     1  180.0000771  0.6276000  3
     33     64     44     41     1  180.0000771  2.0920000  4
     34     89     69     66     1  0.0000000  2.2175200  1
     34     89     69     66     1  0.0000000  0.0000000  2
     34     89     69     66     1  180.0000771  0.6276000  3
     34     89     69     66     1  180.0000771  2.0920000  4
     35    114     94     91     1  0.0000000  2.2175200  1
     35    114     94     91     1  0.0000000  0.0000000  2
     35    114     94     91     1  180.0000771  0.6276000  3
     35    114     94     91     1  180.0000771  2.0920000  4
     36    139    119    116     1  0.0000000  2.2175200  1
     36    139    119    116     1  0.0000000  0.0000000  2
     36    139    119    116     1  180.0000771  0.6276000  3
     36    139    119    116     1  180.0000771  2.0920000  4
     37     33     64     44     1  180.0000771  10.4600000  2
     38     35    114     94     1  180.0000771  10.4600000  2
     39     36    139    119     1  180.0000771  10.4600000  2
     40     34     89     69     1  180.0000771  10.4600000  2
     41     47     48     57     1  180.0000771  2.0083200  2
     41     47     48     57     1  0.0000000  1.2552000  3
     41     47     51     54     1  180.0000771  2.0083200  2
     41     47     51     54     1  0.0000000  1.2552000  3
     44     41     47     48     1  180.0000771  2.0083200  2
     44     41     47     48     1  0.0000000  1.2552000  3
     44     41     47     51     1  180.0000771  2.0083200  2
     44     41     47     51     1  0.0000000  1.2552000  3
     47     41     44     64     1  0.0000000  0.6508444  3
     47     48     57     61     1  0.0000000  0.6508444  3
     47     51     54     60     1  0.0000000  0.6508444  3
     48     47     51     54     1  180.0000771  2.0083200  2
     48     47     51     54     1  0.0000000  1.2552000  3
     48     57     61     63     1  180.0000771  0.0000000  2
     48     57     61    161     1  0.0000000  0.2928800  2
     48     57     61    161     1  0.0000000  0.4184000  4
     51     47     48     57     1  180.0000771  2.0083200  2
     51     47     48     57     1  0.0000000  1.2552000  3
     51     54     60    150     1  0.0000000  0.2928800  2
     51     54     60    150     1  0.0000000  0.4184000  4
     51     54     60     62     1  180.0000771  0.0000000  2
     54     60    150    141     1  180.0000771  6.2760000  1
     54     60    150    141     1  0.0000000  0.0000000  2
     57     61    161    152     1  180.0000771  6.2760000  1
     57     61    161    152     1  0.0000000  0.0000000  2
     60    150    141    144     1  0.0000000  2.2175200  1
     60    150    141    144     1  0.0000000  0.0000000  2
     60    150    141    144     1  180.0000771  0.6276000  3
     60    150    141    144     1  180.0000771  2.0920000  4
     61    161    152    155     1  0.0000000  2.2175200  1
     61    161    152    155     1  0.0000000  0.0000000  2
     61    161    152    155     1  180.0000771  0.6276000  3
     61    161    152    155     1  180.0000771  2.0920000  4
     62     60    150    141     1  180.0000771  10.4600000  2
     63     61    161    152     1  180.0000771  10.4600000  2
     66     72     73     82     1  180.0000771  2.0083200  2
     66     72     73     82     1  0.0000000  1.2552000  3
     66     72     76     79     1  180.0000771  2.0083200  2
     66     72     76     79     1  0.0000000  1.2552000  3
     69     66     72     73     1  180.0000771  2.0083200  2
     69     66     72     73     1  0.0000000  1.2552000  3
     69     66     72     76     1  180.0000771  2.0083200  2
     69     66     72     76     1  0.0000000  1.2552000  3
     72     66     69     89     1  0.0000000  0.6508444  3
     72     73     82     86     1  0.0000000  0.6508444  3
     72     76     79     85     1  0.0000000  0.6508444  3
     73     72     76     79     1  180.0000771  2.0083200  2
     73     72     76     79     1  0.0000000  1.2552000  3
     73     82     86     88     1  180.0000771  0.0000000  2
     73     82     86    183     1  0.0000000  0.2928800  2
     73     82     86    183     1  0.0000000  0.4184000  4
     76     72     73     82     1  180.0000771  2.0083200  2
     76     72     73     82     1  0.0000000  1.2552000  3
     76     79     85    172     1  0.0000000  0.2928800  2
     76     79     85    172     1  0.0000000  0.4184000  4
     76     79     85     87     1  180.0000771  0.0000000  2
     79     85    172    163     1  180.0000771  6.2760000  1
     79     85    172    163     1  0.0000000  0.0000000  2
     82     86    183    174     1  180.0000771  6.2760000  1
     82     86    183    174     1  0.0000000  0.0000000  2
     85    172    163    166     1  0.0000000  2.2175200  1
     85    172    163    166     1  0.0000000  0.0000000  2
     85    172    163    166     1  180.0000771  0.6276000  3
     85    172    163    166     1  180.0000771  2.0920000  4
     86    183    174    177     1  0.0000000  2.2175200  1
     86    183    174    177     1  0.0000000  0.0000000  2
     86    183    174    177     1  180.0000771  0.6276000  3
     86    183    174    177     1  180.0000771  2.0920000  4
     87     85    172    163     1  180.0000771  10.4600000  2
     88     86    183    174     1  180.0000771  10.4600000  2
     91     97     98    107     1  180.0000771  2.0083200  2
     91     97     98    107     1  0.0000000  1.2552000  3
     91     97    101    104     1  180.0000771  2.0083200  2
     91     97    101    104     1  0.0000000  1.2552000  3
     94     91     97     98     1  180.0000771  2.0083200  2
     94     91     97     98     1  0.0000000  1.2552000  3
     94     91     97    101     1  180.0000771  2.0083200  2
     94     91     97    101     1  0.0000000  1.2552000  3
     97     91     94    114     1  0.0000000  0.6508444  3
     97     98    107    111     1  0.0000000  0.6508444  3
     97    101    104    110     1  0.0000000  0.6508444  3
     98     97    101    104     1  180.0000771  2.0083200  2
     98     97    101    104     1  0.0000000  1.2552000  3
     98    107    111    113     1  180.0000771  0.0000000  2
     98    107    111    205     1  0.0000000  0.2928800  2
     98    107    111    205     1  0.0000000  0.4184000  4
    101     97     98    107     1  180.0000771  2.0083200  2
    101     97     98    107     1  0.0000000  1.2552000  3
    101    104    110    194     1  0.0000000  0.2928800  2
    101    104    110    194     1  0.0000000  0.4184000  4
    101    104    110    112     1  180.0000771  0.0000000  2
    104    110    194    185     1  180.0000771  6.2760000  1
    104    110    194    185     1  0.0000000  0.0000000  2
    107    111    205    196     1  180.0000771  6.2760000  1
    107    111    205    196     1  0.0000000  0.0000000  2
    110    194    185    188     1  0.0000000  2.2175200  1
    110    194    185    188     1  0.0000000  0.0000000  2
    110    194    185    188     1  180.0000771  0.6276000  3
    110    194    185    188     1  180.0000771  2.0920000  4
    111    205    196    199     1  0.0000000  2.2175200  1
    111    205    196    199     1  0.0000000  0.0000000  2
    111    205    196    199     1  180.0000771  0.6276000  3
    111    205    196    199     1  180.0000771  2.0920000  4
    112    110    194    185     1  180.0000771  10.4600000  2
    113    111    205    196     1  180.0000771  10.4600000  2
    116    122    123    132     1  180.0000771  2.0083200  2
    116    122    123    132     1  0.0000000  1.2552000  3
    116    122    126    129     1  180.0000771  2.0083200  2
    116    122    126    129     1  0.0000000  1.2552000  3
    119    116    122    123     1  180.0000771  2.0083200  2
    119    116    122    123     1  0.0000000  1.2552000  3
    119    116    122    126     1  180.0000771  2.0083200  2
    119    116    122    126     1  0.0000000  1.2552000  3
    122    116    119    139     1  0.0000000  0.6508444  3
    122    123    132    136     1  0.0000000  0.6508444  3
    122    126    129    135     1  0.0000000  0.6508444  3
    123    122    126    129     1  180.0000771  2.0083200  2
    123    122    126    129     1  0.0000000  1.2552000  3
    123    132    136    227     1  0.0000000  0.2928800  2
    123    132    136    227     1  0.0000000  0.4184000  4
    123    132    136    138     1  180.0000771  0.0000000  2
    126    122    123    132     1  180.0000771  2.0083200  2
    126    122    123    132     1  0.0000000  1.2552000  3
    126    129    135    216     1  0.0000000  0.2928800  2
    126    129    135    216     1  0.0000000  0.4184000  4
    126    129    135    137     1  180.0000771  0.0000000  2
    129    135    216    207     1  180.0000771  6.2760000  1
    129    135    216    207     1  0.0000000  0.0000000  2
    132    136    227    218     1  180.0000771  6.2760000  1
    132    136    227    218     1  0.0000000  0.0000000  2
    135    216    207    210     1  0.0000000  2.2175200  1
    135    216    207    210     1  0.0000000  0.0000000  2
    135    216    207    210     1  180.0000771  0.6276000  3
    135    216    207    210     1  180.0000771  2.0920000  4
    136    227    218    221     1  0.0000000  2.2175200  1
    136    227    218    221     1  0.0000000  0.0000000  2
    136    227    218    221     1  180.0000771  0.6276000  3
    136    227    218    221     1  180.0000771  2.0920000  4
    137    135    216    207     1  180.0000771  10.4600000  2
    138    136    227    218     1  180.0000771  10.4600000  2
    147    144    141    150     1  0.0000000  0.6508444  3
    158    155    152    161     1  0.0000000  0.6508444  3
    169    166    163    172     1  0.0000000  0.6508444  3
    180    177    174    183     1  0.0000000  0.6508444  3
    191    188    185    194     1  0.0000000  0.6508444  3
    202    199    196    205     1  0.0000000  0.6508444  3
    213    210    207    216     1  0.0000000  0.6508444  3
    224    221    218    227     1  0.0000000  0.6508444  3
     27     64     33     37     4  180.0000771  43.9320000  2
     30     89     34     40     4  180.0000771  43.9320000  2
     21    114     35     38     4  180.0000771  43.9320000  2
     24    139     36     39     4  180.0000771  43.9320000  2
     54    150     60     62     4  180.0000771  43.9320000  2
     57    161     61     63     4  180.0000771  43.9320000  2
     79    172     85     87     4  180.0000771  43.9320000  2
     82    183     86     88     4  180.0000771  43.9320000  2
    104    194    110    112     4  180.0000771  43.9320000  2
    107    205    111    113     4  180.0000771  43.9320000  2
    129    216    135    137     4  180.0000771  43.9320000  2
    132    227    136    138     4  180.0000771  43.9320000  2
      1      8      9     10     1  0.0000000  1.2552000  3
      1      8      9     11     1  0.0000000  1.2552000  3
      1      8     12     13     1  0.0000000  1.2552000  3
      1      8     12     14     1  0.0000000  1.2552000  3
      2      1      4      7     1  0.0000000  0.6508444  3
      2      1      4      5     1  0.0000000  0.6508444  3
      2      1      4      6     1  0.0000000  0.6508444  3
      2      1      8      9     1  0.0000000  1.2552000  3
      2      1      8     12     1  0.0000000  1.2552000  3
      3      1      4      7     1  0.0000000  0.6508444  3
      3      1      4      5     1  0.0000000  0.6508444  3
      3      1      4      6     1  0.0000000  0.6508444  3
      3      1      8      9     1  0.0000000  1.2552000  3
      3      1      8     12     1  0.0000000  1.2552000  3
      4      7     15     16     1  0.0000000  1.2552000  3
      4      7     15     17     1  0.0000000  1.2552000  3
      4      7     18     19     1  0.0000000  1.2552000  3
      4      7     18     20     1  0.0000000  1.2552000  3
      8      1      4      5     1  0.0000000  0.6508444  3
      5      4      7     15     1  0.0000000  1.2552000  3
      5      4      7     18     1  0.0000000  1.2552000  3
      8      1      4      6     1  0.0000000  0.6508444  3
      6      4      7     15     1  0.0000000  1.2552000  3
      6      4      7     18     1  0.0000000  1.2552000  3
      7     15     21     22     1  0.0000000  0.6508444  3
      7     15     21     23     1  0.0000000  0.6508444  3
      7     18     24     25     1  0.0000000  0.6508444  3
      7     18     24     26     1  0.0000000  0.6508444  3
      8      9     30     31     1  0.0000000  0.6508444  3
      8      9     30     32     1  0.0000000  0.6508444  3
      8     12     27     28     1  0.0000000  0.6508444  3
      8     12     27     29     1  0.0000000  0.6508444  3
      9      8     12     13     1  0.0000000  1.2552000  3
      9      8     12     14     1  0.0000000  1.2552000  3
     10      9      8     12     1  0.0000000  1.2552000  3
     10      9     30     34     1  0.0000000  0.6508444  3
     10      9     30     31     1  0.0000000  0.6508444  3
     10      9     30     32     1  0.0000000  0.6508444  3
     11      9      8     12     1  0.0000000  1.2552000  3
     11      9     30     34     1  0.0000000  0.6508444  3
     11      9     30     31     1  0.0000000  0.6508444  3
     11      9     30     32     1  0.0000000  0.6508444  3
     13     12     27     33     1  0.0000000  0.6508444  3
     13     12     27     28     1  0.0000000  0.6508444  3
     13     12     27     29     1  0.0000000  0.6508444  3
     14     12     27     33     1  0.0000000  0.6508444  3
     14     12     27     28     1  0.0000000  0.6508444  3
     14     12     27     29     1  0.0000000  0.6508444  3
     15      7     18     19     1  0.0000000  1.2552000  3
     15      7     18     20     1  0.0000000  1.2552000  3
     16     15      7     18     1  0.0000000  1.2552000  3
     16     15     21     35     1  0.0000000  0.6508444  3
     16     15     21     22     1  0.0000000  0.6508444  3
     16     15     21     23     1  0.0000000  0.6508444  3
     17     15      7     18     1  0.0000000  1.2552000  3
     17     15     21     35     1  0.0000000  0.6508444  3
     17     15     21     22     1  0.0000000  0.6508444  3
     17     15     21     23     1  0.0000000  0.6508444  3
     19     18     24     36     1  0.0000000  0.6508444  3
     19     18     24     25     1  0.0000000  0.6508444  3
     19     18     24     26     1  0.0000000  0.6508444  3
     20     18     24     36     1  0.0000000  0.6508444  3
     20     18     24     25     1  0.0000000  0.6508444  3
     20     18     24     26     1  0.0000000  0.6508444  3
     21     35    114    115     1  180.0000771  10.4600000  2
     22     21     35     38     1  0.0000000  3.3472000  1
     22     21     35     38     1  0.0000000  0.0000000  2
     22     21     35     38     1  180.0000771  0.3347200  3
     22     21     35    114     1  180.0000771  0.0000000  2
     23     21     35     38     1  0.0000000  3.3472000  1
     23     21     35     38     1  0.0000000  0.0000000  2
     23     21     35     38     1  180.0000771  0.3347200  3
     23     21     35    114     1  180.0000771  0.0000000  2
     24     36    139    140     1  180.0000771  10.4600000  2
     25     24     36     39     1  0.0000000  3.3472000  1
     25     24     36     39     1  0.0000000  0.0000000  2
     25     24     36     39     1  180.0000771  0.3347200  3
     25     24     36    139     1  180.0000771  0.0000000  2
     26     24     36     39     1  0.0000000  3.3472000  1
     26     24     36     39     1  0.0000000  0.0000000  2
     26     24     36     39     1  180.0000771  0.3347200  3
     26     24     36    139     1  180.0000771  0.0000000  2
     27     33     64     65     1  180.0000771  10.4600000  2
     28     27     33     37     1  0.0000000  3.3472000  1
     28     27     33     37     1  0.0000000  0.0000000  2
     28     27     33     37     1  180.0000771  0.3347200  3
     28     27     33     64     1  180.0000771  0.0000000  2
     29     27     33     37     1  0.0000000  3.3472000  1
     29     27     33     37     1  0.0000000  0.0000000  2
     29     27     33     37     1  180.0000771  0.3347200  3
     29     27     33     64     1  180.0000771  0.0000000  2
     30     34     89     90     1  180.0000771  10.4600000  2
     31     30     34     40     1  0.0000000  3.3472000  1
     31     30     34     40     1  0.0000000  0.0000000  2
     31     30     34     40     1  180.0000771  0.3347200  3
     31     30     34     89     1  180.0000771  0.0000000  2
     32     30     34     40     1  0.0000000  3.3472000  1
     32     30     34     40     1  0.0000000  0.0000000  2
     32     30     34     40     1  180.0000771  0.3347200  3
     32     30     34     89     1  180.0000771  0.0000000  2
     33     64     44     45     1  0.0000000  0.0000000  2
     33     64     44     46     1  0.0000000  0.0000000  2
     34     89     69     70     1  0.0000000  0.0000000  2
     34     89     69     71     1  0.0000000  0.0000000  2
     35    114     94     95     1  0.0000000  0.0000000  2
     35    114     94     96     1  0.0000000  0.0000000  2
     36    139    119    120     1  0.0000000  0.0000000  2
     36    139    119    121     1  0.0000000  0.0000000  2
     37     33     64     65     1  0.0000000  8.3680000  1
     37     33     64     65     1  180.0000771  10.4600000  2
     38     35    114    115     1  0.0000000  8.3680000  1
     38     35    114    115     1  180.0000771  10.4600000  2
     39     36    139    140     1  0.0000000  8.3680000  1
     39     36    139    140     1  180.0000771  10.4600000  2
     40     34     89     90     1  0.0000000  8.3680000  1
     40     34     89     90     1  180.0000771  10.4600000  2
     41     44     64     65     1  0.0000000  0.0000000  2
     41     47     48     49     1  0.0000000  1.2552000  3
     41     47     48     50     1  0.0000000  1.2552000  3
     41     47     51     52     1  0.0000000  1.2552000  3
     41     47     51     53     1  0.0000000  1.2552000  3
     42     41     44     64     1  0.0000000  0.6508444  3
     42     41     44     45     1  0.0000000  0.6508444  3
     42     41     44     46     1  0.0000000  0.6508444  3
     42     41     47     48     1  0.0000000  1.2552000  3
     42     41     47     51     1  0.0000000  1.2552000  3
     43     41     44     64     1  0.0000000  0.6508444  3
     43     41     44     45     1  0.0000000  0.6508444  3
     43     41     44     46     1  0.0000000  0.6508444  3
     43     41     47     48     1  0.0000000  1.2552000  3
     43     41     47     51     1  0.0000000  1.2552000  3
     45     44     41     47     1  0.0000000  0.6508444  3
     45     44     64     65     1  0.0000000  0.0000000  2
     46     44     41     47     1  0.0000000  0.6508444  3
     46     44     64     65     1  0.0000000  0.0000000  2
     47     48     57     58     1  0.0000000  0.6508444  3
     47     48     57     59     1  0.0000000  0.6508444  3
     47     51     54     55     1  0.0000000  0.6508444  3
     47     51     54     56     1  0.0000000  0.6508444  3
     48     47     51     52     1  0.0000000  1.2552000  3
     48     47     51     53     1  0.0000000  1.2552000  3
     49     48     47     51     1  0.0000000  1.2552000  3
     49     48     57     61     1  0.0000000  0.6508444  3
     49     48     57     58     1  0.0000000  0.6508444  3
     49     48     57     59     1  0.0000000  0.6508444  3
     50     48     47     51     1  0.0000000  1.2552000  3
     50     48     57     61     1  0.0000000  0.6508444  3
     50     48     57     58     1  0.0000000  0.6508444  3
     50     48     57     59     1  0.0000000  0.6508444  3
     52     51     54     60     1  0.0000000  0.6508444  3
     52     51     54     55     1  0.0000000  0.6508444  3
     52     51     54     56     1  0.0000000  0.6508444  3
     53     51     54     60     1  0.0000000  0.6508444  3
     53     51     54     55     1  0.0000000  0.6508444  3
     53     51     54     56     1  0.0000000  0.6508444  3
     54     60    150    151     1  180.0000771  10.4600000  2
     55     54     60    150     1  180.0000771  0.0000000  2
     55     54     60     62     1  0.0000000  3.3472000  1
     55     54     60     62     1  0.0000000  0.0000000  2
     55     54     60     62     1  180.0000771  0.3347200  3
     56     54     60    150     1  180.0000771  0.0000000  2
     56     54     60     62     1  0.0000000  3.3472000  1
     56     54     60     62     1  0.0000000  0.0000000  2
     56     54     60     62     1  180.0000771  0.3347200  3
     57     61    161    162     1  180.0000771  10.4600000  2
     58     57     61     63     1  0.0000000  3.3472000  1
     58     57     61     63     1  0.0000000  0.0000000  2
     58     57     61     63     1  180.0000771  0.3347200  3
     58     57     61    161     1  180.0000771  0.0000000  2
     59     57     61     63     1  0.0000000  3.3472000  1
     59     57     61     63     1  0.0000000  0.0000000  2
     59     57     61     63     1  180.0000771  0.3347200  3
     59     57     61    161     1  180.0000771  0.0000000  2
     60    150    141    142     1  0.0000000  0.0000000  2
     60    150    141    143     1  0.0000000  0.0000000  2
     61    161    152    153     1  0.0000000  0.0000000  2
     61    161    152    154     1  0.0000000  0.0000000  2
     62     60    150    151     1  0.0000000  8.3680000  1
     62     60    150    151     1  180.0000771  10.4600000  2
     63     61    161    162     1  0.0000000  8.3680000  1
     63     61    161    162     1  180.0000771  10.4600000  2
     66     69     89     90     1  0.0000000  0.0000000  2
     66     72     73     74     1  0.0000000  1.2552000  3
     66     72     73     75     1  0.0000000  1.2552000  3
     66     72     76     77     1  0.0000000  1.2552000  3
     66     72     76     78     1  0.0000000  1.2552000  3
     67     66     69     89     1  0.0000000  0.6508444  3
     67     66     69     70     1  0.0000000  0.6508444  3
     67     66     69     71     1  0.0000000  0.6508444  3
     67     66     72     73     1  0.0000000  1.2552000  3
     67     66     72     76     1  0.0000000  1.2552000  3
     68     66     69     89     1  0.0000000  0.6508444  3
     68     66     69     70     1  0.0000000  0.6508444  3
     68     66     69     71     1  0.0000000  0.6508444  3
     68     66     72     73     1  0.0000000  1.2552000  3
     68     66     72     76     1  0.0000000  1.2552000  3
     70     69     66     72     1  0.0000000  0.6508444  3
     70     69     89     90     1  0.0000000  0.0000000  2
     71     69     66     72     1  0.0000000  0.6508444  3
     71     69     89     90     1  0.0000000  0.0000000  2
     72     73     82     83     1  0.0000000  0.6508444  3
     72     73     82     84     1  0.0000000  0.6508444  3
     72     76     79     80     1  0.0000000  0.6508444  3
     72     76     79     81     1  0.0000000  0.6508444  3
     73     72     76     77     1  0.0000000  1.2552000  3
     73     72     76     78     1  0.0000000  1.2552000  3
     74     73     72     76     1  0.0000000  1.2552000  3
     74     73     82     86     1  0.0000000  0.6508444  3
     74     73     82     83     1  0.0000000  0.6508444  3
     74     73     82     84     1  0.0000000  0.6508444  3
     75     73     72     76     1  0.0000000  1.2552000  3
     75     73     82     86     1  0.0000000  0.6508444  3
     75     73     82     83     1  0.0000000  0.6508444  3
     75     73     82     84     1  0.0000000  0.6508444  3
     77     76     79     85     1  0.0000000  0.6508444  3
     77     76     79     80     1  0.0000000  0.6508444  3
     77     76     79     81     1  0.0000000  0.6508444  3
     78     76     79     85     1  0.0000000  0.6508444  3
     78     76     79     80     1  0.0000000  0.6508444  3
     78     76     79     81     1  0.0000000  0.6508444  3
     79     85    172    173     1  180.0000771  10.4600000  2
     80     79     85    172     1  180.0000771  0.0000000  2
     80     79     85     87     1  0.0000000  3.3472000  1
     80     79     85     87     1  0.0000000  0.0000000  2
     80     79     85     87     1  180.0000771  0.3347200  3
     81     79     85    172     1  180.0000771  0.0000000  2
     81     79     85     87     1  0.0000000  3.3472000  1
     81     79     85     87     1  0.0000000  0.0000000  2
     81     79     85     87     1  180.0000771  0.3347200  3
     82     86    183    184     1  180.0000771  10.4600000  2
     83     82     86     88     1  0.0000000  3.3472000  1
     83     82     86     88     1  0.0000000  0.0000000  2
     83     82     86     88     1  180.0000771  0.3347200  3
     83     82     86    183     1  180.0000771  0.0000000  2
     84     82     86     88     1  0.0000000  3.3472000  1
     84     82     86     88     1  0.0000000  0.0000000  2
     84     82     86     88     1  180.0000771  0.3347200  3
     84     82     86    183     1  180.0000771  0.0000000  2
     85    172    163    164     1  0.0000000  0.0000000  2
     85    172    163    165     1  0.0000000  0.0000000  2
     86    183    174    175     1  0.0000000  0.0000000  2
     86    183    174    176     1  0.0000000  0.0000000  2
     87     85    172    173     1  0.0000000  8.3680000  1
     87     85    172    173     1  180.0000771  10.4600000  2
     88     86    183    184     1  0.0000000  8.3680000  1
     88     86    183    184     1  180.0000771  10.4600000  2
     91     94    114    115     1  0.0000000  0.0000000  2
     91     97     98     99     1  0.0000000  1.2552000  3
     91     97     98    100     1  0.0000000  1.2552000  3
     91     97    101    102     1  0.0000000  1.2552000  3
     91     97    101    103     1  0.0000000  1.2552000  3
     92     91     94    114     1  0.0000000  0.6508444  3
     92     91     94     95     1  0.0000000  0.6508444  3
     92     91     94     96     1  0.0000000  0.6508444  3
     92     91     97     98     1  0.0000000  1.2552000  3
     92     91     97    101     1  0.0000000  1.2552000  3
     93     91     94    114     1  0.0000000  0.6508444  3
     93     91     94     95     1  0.0000000  0.6508444  3
     93     91     94     96     1  0.0000000  0.6508444  3
     93     91     97     98     1  0.0000000  1.2552000  3
     93     91     97    101     1  0.0000000  1.2552000  3
     95     94     91     97     1  0.0000000  0.6508444  3
     95     94    114    115     1  0.0000000  0.0000000  2
     96     94     91     97     1  0.0000000  0.6508444  3
     96     94    114    115     1  0.0000000  0.0000000  2
     97     98    107    108     1  0.0000000  0.6508444  3
     97     98    107    109     1  0.0000000  0.6508444  3
     97    101    104    105     1  0.0000000  0.6508444  3
     97    101    104    106     1  0.0000000  0.6508444  3
     98     97    101    102     1  0.0000000  1.2552000  3
     98     97    101    103     1  0.0000000  1.2552000  3
     99     98     97    101     1  0.0000000  1.2552000  3
     99     98    107    111     1  0.0000000  0.6508444  3
     99     98    107    108     1  0.0000000  0.6508444  3
     99     98    107    109     1  0.0000000  0.6508444  3
    100     98     97    101     1  0.0000000  1.2552000  3
    100     98    107    111     1  0.0000000  0.6508444  3
    100     98    107    108     1  0.0000000  0.6508444  3
    100     98    107    109     1  0.0000000  0.6508444  3
    102    101    104    110     1  0.0000000  0.6508444  3
    102    101    104    105     1  0.0000000  0.6508444  3
    102    101    104    106     1  0.0000000  0.6508444  3
    103    101    104    110     1  0.0000000  0.6508444  3
    103    101    104    105     1  0.0000000  0.6508444  3
    103    101    104    106     1  0.0000000  0.6508444  3
    104    110    194    195     1  180.0000771  10.4600000  2
    105    104    110    194     1  180.0000771  0.0000000  2
    105    104    110    112     1  0.0000000  3.3472000  1
    105    104    110    112     1  0.0000000  0.0000000  2
    105    104    110    112     1  180.0000771  0.3347200  3
    106    104    110    194     1  180.0000771  0.0000000  2
    106    104    110    112     1  0.0000000  3.3472000  1
    106    104    110    112     1  0.0000000  0.0000000  2
    106    104    110    112     1  180.0000771  0.3347200  3
    107    111    205    206     1  180.0000771  10.4600000  2
    108    107    111    113     1  0.0000000  3.3472000  1
    108    107    111    113     1  0.0000000  0.0000000  2
    108    107    111    113     1  180.0000771  0.3347200  3
    108    107    111    205     1  180.0000771  0.0000000  2
    109    107    111    113     1  0.0000000  3.3472000  1
    109    107    111    113     1  0.0000000  0.0000000  2
    109    107    111    113     1  180.0000771  0.3347200  3
    109    107    111    205     1  180.0000771  0.0000000  2
    110    194    185    186     1  0.0000000  0.0000000  2
    110    194    185    187     1  0.0000000  0.0000000  2
    111    205    196    197     1  0.0000000  0.0000000  2
    111    205    196    198     1  0.0000000  0.0000000  2
    112    110    194    195     1  0.0000000  8.3680000  1
    112    110    194    195     1  180.0000771  10.4600000  2
    113    111    205    206     1  0.0000000  8.3680000  1
    113    111    205    206     1  180.0000771  10.4600000  2
    116    119    139    140     1  0.0000000  0.0000000  2
    116    122    123    124     1  0.0000000  1.2552000  3
    116    122    123    125     1  0.0000000  1.2552000  3
    116    122    126    127     1  0.0000000  1.2552000  3
    116    122    126    128     1  0.0000000  1.2552000  3
    117    116    119    139     1  0.0000000  0.6508444  3
    117    116    119    120     1  0.0000000  0.6508444  3
    117    116    119    121     1  0.0000000  0.6508444  3
    117    116    122    123     1  0.0000000  1.2552000  3
    117    116    122    126     1  0.0000000  1.2552000  3
    118    116    119    139     1  0.0000000  0.6508444  3
    118    116    119    120     1  0.0000000  0.6508444  3
    118    116    119    121     1  0.0000000  0.6508444  3
    118    116    122    123     1  0.0000000  1.2552000  3
    118    116    122    126     1  0.0000000  1.2552000  3
    120    119    116    122     1  0.0000000  0.6508444  3
    120    119    139    140     1  0.0000000  0.0000000  2
    121    119    116    122     1  0.0000000  0.6508444  3
    121    119    139    140     1  0.0000000  0.0000000  2
    122    123    132    133     1  0.0000000  0.6508444  3
    122    123    132    134     1  0.0000000  0.6508444  3
    122    126    129    130     1  0.0000000  0.6508444  3
    122    126    129    131     1  0.0000000  0.6508444  3
    123    122    126    127     1  0.0000000  1.2552000  3
    123    122    126    128     1  0.0000000  1.2552000  3
    124    123    122    126     1  0.0000000  1.2552000  3
    124    123    132    136     1  0.0000000  0.6508444  3
    124    123    132    133     1  0.0000000  0.6508444  3
    124    123    132    134     1  0.0000000  0.6508444  3
    125    123    122    126     1  0.0000000  1.2552000  3
    125    123    132    136     1  0.0000000  0.6508444  3
    125    123    132    133     1  0.0000000  0.6508444  3
    125    123    132    134     1  0.0000000  0.6508444  3
    127    126    129    135     1  0.0000000  0.6508444  3
    127    126    129    130     1  0.0000000  0.6508444  3
    127    126    129    131     1  0.0000000  0.6508444  3
    128    126    129    135     1  0.0000000  0.6508444  3
    128    126    129    130     1  0.0000000  0.6508444  3
    128    126    129    131     1  0.0000000  0.6508444  3
    129    135    216    217     1  180.0000771  10.4600000  2
    130    129    135    216     1  180.0000771  0.0000000  2
    130    129    135    137     1  0.0000000  3.3472000  1
    130    129    135    137     1  0.0000000  0.0000000  2
    130    129    135    137     1  180.0000771  0.3347200  3
    131    129    135    216     1  180.0000771  0.0000000  2
    131    129    135    137     1  0.0000000  3.3472000  1
    131    129    135    137     1  0.0000000  0.0000000  2
    131    129    135    137     1  180.0000771  0.3347200  3
    132    136    227    228     1  180.0000771  10.4600000  2
    133    132    136    227     1  180.0000771  0.0000000  2
    133    132    136    138     1  0.0000000  3.3472000  1
    133    132    136    138     1  0.0000000  0.0000000  2
    133    132    136    138     1  180.0000771  0.3347200  3
    134    132    136    227     1  180.0000771  0.0000000  2
    134    132    136    138     1  0.0000000  3.3472000  1
    134    132    136    138     1  0.0000000  0.0000000  2
    134    132    136    138     1  180.0000771  0.3347200  3
    135    216    207    208     1  0.0000000  0.0000000  2
    135    216    207    209     1  0.0000000  0.0000000  2
    136    227    218    219     1  0.0000000  0.0000000  2
    136    227    218    220     1  0.0000000  0.0000000  2
    137    135    216    217     1  0.0000000  8.3680000  1
    137    135    216    217     1  180.0000771  10.4600000  2
    138    136    227    228     1  0.0000000  8.3680000  1
    138    136    227    228     1  180.0000771  10.4600000  2
    141    144    147    148     1  0.0000000  1.2552000  3
    141    144    147    149     1  0.0000000  1.2552000  3
    142    141    144    147     1  0.0000000  0.6508444  3
    142    141    144    145     1  0.0000000  0.6508444  3
    142    141    144    146     1  0.0000000  0.6508444  3
    142    141    150    151     1  0.0000000  0.0000000  2
    143    141    144    147     1  0.0000000  0.6508444  3
    143    141    144    145     1  0.0000000  0.6508444  3
    143    141    144    146     1  0.0000000  0.6508444  3
    143    141    150    151     1  0.0000000  0.0000000  2
    144    141    150    151     1  0.0000000  0.0000000  2
    145    144    141    150     1  0.0000000  0.6508444  3
    145    144    147    148     1  0.0000000  1.2552000  3
    145    144    147    149     1  0.0000000  1.2552000  3
    146    144    141    150     1  0.0000000  0.6508444  3
    146    144    147    148     1  0.0000000  1.2552000  3
    146    144    147    149     1  0.0000000  1.2552000  3
    152    155    158    159     1  0.0000000  1.2552000  3
    152    155    158    160     1  0.0000000  1.2552000  3
    153    152    155    158     1  0.0000000  0.6508444  3
    153    152    155    156     1  0.0000000  0.6508444  3
    153    152    155    157     1  0.0000000  0.6508444  3
    153    152    161    162     1  0.0000000  0.0000000  2
    154    152    155    158     1  0.0000000  0.6508444  3
    154    152    155    156     1  0.0000000  0.6508444  3
    154    152    155    157     1  0.0000000  0.6508444  3
    154    152    161    162     1  0.0000000  0.0000000  2
    155    152    161    162     1  0.0000000  0.0000000  2
    156    155    158    159     1  0.0000000  1.2552000  3
    156    155    158    160     1  0.0000000  1.2552000  3
    156    155    152    161     1  0.0000000  0.6508444  3
    157    155    158    159     1  0.0000000  1.2552000  3
    157    155    158    160     1  0.0000000  1.2552000  3
    157    155    152    161     1  0.0000000  0.6508444  3
    163    166    169    170     1  0.0000000  1.2552000  3
    163    166    169    171     1  0.0000000  1.2552000  3
    164    163    166    169     1  0.0000000  0.6508444  3
    164    163    166    167     1  0.0000000  0.6508444  3
    164    163    166    168     1  0.0000000  0.6508444  3
    164    163    172    173     1  0.0000000  0.0000000  2
    165    163    166    169     1  0.0000000  0.6508444  3
    165    163    166    167     1  0.0000000  0.6508444  3
    165    163    166    168     1  0.0000000  0.6508444  3
    165    163    172    173     1  0.0000000  0.0000000  2
    166    163    172    173     1  0.0000000  0.0000000  2
    167    166    163    172     1  0.0000000  0.6508444  3
    167    166    169    170     1  0.0000000  1.2552000  3
    167    166    169    171     1  0.0000000  1.2552000  3
    168    166    163    172     1  0.0000000  0.6508444  3
    168    166    169    170     1  0.0000000  1.2552000  3
    168    166    169    171     1  0.0000000  1.2552000  3
    174    177    180    181     1  0.0000000  1.2552000  3
    174    177    180    182     1  0.0000000  1.2552000  3
    175    174    177    180     1  0.0000000  0.6508444  3
    175    174    177    178     1  0.0000000  0.6508444  3
    175    174    177    179     1  0.0000000  0.6508444  3
    175    174    183    184     1  0.0000000  0.0000000  2
    176    174    177    180     1  0.0000000  0.6508444  3
    176    174    177    178     1  0.0000000  0.6508444  3
    176    174    177    179     1  0.0000000  0.6508444  3
    176    174    183    184     1  0.0000000  0.0000000  2
    177    174    183    184     1  0.0000000  0.0000000  2
    178    177    180    181     1  0.0000000  1.2552000  3
    178    177    180    182     1  0.0000000  1.2552000  3
    178    177    174    183     1  0.0000000  0.6508444  3
    179    177    180    181     1  0.0000000  1.2552000  3
    179    177    180    182     1  0.0000000  1.2552000  3
    179    177    174    183     1  0.0000000  0.6508444  3
    185    188    191    192     1  0.0000000  1.2552000  3
    185    188    191    193     1  0.0000000  1.2552000  3
    186    185    188    191     1  0.0000000  0.6508444  3
    186    185    188    189     1  0.0000000  0.6508444  3
    186    185    188    190     1  0.0000000  0.6508444  3
    186    185    194    195     1  0.0000000  0.0000000  2
    187    185    188    191     1  0.0000000  0.6508444  3
    187    185    188    189     1  0.0000000  0.6508444  3
    187    185    188    190     1  0.0000000  0.6508444  3
    187    185    194    195     1  0.0000000  0.0000000  2
    188    185    194    195     1  0.0000000  0.0000000  2
    189    188    185    194     1  0.0000000  0.6508444  3
    189    188    191    192     1  0.0000000  1.2552000  3
    189    188    191    193     1  0.0000000  1.2552000  3
    190    188    185    194     1  0.0000000  0.6508444  3
    190    188    191    192     1  0.0000000  1.2552000  3
    190    188    191    193     1  0.0000000  1.2552000  3
    196    199    202    203     1  0.0000000  1.2552000  3
    196    199    202    204     1  0.0000000  1.2552000  3
    197    196    199    202     1  0.0000000  0.6508444  3
    197    196    199    200     1  0.0000000  0.6508444  3
    197    196    199    201     1  0.0000000  0.6508444  3
    197    196    205    206     1  0.0000000  0.0000000  2
    198    196    199    202     1  0.0000000  0.6508444  3
    198    196    199    200     1  0.0000000  0.6508444  3
    198    196    199    201     1  0.0000000  0.6508444  3
    198    196    205    206     1  0.0000000  0.0000000  2
    199    196    205    206     1  0.0000000  0.0000000  2
    200    199    202    203     1  0.0000000  1.2552000  3
    200    199    202    204     1  0.0000000  1.2552000  3
    200    199    196    205     1  0.0000000  0.6508444  3
    201    199    202    203     1  0.0000000  1.2552000  3
    201    199    202    204     1  0.0000000  1.2552000  3
    201    199    196    205     1  0.0000000  0.6508444  3
    207    210    213    214     1  0.0000000  1.2552000  3
    207    210    213    215     1  0.0000000  1.2552000  3
    208    207    210    213     1  0.0000000  0.6508444  3
    208    207    210    211     1  0.0000000  0.6508444  3
    208    207    210    212     1  0.0000000  0.6508444  3
    208    207    216    217     1  0.0000000  0.0000000  2
    209    207    210    213     1  0.0000000  0.6508444  3
    209    207    210    211     1  0.0000000  0.6508444  3
    209    207    210    212     1  0.0000000  0.6508444  3
    209    207    216    217     1  0.0000000  0.0000000  2
    210    207    216    217     1  0.0000000  0.0000000  2
    211    210    207    216     1  0.0000000  0.6508444  3
    211    210    213    214     1  0.0000000  1.2552000  3
    211    210    213    215     1  0.0000000  1.2552000  3
    212    210    207    216     1  0.0000000  0.6508444  3
    212    210    213    214     1  0.0000000  1.2552000  3
    212    210    213    215     1  0.0000000  1.2552000  3
    218    221    224    225     1  0.0000000  1.2552000  3
    218    221    224    226     1  0.0000000  1.2552000  3
    219    218    221    224     1  0.0000000  0.6508444  3
    219    218    221    222     1  0.0000000  0.6508444  3
    219    218    221    223     1  0.0000000  0.6508444  3
    219    218    227    228     1  0.0000000  0.0000000  2
    220    218    221    224     1  0.0000000  0.6508444  3
    220    218    221    222     1  0.0000000  0.6508444  3
    220    218    221    223     1  0.0000000  0.6508444  3
    220    218    227    228     1  0.0000000  0.0000000  2
    221    218    227    228     1  0.0000000  0.0000000  2
    222    221    224    225     1  0.0000000  1.2552000  3
    222    221    224    226     1  0.0000000  1.2552000  3
    222    221    218    227     1  0.0000000  0.6508444  3
    223    221    224    225     1  0.0000000  1.2552000  3
    223    221    224    226     1  0.0000000  1.2552000  3
    223    221    218    227     1  0.0000000  0.6508444  3
     33     44     64     65     4  180.0000771  4.6024000  2
     34     69     89     90     4  180.0000771  4.6024000  2
     35     94    114    115     4  180.0000771  4.6024000  2
     36    119    139    140     4  180.0000771  4.6024000  2
     60    141    150    151     4  180.0000771  4.6024000  2
     61    152    161    162     4  180.0000771  4.6024000  2
     85    163    172    173     4  180.0000771  4.6024000  2
     86    174    183    184     4  180.0000771  4.6024000  2
    110    185    194    195     4  180.0000771  4.6024000  2
    111    196    205    206     4  180.0000771  4.6024000  2
    135    207    216    217     4  180.0000771  4.6024000  2
    136    218    227    228     4  180.0000771  4.6024000  2

;[ system ]
;; Name
;Generic title
;
;[ molecules ]
;; Compound       #mols
;g1np_pamam         1
