G1NP-PAMAM in water
11887
    1aaa     C1    1   2.522   1.937   3.010  0.1120 -0.2429  0.2002
    1aaa     H1    2   2.520   1.849   3.075 -1.9762 -0.0331  0.4854
    1aaa     H2    3   2.450   1.915   2.931  1.7049  1.9541 -2.0249
    1aaa     C2    4   2.652   1.963   2.939 -0.5625 -0.0349  0.0542
    1aaa     H3    5   2.641   2.053   2.878 -1.8440 -1.4629 -1.9786
    1aaa     H4    6   2.726   1.982   3.018 -0.9527 -0.1088  0.4422
    1aaa     N1    7   2.710   1.855   2.847 -0.5001 -0.4146 -0.0806
    1aaa     N2    8   2.477   2.058   3.080  0.5467 -0.3296 -0.3395
    1aaa     C3    9   2.561   2.104   3.185 -0.5221 -0.2453 -1.0974
    1aaa     H5   10   2.662   2.062   3.180 -1.1173 -1.7388 -0.9573
    1aaa     H6   11   2.521   2.086   3.285 -0.2212  1.6647 -0.5841
    1aaa     C4   12   2.331   2.054   3.113  0.7545 -0.0324  0.6516
    1aaa     H7   13   2.315   1.982   3.195 -0.2803 -1.3537 -0.6634
    1aaa     H8   14   2.301   2.148   3.161  0.7119 -0.0858  0.7299
    1aaa     C5   15   2.615   1.776   2.771  1.3006  0.7482 -0.1325
    1aaa     H9   16   2.671   1.694   2.724  1.0270  0.9512 -0.8086
    1aaa    H10   17   2.543   1.722   2.834  0.0201  1.9183 -0.5800
    1aaa     C6   18   2.806   1.768   2.923  0.2283  0.0122 -0.1590
    1aaa    H11   19   2.760   1.677   2.963  0.2502 -0.6450 -1.5787
    1aaa    H12   20   2.853   1.825   3.005  1.5551  0.3534 -1.1274
    1aaa     C7   21   2.542   1.856   2.668  0.2607  0.4765 -0.2383
    1aaa    H13   22   2.456   1.795   2.636  0.5929  0.4797 -1.1845
    1aaa    H14   23   2.503   1.946   2.715  0.6660 -0.5475  2.2171
    1aaa     C8   24   2.919   1.728   2.829 -0.4919  0.5002 -0.0002
    1aaa    H15   25   2.892   1.645   2.763  0.2917 -0.3679  0.7397
    1aaa    H16   26   2.949   1.814   2.768  1.3368  0.6987  1.1110
    1aaa     C9   27   2.248   2.017   2.989  0.4884 -0.1237 -0.2653
    1aaa    H17   28   2.277   2.070   2.897 -3.0066  0.0067 -1.4399
    1aaa    H18   29   2.252   1.909   2.972 -1.1467 -0.0713 -1.2182
    1aaa    C10   30   2.568   2.254   3.172 -0.1075 -0.4970  0.6994
    1aaa    H19   31   2.468   2.297   3.185 -0.9979 -2.0781 -0.5070
    1aaa    H20   32   2.633   2.288   3.254 -3.7288  0.1279  3.5418
    1aaa    C11   33   2.101   2.033   3.012  0.4096 -0.4832  0.5211
    1aaa    C12   34   2.618   2.302   3.036 -0.3150 -0.5328 -0.2615
    1aaa    C13   35   2.633   1.898   2.555  0.4006  0.2430 -0.5291
    1aaa    C14   36   3.047   1.681   2.898  0.6233  0.2084 -0.1132
    1aaa     O1   37   2.051   2.104   3.095 -0.5126 -0.1592 -0.0891
    1aaa     O2   38   2.622   1.855   2.445  0.5160 -0.5329  0.8355
    1aaa     O3   39   3.147   1.749   2.904  0.5287 -0.3008  1.0837
    1aaa     O4   40   2.732   2.331   3.010  0.3315 -0.0875  0.0108
    2bbb     C1   41   1.819   1.867   2.816 -0.1522  0.2689 -0.3674
    2bbb     H1   42   1.847   1.908   2.718 -0.8005  2.2505  0.2125
    2bbb     H2   43   1.710   1.870   2.830 -0.0826  0.5317  0.1547
    2bbb     C2   44   1.873   1.965   2.925  0.2613  0.1273  0.0743
    2bbb     H3   45   1.849   2.065   2.886 -0.1665 -0.4044 -1.0977
    2bbb     H4   46   1.818   1.950   3.019 -1.1062 -0.4564 -0.7850
    2bbb     N1   47   1.865   1.720   2.823 -0.3133 -0.3916 -0.1159
    2bbb     C3   48   1.843   1.666   2.959  0.1999 -0.1407 -0.1536
    2bbb     H5   49   1.735   1.664   2.978  0.1615 -2.6582 -0.3968
    2bbb     H6   50   1.873   1.738   3.036 -1.2829  0.5085 -0.1518
    2bbb     C4   51   1.793   1.638   2.725 -0.7361 -0.1628  0.2815
    2bbb     H7   52   1.796   1.530   2.744 -0.0446 -0.8228 -3.0514
    2bbb     H8   53   1.690   1.675   2.724 -0.9197 -0.4995  2.4027
    2bbb     C5   54   1.863   1.649   2.586 -0.3323 -0.5941 -0.2602
    2bbb     H9   55   1.874   1.755   2.556  0.4965  0.1664  2.4506
    2bbb    H10   56   1.960   1.597   2.586 -0.6913 -1.3164  1.1199
    2bbb     C6   57   1.912   1.535   2.983  0.0114 -0.0451  0.6772
    2bbb    H11   58   1.846   1.465   2.930  0.7468 -0.6889  0.6032
    2bbb    H12   59   2.015   1.527   2.946 -0.1434 -4.1025  0.6370
    2bbb     C7   60   1.777   1.581   2.477  1.0098 -0.4383  0.0603
    2bbb     C8   61   1.903   1.495   3.125  0.2675  0.1170 -0.0651
    2bbb     O1   62   1.749   1.461   2.485  0.1749 -0.7888 -0.4186
    2bbb     O2   63   1.817   1.535   3.205 -0.1791 -0.1780 -1.0694
    2bbb     N4   64   2.021   1.954   2.939  0.0165 -0.0998  0.5388
    2bbb    H21   65   2.061   1.902   2.862 -0.1873 -2.0588  1.7005
    3bbb     C1   66   2.448   2.328   2.714 -0.3229  0.1639  0.0915
    3bbb     H1   67   2.345   2.360   2.735 -0.2995 -0.4548  1.2790
    3bbb     H2   68   2.452   2.219   2.720 -0.2497  0.1512 -0.1807
    3bbb     C2   69   2.541   2.392   2.824  0.0579  0.6986  0.4407
    3bbb     H3   70   2.645   2.384   2.793 -0.3595 -0.2328 -0.7900
    3bbb     H4   71   2.530   2.500   2.840  2.6630  1.0440  0.2917
    3bbb     N1   72   2.485   2.369   2.583 -0.0650  0.3762  1.0759
    3bbb     C3   73   2.465   2.513   2.562  0.1943 -0.6446  0.6084
    3bbb     H5   74   2.503   2.574   2.644  0.9192  0.7606 -0.7109
    3bbb     H6   75   2.359   2.539   2.568  0.5080  0.8114  0.3491
    3bbb     C4   76   2.425   2.273   2.490 -0.2191 -0.0291  0.2156
    3bbb     H7   77   2.456   2.294   2.387  0.9062  0.6584  0.6790
    3bbb     H8   78   2.452   2.173   2.526 -0.6955  0.3784  1.7600
    3bbb     C5   79   2.272   2.270   2.483 -0.1132 -0.4214  0.5004
    3bbb     H9   80   2.231   2.212   2.567 -0.6109 -1.6235 -0.5356
    3bbb    H10   81   2.219   2.366   2.483 -1.1144 -0.9511 -0.4109
    3bbb     C6   82   2.518   2.562   2.431  0.8484 -0.2469  0.2466
    3bbb    H11   83   2.623   2.595   2.437  1.1702 -0.3974 -2.7660
    3bbb    H12   84   2.520   2.479   2.359  0.2368  0.7750 -0.9983
    3bbb     C7   85   2.228   2.195   2.361 -0.6619  0.2749 -0.6281
    3bbb     C8   86   2.442   2.682   2.382  0.2224  0.3879  1.1012
    3bbb     O1   87   2.214   2.079   2.346 -0.2112 -0.0121  0.6775
    3bbb     O2   88   2.382   2.758   2.451 -0.0033 -0.4709 -0.8059
    3bbb     N4   89   2.518   2.315   2.951 -0.3559 -0.0371 -0.4124
    3bbb    H21   90   2.425   2.282   2.976  0.2527 -1.3795  0.1658
    4bbb     C1   91   2.934   2.141   2.569  0.3346  0.1647 -0.0227
    4bbb     H1   92   3.017   2.156   2.498  0.0505 -3.7046 -1.4454
    4bbb     H2   93   2.981   2.100   2.659  1.1665  0.0790 -0.4786
    4bbb     C2   94   2.836   2.035   2.506 -0.4085 -0.5192 -0.3375
    4bbb     H3   95   2.788   2.087   2.422 -0.2142 -1.5203 -1.0835
    4bbb     H4   96   2.900   1.954   2.469  0.2464  0.1622 -0.7208
    4bbb     N1   97   2.868   2.271   2.598 -0.3734  1.2546 -0.4422
    4bbb     C3   98   2.792   2.330   2.489 -0.4163 -0.2174 -0.6459
    4bbb     H5   99   2.772   2.433   2.521  0.7643 -0.1847  0.0323
    4bbb     H6  100   2.698   2.281   2.462 -0.9370  0.4190 -0.0112
    4bbb     C4  101   2.956   2.373   2.658  0.1707  0.4611 -0.0861
    4bbb     H7  102   3.038   2.401   2.590  0.0386  0.4412 -0.2512
    4bbb     H8  103   2.895   2.462   2.676  1.8080  1.4228  0.9631
    4bbb     C5  104   3.011   2.324   2.795 -0.1784 -0.1065  0.6024
    4bbb     H9  105   2.933   2.273   2.854  0.7285 -1.3115  0.8149
    4bbb    H10  106   3.090   2.249   2.781 -0.9098 -0.6591 -0.6938
    4bbb     C6  107   2.860   2.342   2.357  0.7702 -0.0724 -0.5106
    4bbb    H11  108   2.966   2.369   2.363  1.1063 -1.0539 -1.6635
    4bbb    H12  109   2.861   2.249   2.299  0.0537 -0.6813  0.4233
    4bbb     C7  110   3.066   2.444   2.870 -0.5444 -0.4529 -0.1755
    4bbb     C8  111   2.796   2.448   2.278 -0.2528 -0.3626 -0.4927
    4bbb     O1  112   3.179   2.485   2.854  0.6411 -0.3930  0.2829
    4bbb     O2  113   2.822   2.568   2.289 -0.2978 -0.2251  1.2927
    4bbb     N4  114   2.728   1.995   2.595  0.1009  0.1709 -0.1994
    4bbb    H21  115   2.727   2.015   2.694 -0.7876  0.3287 -0.2335
    5bbb     C1  116   3.009   1.649   3.231 -0.1921 -0.3843  0.1362
    5bbb     H1  117   2.998   1.753   3.198  1.1277 -0.2664  0.0079
    5bbb     H2  118   3.069   1.652   3.324 -1.1686  2.5360  0.7779
    5bbb     C2  119   3.096   1.588   3.125  0.3852 -0.1594  0.1582
    5bbb     H3  120   3.186   1.650   3.127 -0.2162  0.7349  0.0456
    5bbb     H4  121   3.141   1.492   3.152  1.3883 -0.4796 -2.4134
    5bbb     N1  122   2.886   1.576   3.257  0.0436 -0.8854  0.5442
    5bbb     C3  123   2.892   1.429   3.259 -0.7315 -0.5776 -0.2418
    5bbb     H5  124   2.931   1.397   3.161  0.1207 -2.8457  0.7787
    5bbb     H6  125   2.793   1.385   3.268  0.1073 -2.3786  0.6764
    5bbb     C4  126   2.802   1.629   3.363 -0.1767 -0.4943  0.3495
    5bbb     H7  127   2.719   1.566   3.397 -1.2250  1.3994  1.5420
    5bbb     H8  128   2.867   1.636   3.451 -1.1821 -1.5890  1.1982
    5bbb     C5  129   2.737   1.761   3.313 -0.2044 -0.8420  0.1395
    5bbb     H9  130   2.809   1.828   3.265  1.1950 -1.7297  0.9366
    5bbb    H10  131   2.654   1.741   3.244 -1.2035  0.2335  0.9872
    5bbb     C6  132   2.978   1.372   3.374  0.0094 -0.4598 -0.4420
    5bbb    H11  133   3.080   1.410   3.369  0.6390 -1.8986  0.5306
    5bbb    H12  134   2.936   1.389   3.475 -2.3913  1.5271 -1.6660
    5bbb     C7  135   2.672   1.828   3.435  0.3031 -0.1647  0.3684
    5bbb     C8  136   2.989   1.223   3.346  0.2388  0.0205  0.6753
    5bbb     O1  137   2.737   1.919   3.488 -0.3230 -0.0021  0.1620
    5bbb     O2  138   3.083   1.171   3.293  0.1328  0.3071 -0.0354
    5bbb     N4  139   3.023   1.580   2.990  0.1241  0.2328 -0.7692
    5bbb    H21  140   2.934   1.531   2.989  0.4814 -0.6842  1.9370
    6ccc     C1  141   1.661   1.608   2.254 -0.7661  1.1805  0.1876
    6ccc     H1  142   1.721   1.524   2.218  0.3458  0.8717  2.5702
    6ccc     H2  143   1.564   1.566   2.282  0.0856 -1.0080  0.0448
    6ccc     C2  144   1.641   1.708   2.140 -0.1247  0.0586 -0.3727
    6ccc     H3  145   1.728   1.700   2.075  1.5747  0.4794  1.7305
    6ccc     H4  146   1.547   1.684   2.088  0.1662 -2.4707  0.1302
    6ccc     N1  147   1.638   1.843   2.190 -0.7415  0.3304 -0.1228
    6ccc     H5  148   1.586   1.882   2.111  0.2222 -1.3103 -1.6348
    6ccc     H6  149   1.570   1.837   2.265  0.2175  0.5010  0.7772
    6ccc     N2  150   1.732   1.662   2.372 -0.0661 -0.4028 -0.3117
    6ccc     H7  151   1.744   1.762   2.384 -0.7819 -0.6089  2.7700
    7ccc     C1  152   1.995   1.321   3.280 -0.2875 -0.2161  0.4268
    7ccc     H1  153   1.894   1.296   3.315 -0.2468 -1.2920 -0.1795
    7ccc     H2  154   2.040   1.226   3.248 -1.3249 -0.2443 -1.0745
    7ccc     C2  155   2.069   1.389   3.395  0.5384  0.0740 -0.4295
    7ccc     H3  156   2.079   1.322   3.482 -1.2163  0.3222  0.0115
    7ccc     H4  157   2.172   1.412   3.365  2.1834 -2.6596  2.4542
    7ccc     N1  158   2.000   1.508   3.452 -0.1290  0.0926  0.7137
    7ccc     H5  159   1.940   1.538   3.374 -1.8266  0.6921  2.1708
    7ccc     H6  160   1.922   1.472   3.507  0.8247 -1.1550  1.2837
    7ccc     N2  161   1.997   1.407   3.158  0.0274 -0.7072 -0.0961
    7ccc     H7  162   2.054   1.382   3.078  0.7172 -0.5072  0.3319
    8ccc     C1  163   2.172   2.253   2.129  0.3851  0.0527 -0.0575
    8ccc     H1  164   2.252   2.225   2.060  1.7136 -3.6383  2.6216
    8ccc     H2  165   2.106   2.165   2.133  0.0081  0.3666  1.0818
    8ccc     C2  166   2.094   2.373   2.064 -0.1633  0.4829 -0.2399
    8ccc     H3  167   2.061   2.352   1.962  3.1412 -0.8740 -1.1573
    8ccc     H4  168   2.004   2.393   2.123 -0.1432  0.8996 -0.3430
    8ccc     N1  169   2.171   2.493   2.076  0.7841  0.2260  0.1681
    8ccc     H5  170   2.106   2.560   2.036  2.3787  1.3679 -0.6467
    8ccc     H6  171   2.159   2.533   2.170 -1.3940 -0.6335  0.3057
    8ccc     N2  172   2.201   2.285   2.266 -0.0283 -0.3931  0.1588
    8ccc     H7  173   2.211   2.383   2.291  0.9180 -0.8324  1.6192
    9ccc     C1  174   2.333   2.781   2.168  0.1023  0.0179  0.2069
    9ccc     H1  175   2.234   2.763   2.212 -0.3563  1.9844  0.1004
    9ccc     H2  176   2.360   2.882   2.202 -1.6209  0.3610  0.6507
    9ccc     C2  177   2.328   2.781   2.009  0.1686  0.4068  0.9327
    9ccc     H3  178   2.231   2.742   1.976  0.0109  2.0719 -0.6780
    9ccc     H4  179   2.341   2.885   1.979 -0.3911  0.5589  1.2037
    9ccc     N1  180   2.429   2.692   1.950 -0.6706  0.0988 -0.1858
    9ccc     H5  181   2.415   2.705   1.850  0.7413 -0.5945 -0.5060
    9ccc     H6  182   2.518   2.739   1.967  0.1099 -0.4416 -2.4160
    9ccc     N2  183   2.425   2.690   2.240 -0.3767  0.2356  0.3766
    9ccc     H7  184   2.490   2.638   2.182 -0.5458  1.4989 -1.0148
   10ccc     C1  185   3.017   2.582   3.071  0.4854  0.3966 -0.6465
   10ccc     H1  186   3.106   2.540   3.119  0.4348  1.9776  0.9305
   10ccc     H2  187   3.048   2.663   3.004  1.0016 -0.0145 -0.9142
   10ccc     C2  188   2.912   2.609   3.183 -0.2014  0.5683  0.3475
   10ccc     H3  189   2.951   2.686   3.251  1.5911  1.8857 -2.0262
   10ccc     H4  190   2.820   2.656   3.148 -0.1404  1.1495  0.9412
   10ccc     N1  191   2.877   2.488   3.253 -0.3020  0.2799  0.9496
   10ccc     H5  192   2.807   2.519   3.320 -1.0032 -1.2045  0.9510
   10ccc     H6  193   2.818   2.445   3.181 -0.1511  1.0805  0.3238
   10ccc     N2  194   2.984   2.483   2.973  0.2038 -0.0354 -0.3497
   10ccc     H7  195   2.890   2.444   2.976  0.0947  0.1608  2.8329
   11ccc     C1  196   2.681   2.470   2.060 -0.1939 -0.2391 -0.4325
   11ccc     H1  197   2.613   2.554   2.080  0.5759  0.0615  1.0327
   11ccc     H2  198   2.770   2.527   2.029  0.1083  0.6519  1.9043
   11ccc     C2  199   2.626   2.384   1.951  0.3607  0.4166  0.1924
   11ccc     H3  200   2.604   2.454   1.869 -0.7445  0.3004  0.3803
   11ccc     H4  201   2.694   2.304   1.920  0.5909  0.0858  1.5049
   11ccc     N1  202   2.491   2.326   1.996  0.0056  0.0172 -0.4272
   11ccc     H5  203   2.471   2.242   1.941 -1.1138 -0.5402  0.7907
   11ccc     H6  204   2.517   2.275   2.080  1.3070 -0.2753 -0.9830
   11ccc     N2  205   2.709   2.403   2.187  0.8254  0.4610 -0.3109
   11ccc     H7  206   2.679   2.307   2.199  0.1225  0.4163 -2.1818
   12ccc     C1  207   2.463   1.864   3.562  0.4925 -0.1044 -0.2490
   12ccc     H1  208   2.494   1.841   3.665 -1.4302 -0.1757  0.3383
   12ccc     H2  209   2.465   1.973   3.555 -0.7117  0.0723  1.5812
   12ccc     C2  210   2.319   1.829   3.549 -0.3534 -0.7260  0.1669
   12ccc     H3  211   2.261   1.882   3.625 -0.2779  1.7153 -1.3412
   12ccc     H4  212   2.282   1.863   3.451  0.6857  0.7068  0.2274
   12ccc     N1  213   2.294   1.686   3.563 -0.6258 -0.1714 -0.6948
   12ccc     H5  214   2.334   1.626   3.491  0.7049 -1.1110  0.7524
   12ccc     H6  215   2.362   1.663   3.636 -1.9434 -0.7410  0.4012
   12ccc     N2  216   2.543   1.798   3.457 -0.7439  0.6686 -0.3894
   12ccc     H7  217   2.513   1.714   3.410  0.4819  0.0779 -0.1432
   13ccc     C1  218   2.856   1.014   3.332  0.6592 -0.2681 -0.1979
   13ccc     H1  219   2.855   1.012   3.222 -1.1133  1.4212 -0.2747
   13ccc     H2  220   2.935   0.945   3.360  0.8025  0.1564  0.4447
   13ccc     C2  221   2.724   0.969   3.397  0.4630 -0.2361 -0.0015
   13ccc     H3  222   2.670   0.916   3.317 -1.7858  3.0149 -0.8603
   13ccc     H4  223   2.741   0.899   3.479  1.5813 -0.9094 -0.7832
   13ccc     N1  224   2.643   1.085   3.438 -0.3509  0.1280 -0.0313
   13ccc     H5  225   2.623   1.139   3.354 -1.0766  0.4810  0.3496
   13ccc     H6  226   2.551   1.049   3.464 -0.6732  1.3764  0.6614
   13ccc     N2  227   2.883   1.151   3.377  0.2146  0.0123  0.2475
   13ccc     H7  228   2.820   1.212   3.427 -0.9593 -0.0815 -1.0383
   14SOL     OW  229   0.823   2.798   4.236  0.3626  0.9008 -0.2941
   14SOL    HW1  230   0.879   2.721   4.242 -0.6360  0.1112 -0.8100
   14SOL    HW2  231   0.883   2.871   4.224  1.2392 -0.1249 -2.6346
   15SOL     OW  232   4.383   0.169   4.843 -0.2981  0.4526 -0.9966
   15SOL    HW1  233   4.439   0.205   4.911  0.9935 -1.4603 -0.9600
   15SOL    HW2  234   4.296   0.203   4.863  0.1784  0.5622  1.1694
   16SOL     OW  235   0.911   3.039   1.772  0.3638  0.3821 -0.7896
   16SOL    HW1  236   0.905   2.945   1.753  1.1885  0.1273  0.1466
   16SOL    HW2  237   0.820   3.065   1.788  0.1680 -0.3447 -0.6563
   17SOL     OW  238   4.677   0.132   3.892 -0.3077  0.0505  0.0260
   17SOL    HW1  239   4.695   0.161   3.982 -0.0171 -0.8285  0.2672
   17SOL    HW2  240   4.586   0.155   3.877 -0.2752  0.4748  0.4408
   18SOL     OW  241   1.931   0.010   1.029  0.2546 -0.5913 -0.4248
   18SOL    HW1  242   1.882  -0.060   1.071  1.0563  0.2980  2.1307
   18SOL    HW2  243   1.865   0.063   0.984 -0.8941 -0.5579  1.2441
   19SOL     OW  244   1.516   0.789   1.387 -0.0320  0.0788 -0.3492
   19SOL    HW1  245   1.591   0.825   1.339 -0.7535  0.3126 -1.3357
   19SOL    HW2  246   1.555   0.729   1.451  1.2075  2.3341  1.1445
   20SOL     OW  247   2.375   4.079   4.064  0.2232  0.0142 -0.7241
   20SOL    HW1  248   2.388   4.173   4.049 -1.3327  0.0747 -1.9707
   20SOL    HW2  249   2.330   4.048   3.985  1.3794 -1.9550 -0.6876
   21SOL     OW  250   2.133   3.789   3.974 -0.4860  0.2323 -0.0552
   21SOL    HW1  251   2.178   3.868   3.947 -3.0222  1.7666 -0.1641
   21SOL    HW2  252   2.153   3.725   3.905 -0.0378  1.4415 -1.0928
   22SOL     OW  253   3.778   1.366   4.202  0.1038 -0.3919 -0.4035
   22SOL    HW1  254   3.774   1.344   4.295 -0.0068 -1.3672 -0.6309
   22SOL    HW2  255   3.861   1.414   4.192  0.0981 -0.2503  0.1959
   23SOL     OW  256   3.198   0.301   0.867 -0.1677 -0.2366 -0.0175
   23SOL    HW1  257   3.182   0.207   0.873 -0.4744 -0.1695  0.2796
   23SOL    HW2  258   3.276   0.316   0.920  1.3137 -0.6624 -2.0068
   24SOL     OW  259   3.941   4.558   0.569  0.1379  0.1720 -0.2726
   24SOL    HW1  260   4.001   4.494   0.607  0.1610 -0.1045 -0.7678
   24SOL    HW2  261   3.944   4.541   0.475 -1.5861 -0.6515 -0.2333
   25SOL     OW  262   1.343   2.190   2.116  0.4309  0.0037  0.0384
   25SOL    HW1  263   1.374   2.113   2.068 -2.7560 -1.1639 -0.4354
   25SOL    HW2  264   1.251   2.198   2.090 -0.2577  1.9507  2.6893
   26SOL     OW  265   3.114   0.194   4.592 -0.0210 -0.2909  0.2967
   26SOL    HW1  266   3.176   0.259   4.624 -0.2677 -0.1886  0.5750
   26SOL    HW2  267   3.031   0.241   4.583 -0.5791 -0.8933  1.9443
   27SOL     OW  268   2.912   1.474   1.286  0.5313 -0.2003  0.1749
   27SOL    HW1  269   2.934   1.551   1.339 -1.6871 -0.4078  1.5465
   27SOL    HW2  270   2.821   1.490   1.258  0.5147 -1.6911 -0.6986
   28SOL     OW  271   0.647   1.047   4.517  0.0628 -0.2517 -0.5817
   28SOL    HW1  272   0.691   1.049   4.602 -0.2268 -0.2639 -0.4306
   28SOL    HW2  273   0.601   0.964   4.515 -0.6283  0.1135 -0.3886
   29SOL     OW  274   0.384   4.505   2.735  1.0941  0.0354 -0.1837
   29SOL    HW1  275   0.450   4.458   2.786 -1.1929 -2.0020  1.1523
   29SOL    HW2  276   0.347   4.569   2.796  0.5514 -0.1692 -0.2858
   30SOL     OW  277   2.933   4.313   2.912 -0.4621 -0.0996  0.2404
   30SOL    HW1  278   2.952   4.271   2.828 -1.8449 -0.1482 -0.0648
   30SOL    HW2  279   2.946   4.407   2.896  0.9302 -0.2241  0.4590
   31SOL     OW  280   3.159   3.581   1.943  0.2785  0.7631 -0.5965
   31SOL    HW1  281   3.254   3.590   1.937  0.4634 -0.3210  0.3576
   31SOL    HW2  282   3.125   3.639   1.875  1.7259 -1.0408 -3.0111
   32SOL     OW  283   0.879   1.591   3.838  0.1094 -0.4816 -0.2600
   32SOL    HW1  284   0.799   1.550   3.872  0.4722 -0.7525  0.2650
   32SOL    HW2  285   0.866   1.591   3.743 -0.7154 -0.1087 -0.1575
   33SOL     OW  286   2.416   1.292   2.421  0.1512  0.3283  0.0836
   33SOL    HW1  287   2.435   1.355   2.352  1.1114 -1.3089 -1.2140
   33SOL    HW2  288   2.406   1.209   2.376  2.1548 -1.0739  2.0284
   34SOL     OW  289   1.346   1.168   0.451  0.0402  0.0135  0.6618
   34SOL    HW1  290   1.410   1.208   0.509 -0.0913 -1.5019  1.9115
   34SOL    HW2  291   1.293   1.242   0.419 -0.2861  0.8614  2.9696
   35SOL     OW  292   1.012   2.105   3.946 -0.2426 -0.0320  0.2655
   35SOL    HW1  293   1.060   2.029   3.979 -1.6589 -1.4242 -0.7048
   35SOL    HW2  294   0.955   2.069   3.878  1.5224  2.4237 -2.7938
   36SOL     OW  295   0.019   0.068   0.660  0.2495 -0.1460 -0.3157
   36SOL    HW1  296  -0.072   0.092   0.679  0.0998 -1.8482  1.4867
   36SOL    HW2  297   0.012  -0.007   0.600  0.4779 -0.0879 -0.4177
   37SOL     OW  298   0.787   1.592   1.792  0.3369  0.2836 -0.1201
   37SOL    HW1  299   0.710   1.596   1.847 -1.2633  0.2936 -2.2284
   37SOL    HW2  300   0.763   1.640   1.712  1.8475 -1.2413 -1.5956
   38SOL     OW  301   4.118   4.818   4.138 -0.4328 -0.0757 -0.1235
   38SOL    HW1  302   4.127   4.910   4.114 -2.3108 -0.0713 -0.9383
   38SOL    HW2  303   4.105   4.772   4.055  1.1167 -1.1990  0.2053
   39SOL     OW  304   0.046   1.271   2.877 -0.2050 -0.4044  0.2620
   39SOL    HW1  305   0.076   1.358   2.852 -1.1435  0.0153  0.5381
   39SOL    HW2  306   0.086   1.212   2.813  0.0550  0.2815 -0.2165
   40SOL     OW  307   0.476   2.756   2.584  0.2995  0.4372  0.0721
   40SOL    HW1  308   0.468   2.851   2.580  2.5108  0.7592  1.5621
   40SOL    HW2  309   0.438   2.732   2.668 -1.2601 -0.1694 -0.7746
   41SOL     OW  310   2.292   4.327   2.754 -0.1528 -0.3023  0.1242
   41SOL    HW1  311   2.358   4.379   2.800  0.4292 -1.2153  0.3580
   41SOL    HW2  312   2.338   4.293   2.677 -0.6997  0.0069 -0.3492
   42SOL     OW  313   1.731   2.336   3.370 -0.1969  0.0657 -0.3245
   42SOL    HW1  314   1.688   2.417   3.397 -1.7426 -1.4072  2.0541
   42SOL    HW2  315   1.660   2.277   3.346  0.8659 -0.7766 -1.5892
   43SOL     OW  316   2.465   3.739   3.897  0.3944 -0.1741 -0.4537
   43SOL    HW1  317   2.419   3.751   3.814 -1.9129  0.6626  0.8401
   43SOL    HW2  318   2.439   3.651   3.926  1.1047 -0.4236 -0.5602
   44SOL     OW  319   2.584   0.509   2.455  0.0851 -0.3586  0.2141
   44SOL    HW1  320   2.521   0.502   2.383 -0.3721  1.9290  0.3078
   44SOL    HW2  321   2.531   0.506   2.534  0.0741  1.3494  0.2996
   45SOL     OW  322   4.033   3.838   1.962 -0.3804  0.4449 -0.1290
   45SOL    HW1  323   4.084   3.827   2.042 -0.4282  0.6482 -0.0719
   45SOL    HW2  324   4.071   3.774   1.901 -0.8598 -0.2653  0.3077
   46SOL     OW  325   3.024   3.921   0.705  1.3320 -0.0950 -0.2451
   46SOL    HW1  326   2.979   3.838   0.691  0.0317  0.7052 -1.1417
   46SOL    HW2  327   3.116   3.903   0.688  1.0897 -1.3772 -0.2400
   47SOL     OW  328   3.750   0.489   1.558  0.1185 -0.3038  0.1505
   47SOL    HW1  329   3.695   0.480   1.480 -1.4794  0.8498  1.0992
   47SOL    HW2  330   3.829   0.438   1.537 -1.3779 -2.2546 -1.1597
   48SOL     OW  331   4.172   4.409   4.387 -0.2200  0.1956  0.0284
   48SOL    HW1  332   4.245   4.354   4.414 -0.9748 -0.9438 -0.1658
   48SOL    HW2  333   4.206   4.499   4.390  0.8854 -0.2341  0.8523
   49SOL     OW  334   1.340   4.313   4.258 -0.3697  0.1708  0.3111
   49SOL    HW1  335   1.278   4.309   4.185  0.5250 -2.5501 -0.4126
   49SOL    HW2  336   1.426   4.299   4.218  0.3781  0.5873  1.6782
   50SOL     OW  337   0.526   1.873   4.483  0.1988  0.7599  0.1310
   50SOL    HW1  338   0.604   1.819   4.490  0.0205  0.4539 -0.2403
   50SOL    HW2  339   0.508   1.878   4.389 -1.1540 -0.4961  0.2960
   51SOL     OW  340   0.063   3.837   2.989 -0.4509 -0.1627 -1.0981
   51SOL    HW1  341   0.009   3.768   3.027 -1.3985  0.3257 -1.5120
   51SOL    HW2  342   0.134   3.791   2.944  0.2527 -0.7767  0.5690
   52SOL     OW  343   1.674   4.267   4.767  0.1846  0.0815 -0.2019
   52SOL    HW1  344   1.737   4.280   4.838  0.8960 -0.0981 -0.7865
   52SOL    HW2  345   1.722   4.218   4.701 -0.9897 -1.2736 -0.0933
   53SOL     OW  346   2.763   0.111   3.665 -0.0420  0.1155 -0.3527
   53SOL    HW1  347   2.801   0.108   3.577 -1.6381 -0.0143 -1.0751
   53SOL    HW2  348   2.794   0.031   3.707  1.2765  0.5056 -0.5388
   54SOL     OW  349   0.784   2.389   0.520 -0.4225 -0.2483  0.7627
   54SOL    HW1  350   0.787   2.477   0.480  0.4478 -0.8495 -0.5854
   54SOL    HW2  351   0.788   2.329   0.445 -1.2957 -1.4476  1.6506
   55SOL     OW  352   0.911   4.145   1.365  0.0774 -0.0674 -0.1462
   55SOL    HW1  353   0.977   4.078   1.380 -0.3095 -0.5026 -0.3447
   55SOL    HW2  354   0.905   4.153   1.270 -1.4189 -1.3403 -0.1976
   56SOL     OW  355   2.409   2.447   4.122  0.2008 -0.7948  0.2195
   56SOL    HW1  356   2.367   2.490   4.048  1.2537 -0.5432 -0.2544
   56SOL    HW2  357   2.379   2.495   4.199  0.1450 -0.1984 -0.1709
   57SOL     OW  358   0.353   0.775   4.889 -0.0920  0.1823  0.0392
   57SOL    HW1  359   0.262   0.799   4.906  0.0455 -0.2819  1.5221
   57SOL    HW2  360   0.400   0.798   4.969  1.2056  0.8696 -0.8704
   58SOL     OW  361   4.378   0.260   3.923  0.2233  0.2321  0.4901
   58SOL    HW1  362   4.409   0.344   3.956 -1.9585  0.9809  0.8149
   58SOL    HW2  363   4.300   0.283   3.871 -1.2589 -1.6905  1.7549
   59SOL     OW  364   0.510   1.895   1.154 -0.7010  0.6989 -0.2626
   59SOL    HW1  365   0.604   1.899   1.172 -1.0031 -1.3443  2.5409
   59SOL    HW2  366   0.499   1.814   1.104 -0.9440  1.0597 -0.7922
   60SOL     OW  367   4.726   2.337   2.748  0.1327  0.1554  0.0195
   60SOL    HW1  368   4.680   2.269   2.698  1.3797 -0.6284 -0.1242
   60SOL    HW2  369   4.776   2.288   2.814  1.4009  0.8683 -0.3722
   61SOL     OW  370   0.910   4.783   2.968 -0.0285 -0.4760 -0.3610
   61SOL    HW1  371   0.851   4.857   2.981 -0.4172 -0.5651 -1.5117
   61SOL    HW2  372   0.853   4.706   2.972  0.2501 -0.6670  0.0215
   62SOL     OW  373   4.628   2.785   4.454 -0.2966  0.5550 -0.4227
   62SOL    HW1  374   4.583   2.790   4.538 -0.3795  3.2810 -0.5376
   62SOL    HW2  375   4.715   2.751   4.476  0.0613  2.2106  0.9982
   63SOL     OW  376   3.474   1.213   0.649  0.3414 -0.3428  0.3462
   63SOL    HW1  377   3.558   1.259   0.654  0.0502  0.2095  0.2822
   63SOL    HW2  378   3.436   1.243   0.566 -0.5947  0.6101  1.0914
   64SOL     OW  379   0.576   3.768   0.927  0.5201  0.0423 -0.2990
   64SOL    HW1  380   0.499   3.728   0.887  2.7162 -3.1503 -1.7824
   64SOL    HW2  381   0.581   3.729   1.014  0.7524 -0.2212 -0.4274
   65SOL     OW  382   0.832   2.657   0.408  0.2456 -0.0183 -0.0525
   65SOL    HW1  383   0.739   2.679   0.416 -0.4908 -2.9214  0.6510
   65SOL    HW2  384   0.840   2.619   0.320  0.1478 -2.0502  0.7596
   66SOL     OW  385   2.417   1.537   0.701 -0.5303 -0.0285  0.6620
   66SOL    HW1  386   2.425   1.617   0.754  1.6332  0.2734 -0.0002
   66SOL    HW2  387   2.371   1.475   0.758 -1.1565  1.2949  1.6582
   67SOL     OW  388   0.602   0.730   3.889  0.0587  0.5468 -0.2925
   67SOL    HW1  389   0.686   0.774   3.904  0.6792  0.1965 -2.3453
   67SOL    HW2  390   0.617   0.679   3.809 -1.9360  0.0034 -0.3521
   68SOL     OW  391   3.420   0.818   3.218 -0.2382  0.1121  0.1805
   68SOL    HW1  392   3.339   0.815   3.168 -0.9529 -3.3702  1.2458
   68SOL    HW2  393   3.396   0.860   3.300 -0.2147  1.6178 -0.5553
   69SOL     OW  394   0.453   3.204   2.208  0.1644 -0.2436 -0.1943
   69SOL    HW1  395   0.547   3.184   2.214  0.3649  0.8139  0.6904
   69SOL    HW2  396   0.432   3.193   2.116  0.9160 -1.5018 -0.2403
   70SOL     OW  397   2.185   1.387   4.236 -0.5683  0.8293  0.9761
   70SOL    HW1  398   2.227   1.320   4.290 -0.6486  0.4614  0.5908
   70SOL    HW2  399   2.216   1.470   4.272  0.5121  0.5726  0.6951
   71SOL     OW  400   1.879   1.246   1.899 -1.1191  0.0476 -0.0782
   71SOL    HW1  401   1.972   1.230   1.885 -1.1554  0.7258 -1.1966
   71SOL    HW2  402   1.857   1.195   1.977  0.1687 -0.1663  0.1588
   72SOL     OW  403   0.863   2.357   4.252 -0.2971  0.3924  0.1342
   72SOL    HW1  404   0.887   2.376   4.161 -1.8258 -1.7513 -0.8070
   72SOL    HW2  405   0.769   2.375   4.255 -0.1477  1.0307  1.4855
   73SOL     OW  406   1.069   0.925   4.376  0.3174  0.1216  0.0138
   73SOL    HW1  407   1.141   0.905   4.317  1.6711 -1.5424  2.0886
   73SOL    HW2  408   1.035   0.840   4.403  1.1020  0.6574  3.1188
   74SOL     OW  409   1.419   3.553   2.899 -0.3423  0.5830 -0.1322
   74SOL    HW1  410   1.451   3.644   2.903  1.1886  0.0603  0.1550
   74SOL    HW2  411   1.486   3.506   2.850 -1.4067 -0.3060 -0.7999
   75SOL     OW  412   3.172   1.268   2.193  0.3891  0.2881 -0.5795
   75SOL    HW1  413   3.190   1.190   2.141 -2.1493 -0.3001 -0.7000
   75SOL    HW2  414   3.121   1.324   2.135  0.8921  1.4002  0.0164
   76SOL     OW  415   1.686   1.444   3.496  0.2736  0.5358  0.6781
   76SOL    HW1  416   1.629   1.432   3.572 -0.0096 -0.2600  0.3564
   76SOL    HW2  417   1.651   1.522   3.452 -3.0134 -1.8760 -1.5424
   77SOL     OW  418   1.964   0.386   0.527  0.0441 -0.1159  0.1150
   77SOL    HW1  419   1.927   0.466   0.489 -1.2236 -1.1476 -0.9489
   77SOL    HW2  420   2.053   0.382   0.493  0.1359  0.8614  0.2242
   78SOL     OW  421   1.314   4.823   2.040 -0.1066 -0.0690  0.5775
   78SOL    HW1  422   1.338   4.730   2.034  1.0909  0.3191 -1.5979
   78SOL    HW2  423   1.391   4.865   2.077 -0.8866  0.0254  2.1884
   79SOL     OW  424   3.688   4.745   1.021 -0.1155  0.9858 -0.2810
   79SOL    HW1  425   3.772   4.790   1.024  1.3593 -1.5857 -0.0668
   79SOL    HW2  426   3.697   4.674   1.085 -1.8352 -0.3479 -1.4318
   80SOL     OW  427   3.204   4.837   2.854  0.8075 -0.0872 -0.1286
   80SOL    HW1  428   3.216   4.932   2.858  0.1831  0.0054 -0.2181
   80SOL    HW2  429   3.177   4.813   2.942 -0.1671  0.0022 -0.3843
   81SOL     OW  430   1.232   1.850   0.279 -0.2152  0.2323 -0.9188
   81SOL    HW1  431   1.147   1.813   0.255  0.6867 -0.6945 -2.9291
   81SOL    HW2  432   1.212   1.938   0.310 -1.9381 -0.0750 -1.0537
   82SOL     OW  433   2.533   4.871   4.512 -0.4075  0.1860  0.2588
   82SOL    HW1  434   2.533   4.778   4.490  0.9441  0.2066  0.1329
   82SOL    HW2  435   2.568   4.914   4.435 -1.2538  0.8368  0.2250
   83SOL     OW  436   2.118   1.753   0.309 -0.2623  0.2131  0.5507
   83SOL    HW1  437   2.028   1.774   0.334 -0.5604 -1.7782  1.4049
   83SOL    HW2  438   2.153   1.704   0.384  0.7683 -0.9802 -0.6535
   84SOL     OW  439   1.124   2.129   0.629  0.9517  0.6801 -0.7061
   84SOL    HW1  440   1.105   2.222   0.632  2.9517  1.1085 -0.3700
   84SOL    HW2  441   1.124   2.107   0.536  0.0847  0.9046 -0.7668
   85SOL     OW  442   2.855   3.178   0.364  0.1065  0.1214  0.4538
   85SOL    HW1  443   2.931   3.222   0.327  0.5638 -1.4335 -0.5659
   85SOL    HW2  444   2.852   3.206   0.455  1.4256  0.8291  0.2935
   86SOL     OW  445   2.352   0.845   3.912  0.4242 -0.4146  0.8315
   86SOL    HW1  446   2.271   0.857   3.961  0.5937  0.5898  0.8867
   86SOL    HW2  447   2.401   0.926   3.926  0.1172  0.2883 -1.6801
   87SOL     OW  448   3.426   2.279   2.650  0.2836  0.1221 -0.2223
   87SOL    HW1  449   3.407   2.230   2.730  1.1898  0.8721  0.4687
   87SOL    HW2  450   3.370   2.357   2.655  0.5592  0.3171 -0.1736
   88SOL     OW  451   0.826   1.459   0.841 -0.1535  0.0271 -0.0490
   88SOL    HW1  452   0.819   1.409   0.759  0.3382  1.2516 -0.8681
   88SOL    HW2  453   0.919   1.478   0.850 -0.0778 -0.9034  1.3138
   89SOL     OW  454   0.313   2.423   0.197  0.5784 -0.4583  0.1991
   89SOL    HW1  455   0.270   2.352   0.245 -0.7979  0.1180 -0.1415
   89SOL    HW2  456   0.375   2.379   0.139 -0.1110 -1.3780  0.1405
   90SOL     OW  457   1.099   4.658   4.316 -0.5699  0.1681 -0.2913
   90SOL    HW1  458   1.098   4.614   4.231 -0.8306 -0.7921  0.2015
   90SOL    HW2  459   1.173   4.719   4.311 -0.2124 -0.3155 -0.9830
   91SOL     OW  460   1.090   4.869   3.901 -0.0710 -0.1146  0.2644
   91SOL    HW1  461   1.160   4.927   3.932 -0.2176  1.1011 -1.5195
   91SOL    HW2  462   1.025   4.871   3.971  0.7754  0.3718  1.0606
   92SOL     OW  463   0.764   0.952   4.770  0.5634  0.7379 -0.2869
   92SOL    HW1  464   0.790   0.865   4.740  1.5577  1.1971 -0.8095
   92SOL    HW2  465   0.829   0.976   4.835 -0.8440  0.2981  1.3612
   93SOL     OW  466   2.068   0.251   4.793 -0.0753 -0.4734  0.3994
   93SOL    HW1  467   2.085   0.169   4.747 -0.4777 -1.3343  1.7618
   93SOL    HW2  468   2.029   0.308   4.726 -0.8465 -1.7674 -0.2906
   94SOL     OW  469   2.696   1.143   2.132 -0.9599  0.8534 -0.0497
   94SOL    HW1  470   2.610   1.130   2.171 -2.2403  1.7508 -2.3862
   94SOL    HW2  471   2.679   1.154   2.039  1.9565 -1.6194 -1.0325
   95SOL     OW  472   0.708   2.744   2.775 -0.3970 -0.3539  0.1069
   95SOL    HW1  473   0.668   2.766   2.691 -0.7794  0.0046  0.3807
   95SOL    HW2  474   0.675   2.657   2.795  0.6698 -0.9753 -0.7036
   96SOL     OW  475   2.424   4.531   0.668  0.0581 -0.0193 -0.5612
   96SOL    HW1  476   2.417   4.622   0.638 -0.5149  0.3800  0.7328
   96SOL    HW2  477   2.490   4.492   0.610 -1.1461  0.6418 -2.4694
   97SOL     OW  478   3.088   2.323   3.310 -0.4019  0.1952  0.5230
   97SOL    HW1  479   3.068   2.266   3.236  1.0027  1.9443 -1.3003
   97SOL    HW2  480   3.020   2.391   3.307 -1.3365 -0.6038  1.9420
   98SOL     OW  481   3.381   1.082   0.216 -0.1746  0.2281 -0.3997
   98SOL    HW1  482   3.292   1.113   0.196 -0.1110 -0.1481 -1.3263
   98SOL    HW2  483   3.369   0.991   0.243  0.1736 -0.9938 -3.8381
   99SOL     OW  484   3.175   2.479   1.624  0.3073  0.5733  0.0752
   99SOL    HW1  485   3.237   2.497   1.695  0.0944 -0.3431  0.5166
   99SOL    HW2  486   3.114   2.416   1.662  0.2170  0.0280 -0.9442
  100SOL     OW  487   1.699   2.030   1.467  0.1442  0.1915  0.1398
  100SOL    HW1  488   1.645   2.080   1.405  1.1760  0.6371 -0.4258
  100SOL    HW2  489   1.783   2.076   1.467  1.1915 -1.6467 -0.5217
  101SOL     OW  490   1.346   1.479   1.779  0.1853 -0.2028 -0.2011
  101SOL    HW1  491   1.404   1.444   1.711  1.0722  0.5181  0.1725
  101SOL    HW2  492   1.326   1.403   1.834 -1.0212 -0.9273 -1.5768
  102SOL     OW  493   4.030   1.131   1.680  0.5398 -0.0803 -0.3938
  102SOL    HW1  494   3.943   1.092   1.670  0.6444 -1.2934  2.6018
  102SOL    HW2  495   4.018   1.223   1.656 -0.8773 -0.7720 -2.6908
  103SOL     OW  496   3.305   0.115   2.461  0.4956  0.0859  0.1713
  103SOL    HW1  497   3.392   0.108   2.499  0.3058  1.6370  0.9564
  103SOL    HW2  498   3.252   0.158   2.528 -0.9312 -0.9444 -0.2284
  104SOL     OW  499   0.127   0.235   2.672  0.2990  0.1441  0.0238
  104SOL    HW1  500   0.095   0.151   2.639 -0.2771  0.5539 -0.4760
  104SOL    HW2  501   0.063   0.262   2.737  0.8212 -0.1028  0.6517
  105SOL     OW  502   4.244   0.762   3.873 -0.6229  0.5388 -0.2707
  105SOL    HW1  503   4.265   0.838   3.926 -0.5404  0.0647  0.3917
  105SOL    HW2  504   4.149   0.765   3.863 -0.5620  1.0194 -0.6959
  106SOL     OW  505   1.144   0.547   2.444  0.2735 -0.1111 -0.2090
  106SOL    HW1  506   1.098   0.622   2.405  0.6732  0.3210  0.1399
  106SOL    HW2  507   1.176   0.497   2.368 -0.7561 -0.4248 -0.4578
  107SOL     OW  508   0.869   1.959   3.150 -0.0432 -0.1129  0.1577
  107SOL    HW1  509   0.818   1.985   3.073 -1.0208  0.7891  1.0885
  107SOL    HW2  510   0.845   1.867   3.165 -1.1382  0.2028  0.3772
  108SOL     OW  511   1.909   3.632   3.291  0.2079  0.2622  0.4161
  108SOL    HW1  512   2.003   3.650   3.301 -0.0707  1.4126  1.3693
  108SOL    HW2  513   1.867   3.701   3.343 -1.1284 -0.9952  1.0773
  109SOL     OW  514   1.134   3.333   3.111  0.3343 -0.2864  0.5492
  109SOL    HW1  515   1.075   3.259   3.124 -0.1804  0.0671  0.2708
  109SOL    HW2  516   1.101   3.401   3.170 -0.0586  0.2059 -0.2170
  110SOL     OW  517   0.084   3.384   1.336 -0.8058  0.0095  0.1527
  110SOL    HW1  518  -0.009   3.410   1.335 -1.5601 -2.4872 -0.6036
  110SOL    HW2  519   0.120   3.423   1.256 -1.5513 -0.0779 -0.2438
  111SOL     OW  520   1.809   3.766   3.039 -0.1274  0.3364 -0.1411
  111SOL    HW1  521   1.782   3.677   3.060  1.1386  0.0291  0.2159
  111SOL    HW2  522   1.772   3.819   3.110  0.2131 -0.0795  0.3534
  112SOL     OW  523   3.404   4.728   3.933  0.0987 -0.5590 -0.0957
  112SOL    HW1  524   3.457   4.806   3.948 -0.0520 -0.5683  0.4979
  112SOL    HW2  525   3.467   4.656   3.928  0.3151 -0.3024 -1.4987
  113SOL     OW  526   0.774   0.478   1.157 -0.6282  0.2900 -0.5408
  113SOL    HW1  527   0.715   0.472   1.083  0.3267 -0.0071 -1.2980
  113SOL    HW2  528   0.718   0.503   1.231 -1.6377  0.2702 -1.2851
  114SOL     OW  529   4.836   4.070   1.625 -0.0479  0.4238  0.6366
  114SOL    HW1  530   4.892   4.013   1.572 -0.2382  0.6809  0.1505
  114SOL    HW2  531   4.878   4.072   1.711  1.0659  1.1401  0.0936
  115SOL     OW  532   2.081   4.455   0.920 -0.6062 -0.3222 -0.0772
  115SOL    HW1  533   2.128   4.415   0.847 -1.2004  0.2443 -0.7831
  115SOL    HW2  534   1.994   4.417   0.917 -0.5204 -0.5838  0.5790
  116SOL     OW  535   3.329   3.021   0.394  0.1564  0.1553 -0.2274
  116SOL    HW1  536   3.382   3.037   0.472 -0.5641  2.3436 -0.1294
  116SOL    HW2  537   3.241   3.005   0.427  0.1437 -0.4115 -0.5279
  117SOL     OW  538   0.106   2.018   2.590 -0.2884 -0.2433  0.3102
  117SOL    HW1  539   0.148   2.102   2.612  0.5644 -0.6569  0.2851
  117SOL    HW2  540   0.019   2.043   2.558 -0.2124  0.6057  0.7302
  118SOL     OW  541   0.820   4.485   0.215 -0.1847  0.3897  0.4338
  118SOL    HW1  542   0.867   4.502   0.296 -0.0705  0.1215  0.4234
  118SOL    HW2  543   0.888   4.473   0.149 -0.2549 -0.4227  0.5039
  119SOL     OW  544   1.261   3.973   0.648 -0.1630 -0.0807  0.5917
  119SOL    HW1  545   1.184   3.921   0.625  0.4920 -0.7212 -0.2373
  119SOL    HW2  546   1.325   3.908   0.678 -0.1435  0.5067  1.8602
  120SOL     OW  547   0.226   1.714   0.955  0.7100  0.5310  0.3168
  120SOL    HW1  548   0.317   1.734   0.936  1.2473 -2.1559 -0.3217
  120SOL    HW2  549   0.228   1.669   1.040  0.2648 -1.1704 -0.5262
  121SOL     OW  550   1.743   1.171   0.529  0.4821  0.0341 -0.0596
  121SOL    HW1  551   1.655   1.168   0.566  0.6019  1.7417  0.4436
  121SOL    HW2  552   1.733   1.217   0.446  0.7469 -0.8079 -0.5774
  122SOL     OW  553   4.259   2.082   4.435  0.3684  0.4493  0.3290
  122SOL    HW1  554   4.168   2.075   4.463  0.3618 -0.3843  0.1392
  122SOL    HW2  555   4.306   2.112   4.512 -0.1367  1.4177  0.2793
  123SOL     OW  556   1.151   1.567   2.801 -0.6492 -0.4901  0.0255
  123SOL    HW1  557   1.204   1.642   2.827  0.5392 -1.6941  1.2560
  123SOL    HW2  558   1.090   1.554   2.873 -2.4643  0.6456 -1.2088
  124SOL     OW  559   4.284   4.263   3.887 -0.1232 -0.0891  0.1791
  124SOL    HW1  560   4.275   4.168   3.887  1.0803 -0.2910 -2.5470
  124SOL    HW2  561   4.374   4.279   3.917 -0.2837  0.1952  0.5180
  125SOL     OW  562   1.575   1.626   3.308 -0.0685  0.0705  0.0402
  125SOL    HW1  563   1.520   1.553   3.278  0.8527  0.1065 -1.9195
  125SOL    HW2  564   1.661   1.607   3.272  0.4430  1.5802  0.4008
  126SOL     OW  565   1.869   2.627   2.807  0.0206 -0.4021 -0.1119
  126SOL    HW1  566   1.850   2.663   2.721  0.3936 -0.1293 -0.0828
  126SOL    HW2  567   1.854   2.701   2.867  0.7842 -0.2915 -0.0503
  127SOL     OW  568   1.504   4.223   0.654 -0.7707  0.5090  0.2706
  127SOL    HW1  569   1.516   4.228   0.559  0.4141 -0.3936  0.3499
  127SOL    HW2  570   1.414   4.251   0.668 -1.7684 -1.5909 -1.3637
  128SOL     OW  571   4.570   0.933   2.121  0.4246 -0.2361  0.0171
  128SOL    HW1  572   4.630   0.999   2.087  0.7662 -0.1183  0.8374
  128SOL    HW2  573   4.502   0.983   2.166 -0.2797 -0.3718 -0.8537
  129SOL     OW  574   0.208   3.370   0.925  0.0449  0.7297  0.6766
  129SOL    HW1  575   0.271   3.303   0.899 -1.2212  0.0354 -0.7657
  129SOL    HW2  576   0.195   3.423   0.846 -2.3738 -0.1720  0.3517
  130SOL     OW  577   2.626   3.412   1.246  0.6384 -0.1446  0.2920
  130SOL    HW1  578   2.693   3.474   1.216  0.9347  0.3249  1.8345
  130SOL    HW2  579   2.672   3.354   1.306  0.0330 -0.9496  0.0009
  131SOL     OW  580   4.417   0.453   4.644  0.6563  0.5007  0.1063
  131SOL    HW1  581   4.362   0.433   4.720  1.1183  1.2167  0.6403
  131SOL    HW2  582   4.412   0.548   4.635 -0.2688  0.3266 -1.4411
  132SOL     OW  583   3.160   0.253   3.393 -0.0804  0.4087  0.7843
  132SOL    HW1  584   3.197   0.334   3.429  2.8719 -0.5965  0.3442
  132SOL    HW2  585   3.192   0.250   3.302 -2.5176  0.0759 -0.1422
  133SOL     OW  586   2.570   0.698   3.236 -0.0252  0.6099 -0.1478
  133SOL    HW1  587   2.522   0.616   3.221  1.8926 -0.4978 -0.6122
  133SOL    HW2  588   2.512   0.750   3.291 -2.0440 -0.3344 -1.2733
  134SOL     OW  589   4.927   4.220   0.837 -0.0577  1.3630  0.4059
  134SOL    HW1  590   4.982   4.253   0.908  0.0819  0.4479  0.7290
  134SOL    HW2  591   4.939   4.125   0.838 -1.5058  1.1483  0.3757
  135SOL     OW  592   3.646   3.468   4.255  0.0582 -0.6458  0.0752
  135SOL    HW1  593   3.600   3.514   4.184 -0.1880  0.1416  0.7346
  135SOL    HW2  594   3.612   3.507   4.335 -1.2545 -2.9990  0.7502
  136SOL     OW  595   4.523   2.599   0.171 -0.1348  0.1601 -0.5372
  136SOL    HW1  596   4.454   2.536   0.152 -2.2832  2.4867 -0.9779
  136SOL    HW2  597   4.569   2.562   0.246 -2.7020 -0.8946  0.6241
  137SOL     OW  598   1.136   1.663   2.249 -0.4929 -0.1632  0.0592
  137SOL    HW1  599   1.045   1.673   2.221 -0.9190  2.0742  1.9518
  137SOL    HW2  600   1.184   1.728   2.198 -0.6252  1.2044  1.6052
  138SOL     OW  601   3.797   3.644   1.544  0.0093  0.4670  0.1903
  138SOL    HW1  602   3.737   3.697   1.596  0.0719 -1.2921  2.1842
  138SOL    HW2  603   3.884   3.665   1.579  0.0265 -0.9563  1.0875
  139SOL     OW  604   3.999   0.370   2.057  0.1282  0.4888 -0.3921
  139SOL    HW1  605   4.008   0.464   2.039 -0.2584  0.6426  0.1946
  139SOL    HW2  606   3.960   0.334   1.977 -2.3287  1.3025  0.3624
  140SOL     OW  607   2.960   4.188   2.171 -0.3036 -0.1352  0.7884
  140SOL    HW1  608   2.922   4.137   2.099  0.2719  1.5250 -0.7959
  140SOL    HW2  609   2.907   4.268   2.174 -1.7320 -1.0636  3.7689
  141SOL     OW  610   3.634   1.332   4.509  0.1813  0.1432 -0.9737
  141SOL    HW1  611   3.573   1.330   4.436 -0.7727  2.4313 -0.3103
  141SOL    HW2  612   3.580   1.314   4.586  0.2289  2.3327 -0.3637
  142SOL     OW  613   4.141   2.173   3.123 -0.7913 -0.9121 -0.0884
  142SOL    HW1  614   4.085   2.186   3.047 -0.8694 -1.7010 -0.1756
  142SOL    HW2  615   4.174   2.260   3.144 -0.6804 -0.7010 -1.0921
  143SOL     OW  616   3.023   1.312   4.755 -0.1544 -0.0693  0.4640
  143SOL    HW1  617   2.969   1.382   4.718  0.4929 -0.6950 -1.8734
  143SOL    HW2  618   3.108   1.353   4.772  0.2378 -0.2328 -0.9440
  144SOL     OW  619   2.244   1.122   1.736 -0.7525 -0.3193  0.4394
  144SOL    HW1  620   2.247   1.113   1.831 -0.8757  0.6493  0.5424
  144SOL    HW2  621   2.207   1.209   1.721  0.9453  0.3065 -0.4617
  145SOL     OW  622   2.049   0.982   2.177 -0.6833  0.0418  0.2234
  145SOL    HW1  623   1.957   1.009   2.176 -0.6443  0.1805  0.3445
  145SOL    HW2  624   2.045   0.887   2.188 -0.8673 -0.2781 -2.2018
  146SOL     OW  625   2.364   2.894   2.807  0.3750 -0.0560 -0.7256
  146SOL    HW1  626   2.384   2.961   2.872  0.0462 -0.5390 -0.1152
  146SOL    HW2  627   2.409   2.923   2.728 -0.9368  1.6326 -0.8987
  147SOL     OW  628   4.867   1.879   1.604 -0.0834  0.0693 -0.3534
  147SOL    HW1  629   4.777   1.909   1.609 -0.0302  0.0446  1.5126
  147SOL    HW2  630   4.915   1.935   1.665  0.7551 -1.2491  0.2562
  148SOL     OW  631   0.814   1.835   4.117 -0.1670  0.1141 -0.3915
  148SOL    HW1  632   0.819   1.791   4.032  1.3449 -0.1147 -0.2103
  148SOL    HW2  633   0.858   1.775   4.178 -3.4998 -0.9727  1.1498
  149SOL     OW  634   3.238   3.424   1.532  0.3444  0.2956  0.1318
  149SOL    HW1  635   3.295   3.494   1.562  1.2109 -0.2523 -0.2102
  149SOL    HW2  636   3.288   3.378   1.466  0.4547 -1.6507  1.4799
  150SOL     OW  637   2.773   2.453   4.391  0.7977  0.2475  0.2068
  150SOL    HW1  638   2.840   2.384   4.394 -0.0324 -0.7972 -2.6059
  150SOL    HW2  639   2.697   2.415   4.435  0.6727 -0.2406 -0.4299
  151SOL     OW  640   3.263   1.517   1.544 -0.2559  0.4598  0.7320
  151SOL    HW1  641   3.222   1.469   1.472 -0.2454 -0.2052  1.1647
  151SOL    HW2  642   3.274   1.606   1.510  1.1880 -0.1974 -0.6765
  152SOL     OW  643   1.362   4.846   0.520  0.0838 -0.0028 -0.3937
  152SOL    HW1  644   1.451   4.859   0.486  0.2616  0.3406  0.2019
  152SOL    HW2  645   1.356   4.903   0.596 -0.9642  0.6843 -0.9687
  153SOL     OW  646   0.183   1.771   4.699 -0.1773  0.1011  0.0790
  153SOL    HW1  647   0.125   1.765   4.775  1.1378  1.2452  1.2206
  153SOL    HW2  648   0.200   1.680   4.674 -0.9003 -0.2750  0.9279
  154SOL     OW  649   3.837   2.688   2.546  0.0083 -0.2984  0.3666
  154SOL    HW1  650   3.839   2.593   2.536  0.0488 -0.3848  1.1465
  154SOL    HW2  651   3.781   2.703   2.622  0.2143  0.2873  0.4070
  155SOL     OW  652   4.312   0.895   0.469 -0.0140  0.1854  0.0334
  155SOL    HW1  653   4.273   0.822   0.421  3.0562 -0.7820 -1.2699
  155SOL    HW2  654   4.353   0.854   0.545  0.6017  0.7127 -0.0017
  156SOL     OW  655   0.824   1.153   4.320  0.3424 -0.0821  0.4756
  156SOL    HW1  656   0.822   1.104   4.238 -2.4964  0.2993  0.2146
  156SOL    HW2  657   0.775   1.099   4.382  2.8345 -0.5979  2.1872
  157SOL     OW  658   0.571   2.716   4.343  0.4104  0.4494  0.2994
  157SOL    HW1  659   0.657   2.741   4.309  0.1198 -0.6175 -1.3732
  157SOL    HW2  660   0.555   2.629   4.306 -0.7068 -0.0746  1.8904
  158SOL     OW  661   1.377   4.250   1.685  0.5098  0.0210  0.0075
  158SOL    HW1  662   1.418   4.324   1.641  0.7691 -0.3091 -0.3178
  158SOL    HW2  663   1.419   4.246   1.771  1.0552 -0.2152 -0.2636
  159SOL     OW  664   4.433   4.108   3.609  0.2034 -0.2499 -0.4442
  159SOL    HW1  665   4.360   4.170   3.618  0.4751  0.2459 -1.4398
  159SOL    HW2  666   4.483   4.141   3.534  2.8800  0.8735  1.6745
  160SOL     OW  667   3.282   0.720   0.052  0.5111 -0.2979  0.1408
  160SOL    HW1  668   3.330   0.679   0.124 -0.1540 -1.5029 -0.0798
  160SOL    HW2  669   3.255   0.647  -0.004 -0.0693  0.5099 -0.6639
  161SOL     OW  670   2.672   3.962   2.637 -0.1394 -0.0990 -0.1823
  161SOL    HW1  671   2.701   4.034   2.581 -0.9818  1.1079  0.8680
  161SOL    HW2  672   2.751   3.910   2.650  1.5502  2.6595  1.9406
  162SOL     OW  673   0.607   0.021   4.269 -0.0518 -0.4864  1.0076
  162SOL    HW1  674   0.586   0.111   4.295 -1.4411 -0.7351  0.8097
  162SOL    HW2  675   0.525  -0.027   4.279  0.1205 -1.2786 -0.8692
  163SOL     OW  676   3.912   2.810   1.629 -0.3097 -0.1073  0.5968
  163SOL    HW1  677   3.854   2.787   1.701  1.1415 -2.1285  1.2215
  163SOL    HW2  678   3.863   2.786   1.550 -0.3686 -1.8154  1.1152
  164SOL     OW  679   3.643   0.855   0.847 -0.8984  0.2787 -0.5702
  164SOL    HW1  680   3.650   0.929   0.907  0.8409 -0.6283  0.4311
  164SOL    HW2  681   3.622   0.895   0.763  2.0131  2.2031 -0.5346
  165SOL     OW  682   3.178   2.122   1.578  0.5048  0.2617 -0.0364
  165SOL    HW1  683   3.133   2.194   1.624  0.2873 -0.4874  0.9650
  165SOL    HW2  684   3.235   2.083   1.645 -0.3540 -1.3214 -0.1810
  166SOL     OW  685   4.591   3.632   1.249 -0.5232 -0.2962 -0.1895
  166SOL    HW1  686   4.522   3.688   1.284  0.0965  0.5326 -0.2688
  166SOL    HW2  687   4.544   3.559   1.209 -1.2821 -0.7721  1.4771
  167SOL     OW  688   2.235   3.502   0.158 -0.3423  0.1436 -0.2711
  167SOL    HW1  689   2.204   3.591   0.171  2.4084  0.8663  2.8218
  167SOL    HW2  690   2.299   3.489   0.228  0.5055 -3.7570 -1.5285
  168SOL     OW  691   1.253   3.278   4.907  0.1694  0.7792  0.0798
  168SOL    HW1  692   1.270   3.321   4.824 -2.1985  0.7309 -0.4927
  168SOL    HW2  693   1.231   3.188   4.883 -2.3211  1.1994  0.4979
  169SOL     OW  694   4.116   0.200   4.919  0.0066 -0.1430  0.1743
  169SOL    HW1  695   4.048   0.211   4.853 -0.3170  2.6588  0.8489
  169SOL    HW2  696   4.081   0.241   4.998  1.3296 -1.2692  1.4155
  170SOL     OW  697   4.708   1.412   1.973  0.5848 -0.0242  0.3060
  170SOL    HW1  698   4.637   1.418   1.910  0.3059  0.2117  0.6363
  170SOL    HW2  699   4.772   1.477   1.945 -0.6332  1.8465  1.6265
  171SOL     OW  700   4.346   4.185   0.976 -0.0574  0.2422  0.1408
  171SOL    HW1  701   4.360   4.260   1.034  1.6907  0.3038 -0.2927
  171SOL    HW2  702   4.415   4.124   1.000  0.2739 -0.0198 -1.3970
  172SOL     OW  703   4.088   0.604   4.296 -0.1268  0.4114 -0.4862
  172SOL    HW1  704   4.090   0.698   4.278 -0.5636  0.1958 -1.7737
  172SOL    HW2  705   4.017   0.593   4.360  0.6557  1.0683  0.5159
  173SOL     OW  706   1.663   1.433   1.968 -0.5529 -0.4221 -0.1550
  173SOL    HW1  707   1.576   1.393   1.972 -1.1813  0.8428 -0.8900
  173SOL    HW2  708   1.716   1.371   1.917 -1.4783 -0.3959 -1.1676
  174SOL     OW  709   1.139   3.332   0.201 -0.1988  0.6599  0.0575
  174SOL    HW1  710   1.176   3.265   0.259 -0.6618  0.9785  0.7439
  174SOL    HW2  711   1.174   3.311   0.115 -1.0164 -1.0050  0.0726
  175SOL     OW  712   3.231   3.277   0.634 -1.0183  0.0273 -0.3156
  175SOL    HW1  713   3.255   3.190   0.668  0.7347  1.0192  1.1540
  175SOL    HW2  714   3.304   3.302   0.578 -1.3870  0.6803 -0.5110
  176SOL     OW  715   2.053   0.402   1.635 -0.1451 -0.3256  0.4740
  176SOL    HW1  716   2.124   0.464   1.655  0.9389 -0.8440 -1.4402
  176SOL    HW2  717   2.095   0.337   1.578 -1.6441 -1.9277  1.1504
  177SOL     OW  718   0.289   0.958   3.095  0.5607 -0.5287  0.1314
  177SOL    HW1  719   0.219   0.936   3.034  1.0703  0.5990 -0.9166
  177SOL    HW2  720   0.357   0.999   3.040  0.1628  2.5018  1.6655
  178SOL     OW  721   1.249   4.044   2.113 -0.0859  0.4028 -0.0196
  178SOL    HW1  722   1.338   4.010   2.113 -0.2030  0.0892 -0.2803
  178SOL    HW2  723   1.232   4.068   2.204 -0.4703 -1.4957  0.4533
  179SOL     OW  724   3.305   0.975   0.643 -0.1090 -0.4703 -0.5842
  179SOL    HW1  725   3.361   1.049   0.619  1.0205 -0.4010  1.9543
  179SOL    HW2  726   3.363   0.899   0.639 -0.5944 -0.8421 -0.6487
  180SOL     OW  727   0.897   4.879   4.365  0.4749  0.5084  0.1400
  180SOL    HW1  728   0.915   4.930   4.444  1.5113  0.0709  0.2107
  180SOL    HW2  729   0.978   4.829   4.350 -0.3138 -0.7251 -0.2001
  181SOL     OW  730   3.067   0.158   3.838 -0.0249 -0.7607 -0.5587
  181SOL    HW1  731   3.008   0.097   3.882 -1.1626  1.2875  0.9192
  181SOL    HW2  732   3.148   0.108   3.826 -0.7594 -2.4292  0.9173
  182SOL     OW  733   4.615   2.586   0.840  0.0383  0.1033 -0.0191
  182SOL    HW1  734   4.665   2.615   0.763 -0.3090  0.0381 -0.2741
  182SOL    HW2  735   4.524   2.595   0.813 -0.1064  1.2622  0.8311
  183SOL     OW  736   3.970   2.936   3.359  0.7857  0.2009  0.4757
  183SOL    HW1  737   3.922   3.018   3.347  1.6206  0.6582  0.1209
  183SOL    HW2  738   3.913   2.869   3.322 -0.0199  0.5840  1.0087
  184SOL     OW  739   1.622   0.603   1.577  0.2252 -0.0340 -0.0688
  184SOL    HW1  740   1.666   0.523   1.605  1.3294 -0.1055 -1.8483
  184SOL    HW2  741   1.690   0.670   1.580 -0.5522  0.7407  0.8828
  185SOL     OW  742   0.601   2.554   1.453 -0.7925  0.3108 -0.1001
  185SOL    HW1  743   0.598   2.525   1.544  0.5822  3.0287  0.9098
  185SOL    HW2  744   0.631   2.477   1.405  0.0591 -0.7484  1.9731
  186SOL     OW  745   2.576   3.075   0.091  0.2269  0.6165 -0.3179
  186SOL    HW1  746   2.643   3.089   0.024 -0.0406 -3.0177 -1.5363
  186SOL    HW2  747   2.493   3.076   0.043 -0.2581  0.9668  0.5004
  187SOL     OW  748   0.887   2.551   1.753 -0.3575  0.2716 -0.5822
  187SOL    HW1  749   0.802   2.514   1.729 -0.3894 -0.2511  0.2970
  187SOL    HW2  750   0.916   2.498   1.827  0.1413  1.2724 -0.0419
  188SOL     OW  751   1.414   1.170   3.624  0.4852  0.0309 -0.9857
  188SOL    HW1  752   1.479   1.240   3.622  1.8519 -1.0236  1.4781
  188SOL    HW2  753   1.348   1.199   3.687  1.6982 -1.2758  1.0114
  189SOL     OW  754   3.665   1.576   4.090 -0.0633 -0.3227  0.3585
  189SOL    HW1  755   3.679   1.489   4.128  1.0623 -0.1625  0.3591
  189SOL    HW2  756   3.744   1.592   4.037  0.5154  1.3321  1.6136
  190SOL     OW  757   3.504   2.716   0.600  0.2063 -0.7065  0.2881
  190SOL    HW1  758   3.435   2.651   0.614  0.0887 -0.6762 -0.1372
  190SOL    HW2  759   3.514   2.720   0.505  0.5016 -0.4024  0.3312
  191SOL     OW  760   1.954   3.769   4.185 -0.6421  0.2150 -0.3815
  191SOL    HW1  761   2.037   3.770   4.138 -0.5449 -0.0273 -0.2200
  191SOL    HW2  762   1.943   3.677   4.211 -0.3553  0.4659  0.6623
  192SOL     OW  763   3.426   3.630   1.605  0.4523 -0.4409 -0.4715
  192SOL    HW1  764   3.490   3.699   1.623 -0.2984  0.1339  0.0821
  192SOL    HW2  765   3.349   3.677   1.573  0.7139 -1.2182 -2.3727
  193SOL     OW  766   0.620   0.448   2.917  0.2831 -0.5200 -0.1227
  193SOL    HW1  767   0.553   0.400   2.868 -0.9391 -1.2694  2.1070
  193SOL    HW2  768   0.576   0.529   2.944  0.5849 -0.5721  0.5395
  194SOL     OW  769   0.212   2.059   4.076  0.7457 -0.5039 -0.3766
  194SOL    HW1  770   0.132   2.043   4.026  0.5898  1.3955 -0.8247
  194SOL    HW2  771   0.279   2.005   4.034  0.4522  0.4977 -2.2347
  195SOL     OW  772   2.094   1.035   2.689 -0.0979 -0.1149  0.2291
  195SOL    HW1  773   2.125   1.052   2.600  0.5768  0.8585  0.6399
  195SOL    HW2  774   2.153   0.968   2.723  2.0848  2.1776  1.2333
  196SOL     OW  775   2.796   4.509   4.193 -0.2051 -0.4660  0.7529
  196SOL    HW1  776   2.782   4.485   4.101  0.0497 -0.5497  0.7359
  196SOL    HW2  777   2.817   4.426   4.236 -0.6103 -0.4723  0.9412
  197SOL     OW  778   0.378   3.885   1.075 -0.9847 -0.4216 -0.0372
  197SOL    HW1  779   0.449   3.876   1.012 -0.5317  1.8223  0.0926
  197SOL    HW2  780   0.421   3.907   1.157 -1.7989  1.4561 -0.0615
  198SOL     OW  781   3.693   2.417   3.045  0.6806 -0.1688 -0.5479
  198SOL    HW1  782   3.607   2.399   3.083  0.1891  1.2325 -0.9280
  198SOL    HW2  783   3.732   2.331   3.031 -1.0193 -0.8642 -1.1904
  199SOL     OW  784   1.089   1.571   0.885 -0.4521  0.3780  0.4176
  199SOL    HW1  785   1.097   1.667   0.878  0.6001  0.3353  0.8081
  199SOL    HW2  786   1.063   1.555   0.975  0.2805  0.2611  0.6143
  200SOL     OW  787   4.931   1.713   0.014  0.1196 -0.4703 -0.0040
  200SOL    HW1  788   4.853   1.667   0.044  1.4414 -2.5794  0.4236
  200SOL    HW2  789   4.904   1.805   0.006 -1.4401 -0.4469  3.6756
  201SOL     OW  790   2.407   3.589   0.832  0.2609  0.0568 -0.4641
  201SOL    HW1  791   2.451   3.521   0.883  0.8544  1.6374  1.2657
  201SOL    HW2  792   2.339   3.623   0.891 -0.1495  0.8282 -1.3536
  202SOL     OW  793   1.143   1.324   4.601  0.0775  0.1708  0.3392
  202SOL    HW1  794   1.057   1.365   4.595 -1.1754 -2.1839  0.8966
  202SOL    HW2  795   1.125   1.236   4.634  2.5873 -0.8484 -0.7635
  203SOL     OW  796   3.021   2.934   3.432 -0.1688 -0.0536 -1.0439
  203SOL    HW1  797   2.942   2.944   3.379  1.6039  0.3500 -3.8025
  203SOL    HW2  798   3.071   2.865   3.389  0.6972 -0.8808  1.1080
  204SOL     OW  799   3.418   4.823   1.524  0.2923  0.0463 -0.1939
  204SOL    HW1  800   3.369   4.862   1.596 -0.1873  0.2055 -0.5963
  204SOL    HW2  801   3.458   4.898   1.479  1.9699 -0.1551  0.8580
  205SOL     OW  802   3.393   3.988   0.030 -0.0502 -0.0773 -0.1868
  205SOL    HW1  803   3.397   4.061  -0.032 -2.1659  0.3164  0.0794
  205SOL    HW2  804   3.423   4.026   0.113  0.2403  0.1011 -0.3727
  206SOL     OW  805   1.299   0.223   1.945  0.1761 -0.3505  0.1115
  206SOL    HW1  806   1.264   0.312   1.937  0.6211  0.1001  2.5127
  206SOL    HW2  807   1.392   0.233   1.926  0.2202 -0.2950  0.3501
  207SOL     OW  808   4.178   1.349   0.163  0.0872  0.1450 -0.1311
  207SOL    HW1  809   4.100   1.403   0.177  1.0139  1.7756 -0.8827
  207SOL    HW2  810   4.167   1.313   0.075  0.7785  1.5296 -0.8222
  208SOL     OW  811   1.850   4.817   3.147 -0.1674  0.2756  0.5839
  208SOL    HW1  812   1.887   4.776   3.226  1.8079  3.6426  1.6101
  208SOL    HW2  813   1.797   4.889   3.180 -0.4211  0.9148 -1.1274
  209SOL     OW  814   3.745   0.911   1.948 -0.2610  0.6712  0.6982
  209SOL    HW1  815   3.667   0.966   1.961 -0.5658  0.4701 -0.2236
  209SOL    HW2  816   3.757   0.909   1.853  0.4604  0.1265  0.7964
  210SOL     OW  817   1.545   2.853   2.550  0.1561 -0.3272  0.8247
  210SOL    HW1  818   1.502   2.782   2.503  0.6101 -0.4993  0.6664
  210SOL    HW2  819   1.527   2.931   2.498  0.1225 -0.4169  0.7015
  211SOL     OW  820   0.360   2.855   0.554  0.3409 -0.5465 -0.3806
  211SOL    HW1  821   0.312   2.895   0.482  0.1904 -2.5687 -1.4903
  211SOL    HW2  822   0.335   2.763   0.550  2.9243 -1.3435  0.1275
  212SOL     OW  823   1.304   0.627   2.660  0.7271  0.3207 -0.0467
  212SOL    HW1  824   1.257   0.625   2.576  1.4830  0.5506 -0.4854
  212SOL    HW2  825   1.348   0.542   2.665 -0.5186 -0.3047  0.8413
  213SOL     OW  826   0.293   3.813   3.882  0.5803  0.6347 -0.4793
  213SOL    HW1  827   0.238   3.758   3.826  0.7947 -0.5397  0.4241
  213SOL    HW2  828   0.256   3.901   3.873 -3.7396 -0.5694  2.7265
  214SOL     OW  829   0.441   0.734   4.107  0.0195 -0.1395 -0.4147
  214SOL    HW1  830   0.356   0.700   4.078 -0.2292  1.3432 -1.5266
  214SOL    HW2  831   0.498   0.725   4.030  0.1674  1.1503 -0.4730
  215SOL     OW  832   2.704   0.190   0.218  0.2592  0.3300  0.3073
  215SOL    HW1  833   2.681   0.275   0.257  1.9410  1.6007 -1.2847
  215SOL    HW2  834   2.784   0.164   0.262 -0.5614 -0.7889  1.2074
  216SOL     OW  835   1.829   1.476   4.433 -0.0414 -0.1244  0.2379
  216SOL    HW1  836   1.749   1.455   4.383 -0.2185 -0.4073  0.6335
  216SOL    HW2  837   1.878   1.394   4.435 -0.2111 -0.2200  0.8404
  217SOL     OW  838   1.651   1.221   0.008  0.1364 -0.2429  0.0881
  217SOL    HW1  839   1.646   1.294  -0.053  1.6037  0.5561  0.8902
  217SOL    HW2  840   1.567   1.224   0.055  0.2520  1.0374  0.2370
  218SOL     OW  841   0.724   2.335   1.664 -0.0806  0.5020  0.1334
  218SOL    HW1  842   0.691   2.249   1.638 -0.2264  0.6893 -0.3036
  218SOL    HW2  843   0.655   2.372   1.718 -0.3588  0.6723 -0.3370
  219SOL     OW  844   1.671   0.024   2.381 -0.3009  0.2534  0.5571
  219SOL    HW1  845   1.628   0.044   2.464 -0.7788  0.8780  0.1693
  219SOL    HW2  846   1.686   0.109   2.340  0.1845 -0.0324  0.1261
  220SOL     OW  847   0.052   0.193   1.197  0.3549 -0.5235 -0.1409
  220SOL    HW1  848   0.010   0.176   1.281 -0.5216  0.2281 -0.3939
  220SOL    HW2  849  -0.022   0.206   1.137  0.9663 -1.1991 -1.0587
  221SOL     OW  850   4.180   1.534   4.381  0.1352  0.0327 -0.2559
  221SOL    HW1  851   4.270   1.554   4.356 -0.3133  0.5488 -1.5424
  221SOL    HW2  852   4.134   1.521   4.298 -0.6831 -1.6260  0.4034
  222SOL     OW  853   3.126   2.655   1.304  0.1765  0.0225  0.0644
  222SOL    HW1  854   3.146   2.690   1.391  2.4588 -2.1603  0.5179
  222SOL    HW2  855   3.108   2.563   1.319 -1.2168 -0.0283 -1.6242
  223SOL     OW  856   1.298   1.233   0.087  0.3573  0.2595 -0.8008
  223SOL    HW1  857   1.205   1.244   0.109  0.4655  0.4754 -0.4602
  223SOL    HW2  858   1.315   1.141   0.103  0.1989  0.2149 -0.8790
  224SOL     OW  859   2.726   4.057   3.755 -0.1669 -0.5193 -0.1514
  224SOL    HW1  860   2.727   4.064   3.850 -0.2196 -1.5539 -0.0630
  224SOL    HW2  861   2.818   4.041   3.731  0.2738  2.1338 -0.5068
  225SOL     OW  862   0.401   3.467   0.051 -0.3542  0.9462 -0.4310
  225SOL    HW1  863   0.422   3.439   0.140 -0.3604  1.4537 -0.2649
  225SOL    HW2  864   0.329   3.529   0.062 -2.4299 -1.2088 -1.0317
  226SOL     OW  865   1.823   3.342   4.631  0.0135 -0.0466  0.1752
  226SOL    HW1  866   1.849   3.252   4.653 -0.1437  0.1944  1.3865
  226SOL    HW2  867   1.906   3.389   4.624  0.0507  0.4622  2.9320
  227SOL     OW  868   1.859   1.727   4.535 -0.1107  0.2215 -0.1681
  227SOL    HW1  869   1.849   1.633   4.525 -1.0196  0.1208  1.3033
  227SOL    HW2  870   1.774   1.757   4.568  0.4375  1.4227  0.2361
  228SOL     OW  871   1.863   0.877   0.741  0.1930 -0.1578  0.7746
  228SOL    HW1  872   1.904   0.956   0.775  1.1935 -0.7236  0.9109
  228SOL    HW2  873   1.881   0.880   0.647 -0.7008  0.3035  0.6012
  229SOL     OW  874   4.105   2.551   1.623  0.5532 -0.1401  0.2322
  229SOL    HW1  875   4.092   2.637   1.582  2.0381  0.0313  0.0570
  229SOL    HW2  876   4.063   2.559   1.709 -0.2578  0.3879 -0.1972
  230SOL     OW  877   2.445   1.312   2.798 -0.7631  0.2296  0.0773
  230SOL    HW1  878   2.384   1.355   2.737 -0.4738  0.3571 -0.1223
  230SOL    HW2  879   2.509   1.269   2.742  1.0411  2.4991  0.2473
  231SOL     OW  880   1.192   4.244   0.909  0.5393  0.0990 -0.0938
  231SOL    HW1  881   1.126   4.179   0.935  1.4051 -0.7253  0.0929
  231SOL    HW2  882   1.257   4.243   0.979  0.8904  0.7177 -0.3945
  232SOL     OW  883   1.748   0.792   4.674 -0.4834 -0.1620  0.3189
  232SOL    HW1  884   1.829   0.744   4.659 -0.5779 -0.8815  1.8942
  232SOL    HW2  885   1.679   0.726   4.664 -0.8406  0.3185 -0.4515
  233SOL     OW  886   4.010   3.443   0.249  0.2416  0.3915 -0.0048
  233SOL    HW1  887   4.001   3.527   0.205  2.1540 -0.1042 -1.4744
  233SOL    HW2  888   4.018   3.379   0.179  1.7826 -0.6345  1.0352
  234SOL     OW  889   3.928   4.231   1.929  0.3043 -0.0492 -0.1282
  234SOL    HW1  890   4.021   4.251   1.918 -0.1268  1.6458 -1.0891
  234SOL    HW2  891   3.890   4.313   1.962 -0.6564 -1.1121  1.5973
  235SOL     OW  892   0.555   0.561   3.248 -0.3219 -0.0636  0.6399
  235SOL    HW1  893   0.525   0.483   3.294  2.0762 -1.6989 -0.3513
  235SOL    HW2  894   0.627   0.595   3.302  1.6474 -1.2455 -1.0778
  236SOL     OW  895   2.931   2.530   0.922  0.0474 -0.5009  0.8220
  236SOL    HW1  896   2.951   2.485   0.840  0.1179 -1.8404  1.5315
  236SOL    HW2  897   2.835   2.540   0.921  0.1927  0.9436 -0.1237
  237SOL     OW  898   2.106   2.100   4.812  0.3818  0.6689 -0.5582
  237SOL    HW1  899   2.057   2.174   4.848 -1.7523 -2.1753  3.1496
  237SOL    HW2  900   2.039   2.048   4.766  1.0884 -0.6166 -0.1618
  238SOL     OW  901   0.320   4.709   3.715 -0.6199 -0.1639  0.0539
  238SOL    HW1  902   0.292   4.785   3.663 -3.1809 -1.2407 -0.2701
  238SOL    HW2  903   0.323   4.637   3.652  1.6377 -0.4281  0.3869
  239SOL     OW  904   4.410   3.465   1.122  0.0981 -0.2873  0.0141
  239SOL    HW1  905   4.480   3.410   1.088 -1.3924 -1.3571 -1.4810
  239SOL    HW2  906   4.358   3.407   1.178  0.0534  0.3190  0.6107
  240SOL     OW  907   2.275   3.131   1.115  0.3893  1.2395 -0.1471
  240SOL    HW1  908   2.302   3.223   1.125  1.4985  1.1992 -2.2159
  240SOL    HW2  909   2.345   3.091   1.065 -0.3298 -0.6524  0.2727
  241SOL     OW  910   2.901   4.077   0.505  0.1150 -0.0962 -0.2637
  241SOL    HW1  911   2.963   4.020   0.551  0.6861 -0.1725 -1.0922
  241SOL    HW2  912   2.884   4.148   0.566  0.5409 -0.4051  0.2250
  242SOL     OW  913   0.595   3.878   4.756  0.8920  0.0296 -0.4431
  242SOL    HW1  914   0.593   3.882   4.661 -0.1082  3.1466 -0.4000
  242SOL    HW2  915   0.571   3.788   4.777 -0.9011 -0.2275 -3.1057
  243SOL     OW  916   0.093   0.720   1.043 -0.5330 -0.0357  0.4482
  243SOL    HW1  917   0.066   0.636   1.006 -1.4778  0.2130  0.5537
  243SOL    HW2  918   0.012   0.761   1.073 -0.1703  1.1920 -0.1724
  244SOL     OW  919   2.981   2.243   4.821  0.5233  0.3165 -0.2657
  244SOL    HW1  920   3.068   2.211   4.798  0.4866 -0.0485  0.0915
  244SOL    HW2  921   2.960   2.199   4.903 -0.4449 -0.4276 -0.8930
  245SOL     OW  922   2.307   2.482   1.776 -0.2092  0.4799  0.1997
  245SOL    HW1  923   2.250   2.416   1.736 -1.1462  0.9873  0.6526
  245SOL    HW2  924   2.386   2.482   1.722 -1.5118  1.3306 -1.8430
  246SOL     OW  925   2.843   2.026   4.553  0.2986 -0.2638  0.2876
  246SOL    HW1  926   2.860   2.088   4.482  0.7355  1.5362  1.8901
  246SOL    HW2  927   2.927   1.983   4.567 -0.0294 -1.3753 -0.8958
  247SOL     OW  928   0.982   2.400   1.474 -0.1796  0.4138  0.0211
  247SOL    HW1  929   0.902   2.349   1.464 -0.9609  1.4215  0.7932
  247SOL    HW2  930   0.985   2.422   1.568  0.9429  0.4910 -0.0172
  248SOL     OW  931   4.119   2.876   1.055  0.4488 -0.0784 -0.4849
  248SOL    HW1  932   4.191   2.816   1.076  0.2288  0.1612  1.0909
  248SOL    HW2  933   4.123   2.943   1.124 -0.7506  0.4083 -0.8633
  249SOL     OW  934   2.915   0.847   2.585 -0.3138 -0.2995 -0.2071
  249SOL    HW1  935   2.991   0.901   2.564  1.0273 -2.4113 -1.0463
  249SOL    HW2  936   2.866   0.841   2.503 -0.3894 -0.4822 -0.1500
  250SOL     OW  937   4.542   1.996   2.812 -0.1041 -0.2687 -0.6969
  250SOL    HW1  938   4.465   1.991   2.868 -1.0127 -0.5915 -1.9347
  250SOL    HW2  939   4.613   2.021   2.871 -1.2678  0.6647  0.3612
  251SOL     OW  940   1.910   0.863   2.606  0.3899  0.2640 -0.2260
  251SOL    HW1  941   1.831   0.915   2.622 -0.5648  0.0309 -3.5774
  251SOL    HW2  942   1.981   0.927   2.602 -0.1718  0.8774 -0.4926
  252SOL     OW  943   3.920   4.458   1.653 -0.1488  0.3494  0.1577
  252SOL    HW1  944   3.896   4.550   1.658 -0.2029  0.3138  0.6005
  252SOL    HW2  945   4.013   4.456   1.678 -0.2220  0.2559  0.4329
  253SOL     OW  946   1.638   1.047   1.516 -0.4911 -0.0031  0.0674
  253SOL    HW1  947   1.583   1.111   1.561 -0.4752 -0.1675  0.3256
  253SOL    HW2  948   1.604   1.045   1.426 -1.0983 -0.3122  0.2968
  254SOL     OW  949   1.524   4.115   1.438  0.0546  0.3117 -0.0325
  254SOL    HW1  950   1.611   4.154   1.429 -0.2592  1.1650  0.4651
  254SOL    HW2  951   1.511   4.105   1.532 -1.0322  1.7837  0.0212
  255SOL     OW  952   3.927   0.830   0.482  0.2858  0.2374 -0.5004
  255SOL    HW1  953   3.910   0.817   0.575 -2.2445 -2.3837 -1.1970
  255SOL    HW2  954   3.873   0.904   0.457 -0.0876  0.0853 -0.1392
  256SOL     OW  955   4.201   0.957   0.107  0.0083 -0.4016 -0.1768
  256SOL    HW1  956   4.260   0.994   0.172  0.8412  0.5072 -1.4042
  256SOL    HW2  957   4.256   0.903   0.052 -0.4239 -0.1043 -0.9146
  257SOL     OW  958   3.417   2.513   1.356  0.3476 -0.2480  0.1736
  257SOL    HW1  959   3.395   2.424   1.329  2.2666 -0.5327 -0.6442
  257SOL    HW2  960   3.408   2.566   1.276 -0.3863  0.2234  0.5592
  258SOL     OW  961   3.905   0.587   4.509 -0.6694 -0.3562  0.4653
  258SOL    HW1  962   3.947   0.516   4.557  0.6254 -0.0850 -0.2389
  258SOL    HW2  963   3.812   0.565   4.511 -0.2258 -2.5738 -0.4876
  259SOL     OW  964   0.113   1.026   4.118 -0.1334 -0.3782 -0.2789
  259SOL    HW1  965   0.151   1.112   4.101 -1.6127  0.2831 -0.4079
  259SOL    HW2  966   0.043   1.044   4.181 -0.1100 -1.5780  0.1028
  260SOL     OW  967   3.661   4.373   3.387  0.0150 -0.6307 -0.4744
  260SOL    HW1  968   3.659   4.366   3.483  2.0899  0.6358 -0.2971
  260SOL    HW2  969   3.697   4.289   3.358  1.0087 -0.3776 -0.0140
  261SOL     OW  970   3.143   1.672   2.255  0.0746  0.6975  0.0162
  261SOL    HW1  971   3.218   1.699   2.202  0.3659  0.4848  0.3178
  261SOL    HW2  972   3.106   1.597   2.208  1.2882 -0.5075  0.9332
  262SOL     OW  973   3.437   2.777   0.307 -0.0062  0.5099  0.8381
  262SOL    HW1  974   3.443   2.775   0.212 -0.9284  0.1165  0.7783
  262SOL    HW2  975   3.410   2.866   0.328 -2.0601  0.0021  0.5585
  263SOL     OW  976   2.654   4.360   0.056  0.5272  0.1653  0.4746
  263SOL    HW1  977   2.650   4.444   0.010  0.0459  0.6969  1.4623
  263SOL    HW2  978   2.743   4.330   0.042  1.2510  1.6895  1.5508
  264SOL     OW  979   2.125   0.301   4.205 -0.2263  0.0788 -0.1897
  264SOL    HW1  980   2.186   0.261   4.266  0.6574 -1.0947 -1.7877
  264SOL    HW2  981   2.176   0.369   4.161 -0.2954 -0.3385 -0.9328
  265SOL     OW  982   4.658   1.073   1.263  0.7809  0.1050  0.3087
  265SOL    HW1  983   4.588   1.077   1.198  0.8115  0.4352  0.2919
  265SOL    HW2  984   4.736   1.104   1.216  0.8707  0.0418  0.4143
  266SOL     OW  985   4.121   4.183   0.812  0.3645 -0.4696 -0.5356
  266SOL    HW1  986   4.148   4.198   0.721  0.4156  1.1566 -0.2967
  266SOL    HW2  987   4.197   4.210   0.864 -0.7783  1.8650  0.0690
  267SOL     OW  988   1.288   3.209   2.188 -0.3241 -0.0742  0.7031
  267SOL    HW1  989   1.288   3.305   2.181  3.2327  0.0099 -0.5683
  267SOL    HW2  990   1.246   3.179   2.107 -1.7256  0.3577  1.2446
  268SOL     OW  991   1.435   4.586   2.908  0.3774  0.2007  0.1116
  268SOL    HW1  992   1.453   4.532   2.831  0.6869 -0.5804  0.7184
  268SOL    HW2  993   1.341   4.575   2.923  0.1606  0.9728 -0.5987
  269SOL     OW  994   4.376   0.437   2.785 -0.0832 -0.0035 -0.4863
  269SOL    HW1  995   4.317   0.426   2.860  1.4410  0.8142  0.9230
  269SOL    HW2  996   4.340   0.512   2.737 -1.0642 -0.5183 -0.5695
  270SOL     OW  997   1.710   3.463   1.206 -0.4254  0.7486 -0.0626
  270SOL    HW1  998   1.799   3.441   1.232 -0.7364 -0.6026 -0.0686
  270SOL    HW2  999   1.667   3.490   1.288 -0.1487  0.9172  0.0261
  271SOL     OW 1000   4.511   2.275   4.933 -0.2544  0.2502  0.1974
  271SOL    HW1 1001   4.466   2.291   5.016  0.7230  0.4462  0.7018
  271SOL    HW2 1002   4.523   2.362   4.895 -0.9457  0.1393 -0.2897
  272SOL     OW 1003   4.192   4.078   2.266 -0.4800  0.3843  0.0681
  272SOL    HW1 1004   4.216   4.036   2.184 -4.3072 -0.3356 -0.8428
  272SOL    HW2 1005   4.172   4.169   2.242 -1.1222  0.3041  0.2791
  273SOL     OW 1006   4.602   4.028   1.518 -0.3847 -0.2508 -0.0875
  273SOL    HW1 1007   4.624   3.938   1.496 -0.1037 -0.8899  2.4250
  273SOL    HW2 1008   4.679   4.061   1.564 -1.2242  0.5553  0.7993
  274SOL     OW 1009   2.531   3.294   2.046  0.3925  0.0498  0.4677
  274SOL    HW1 1010   2.590   3.288   2.121 -0.0619  0.3568  0.8527
  274SOL    HW2 1011   2.486   3.378   2.058  0.1053 -0.0385  0.0095
  275SOL     OW 1012   1.469   3.622   2.290 -0.1648  0.3139  0.8781
  275SOL    HW1 1013   1.441   3.701   2.334 -0.3672 -0.0958  1.5000
  275SOL    HW2 1014   1.431   3.551   2.341 -0.3786 -0.1744  0.0594
  276SOL     OW 1015   3.545   1.883   4.924  0.4851  0.2988  0.3780
  276SOL    HW1 1016   3.452   1.898   4.945  0.8408  2.5785  0.6274
  276SOL    HW2 1017   3.547   1.877   4.829  0.2892  2.8128  0.1329
  277SOL     OW 1018   3.333   4.260   4.860 -0.2387 -0.7129 -0.5909
  277SOL    HW1 1019   3.359   4.315   4.934  1.4974 -2.2443  0.0178
  277SOL    HW2 1020   3.393   4.285   4.789 -0.6445 -0.5901 -0.8995
  278SOL     OW 1021   3.932   4.839   1.025  0.1241  0.3660  0.0859
  278SOL    HW1 1022   3.952   4.812   0.935 -1.8426  0.9839 -0.5780
  278SOL    HW2 1023   3.967   4.928   1.032  0.2463  0.3300 -0.0785
  279SOL     OW 1024   3.704   3.110   0.970 -0.3028 -0.3176 -0.7097
  279SOL    HW1 1025   3.645   3.072   0.905 -1.7194  0.5748 -0.0108
  279SOL    HW2 1026   3.748   3.035   1.010 -1.5439 -1.0958 -0.7436
  280SOL     OW 1027   1.491   2.478   0.053  0.1058 -0.2260 -0.1700
  280SOL    HW1 1028   1.477   2.433   0.136 -1.9245 -0.5194 -0.6172
  280SOL    HW2 1029   1.408   2.467   0.005  1.5658 -1.0525 -2.7197
  281SOL     OW 1030   0.617   1.694   2.522 -0.0331  0.1804 -0.0789
  281SOL    HW1 1031   0.524   1.706   2.508 -0.0630  1.0516  0.7712
  281SOL    HW2 1032   0.647   1.643   2.447 -1.0577  0.4928 -0.7066
  282SOL     OW 1033   0.657   1.396   2.770  0.0382 -0.6837 -0.2894
  282SOL    HW1 1034   0.650   1.431   2.859 -0.6896 -1.0780 -0.1856
  282SOL    HW2 1035   0.751   1.402   2.750  0.0175  0.8189 -0.0816
  283SOL     OW 1036   2.359   3.414   1.207  0.3547 -0.0057 -0.4259
  283SOL    HW1 1037   2.348   3.507   1.185  0.3612 -0.0920 -0.7904
  283SOL    HW2 1038   2.453   3.406   1.226  0.2624  0.1752  0.1442
  284SOL     OW 1039   2.810   4.423   2.472  0.0444 -0.1814 -0.1465
  284SOL    HW1 1040   2.747   4.463   2.531 -0.5963  0.3474 -1.1787
  284SOL    HW2 1041   2.863   4.496   2.440  0.3151 -0.4491 -0.3122
  285SOL     OW 1042   1.596   1.722   4.923  0.0630  0.1650 -0.0626
  285SOL    HW1 1043   1.621   1.757   5.008 -0.4276  1.2394 -0.3518
  285SOL    HW2 1044   1.502   1.738   4.916  0.2244  0.7609 -1.1088
  286SOL     OW 1045   0.195   1.239   1.770  0.1333 -0.4194 -0.1278
  286SOL    HW1 1046   0.272   1.259   1.824 -0.6582 -0.0025  0.8646
  286SOL    HW2 1047   0.224   1.167   1.714  0.9784 -0.8520  0.8344
  287SOL     OW 1048   2.907   3.403   2.022 -0.5187 -0.4485  0.4851
  287SOL    HW1 1049   2.877   3.425   1.933 -0.8236 -0.1569  0.6593
  287SOL    HW2 1050   3.003   3.408   2.016 -0.4570 -1.7740 -0.1759
  288SOL     OW 1051   3.802   4.335   4.611 -0.2194 -0.4516 -0.5377
  288SOL    HW1 1052   3.760   4.266   4.560  0.2715 -2.5761  1.7414
  288SOL    HW2 1053   3.785   4.312   4.702  1.8524  1.2137  0.3706
  289SOL     OW 1054   4.285   3.820   3.611  0.1129 -0.7988 -0.9170
  289SOL    HW1 1055   4.291   3.914   3.592  2.5824 -0.8043 -0.4820
  289SOL    HW2 1056   4.230   3.815   3.689 -0.4509  0.2395 -1.2262
  290SOL     OW 1057   1.361   2.431   0.341  0.5439  0.4745 -0.4126
  290SOL    HW1 1058   1.333   2.485   0.414  0.7491 -0.8955  0.7198
  290SOL    HW2 1059   1.297   2.360   0.337  1.8313 -0.7630 -0.0257
  291SOL     OW 1060   3.610   0.139   1.159 -0.4412 -0.6350  0.3522
  291SOL    HW1 1061   3.586   0.068   1.100 -0.2972  0.5596 -1.2111
  291SOL    HW2 1062   3.698   0.165   1.131 -1.4082  1.7241 -0.7781
  292SOL     OW 1063   3.611   3.439   3.951  0.4035 -0.3348 -1.0761
  292SOL    HW1 1064   3.548   3.373   3.922 -0.0759 -0.1576 -0.4770
  292SOL    HW2 1065   3.695   3.394   3.953 -0.2076 -1.4800  1.1471
  293SOL     OW 1066   1.547   4.258   3.072 -0.6638  0.1702  0.4739
  293SOL    HW1 1067   1.591   4.343   3.075 -1.7764  0.7755  0.3091
  293SOL    HW2 1068   1.497   4.261   2.991 -0.2121 -0.9144  0.1475
  294SOL     OW 1069   0.148   2.607   1.582 -0.0461 -0.0436  0.2815
  294SOL    HW1 1070   0.064   2.596   1.536  0.1854 -0.8389  0.0285
  294SOL    HW2 1071   0.138   2.688   1.631 -0.2968  0.8233 -1.1702
  295SOL     OW 1072   2.045   0.831   0.240  0.2613  0.3495 -0.4014
  295SOL    HW1 1073   2.030   0.780   0.160  1.8749  0.7436 -0.9868
  295SOL    HW2 1074   2.123   0.791   0.280  0.0261  0.7517  0.4919
  296SOL     OW 1075   0.289   3.682   1.631 -0.1493  0.5704 -0.1103
  296SOL    HW1 1076   0.294   3.587   1.644 -0.3997  0.3176 -1.6731
  296SOL    HW2 1077   0.312   3.694   1.539 -1.9328  1.8570 -0.4300
  297SOL     OW 1078   2.999   2.279   1.716 -0.4071 -0.3965  0.3921
  297SOL    HW1 1079   2.971   2.202   1.766 -1.4228 -1.2826 -1.4359
  297SOL    HW2 1080   2.918   2.320   1.686  0.1540 -0.2381 -1.0018
  298SOL     OW 1081   0.909   4.577   2.293 -0.3041  0.5095  0.4367
  298SOL    HW1 1082   0.981   4.627   2.256 -0.4181  0.6381  0.3882
  298SOL    HW2 1083   0.831   4.627   2.270 -0.6845 -1.0075 -1.9873
  299SOL     OW 1084   3.144   1.950   0.782 -0.1453 -0.1006 -0.7474
  299SOL    HW1 1085   3.145   1.864   0.739  1.7950 -0.8639  0.7151
  299SOL    HW2 1086   3.228   1.989   0.760  0.4134 -0.0250  1.3612
  300SOL     OW 1087   4.509   4.267   4.744  1.1061  0.7133 -0.3281
  300SOL    HW1 1088   4.566   4.340   4.770  0.2578  0.6884  1.7497
  300SOL    HW2 1089   4.557   4.188   4.769  1.3532  0.5872 -1.1671
  301SOL     OW 1090   3.314   1.324   0.901 -0.7120 -0.1141  0.0500
  301SOL    HW1 1091   3.370   1.268   0.955 -1.7763  0.2760  1.6449
  301SOL    HW2 1092   3.340   1.305   0.811  0.2803 -1.7286  0.6383
  302SOL     OW 1093   0.191   3.908   0.233 -0.7652  0.6277  0.1110
  302SOL    HW1 1094   0.182   3.907   0.137 -0.6987  1.2187  0.0919
  302SOL    HW2 1095   0.269   3.961   0.249  2.6558 -3.9404  0.3150
  303SOL     OW 1096   0.201   4.078   3.954 -0.0970  0.1591 -0.4896
  303SOL    HW1 1097   0.161   4.151   3.999  0.3624 -0.6146  1.2557
  303SOL    HW2 1098   0.208   4.009   4.020 -0.4872 -1.4756 -2.0443
  304SOL     OW 1099   2.145   1.555   2.361  0.4417 -0.2242 -0.4024
  304SOL    HW1 1100   2.102   1.593   2.285 -0.8145 -1.4615 -0.3600
  304SOL    HW2 1101   2.228   1.603   2.369 -0.8389  2.1548 -0.5684
  305SOL     OW 1102   3.161   1.026   1.071 -0.4383 -0.4261 -0.1777
  305SOL    HW1 1103   3.080   1.007   1.119  0.2458 -5.0614 -0.3890
  305SOL    HW2 1104   3.139   1.013   0.979  0.2205 -0.2293 -0.3729
  306SOL     OW 1105   1.390   3.195   3.955 -0.0310  0.2248  0.4826
  306SOL    HW1 1106   1.398   3.149   3.872  0.8812  1.6117 -0.2154
  306SOL    HW2 1107   1.362   3.127   4.017  0.9693 -1.2048 -0.5714
  307SOL     OW 1108   3.960   4.037   3.158  0.1584 -0.7638  0.3853
  307SOL    HW1 1109   4.026   4.045   3.089  0.5929 -0.7711  0.7922
  307SOL    HW2 1110   3.981   4.107   3.219 -0.2288 -0.7524  0.5061
  308SOL     OW 1111   0.432   3.821   1.416  0.7714  0.5018 -0.2619
  308SOL    HW1 1112   0.348   3.860   1.394  1.1600  1.2826 -0.3950
  308SOL    HW2 1113   0.494   3.894   1.415  1.1646  0.2384  1.4743
  309SOL     OW 1114   4.027   2.171   0.140  0.0725 -0.2748  0.8123
  309SOL    HW1 1115   4.044   2.205   0.052 -0.1669 -0.1231  0.8247
  309SOL    HW2 1116   4.019   2.250   0.195 -0.7458 -0.3457  0.7951
  310SOL     OW 1117   2.758   0.297   3.880  0.9529  0.1512 -0.0756
  310SOL    HW1 1118   2.778   0.210   3.846 -0.0688  0.3123 -1.1446
  310SOL    HW2 1119   2.833   0.351   3.854  1.7025 -0.4386  0.7971
  311SOL     OW 1120   4.773   0.118   4.732 -0.0130  0.0018 -0.2399
  311SOL    HW1 1121   4.782   0.171   4.653  2.1947  1.6174  1.0112
  311SOL    HW2 1122   4.737   0.178   4.798  0.0811 -0.7565  0.5254
  312SOL     OW 1123   2.799   3.578   1.139  0.2188  0.2518 -0.4356
  312SOL    HW1 1124   2.882   3.624   1.132  0.5765 -0.5815 -3.6011
  312SOL    HW2 1125   2.792   3.529   1.057 -2.3377 -1.5504  0.7026
  313SOL     OW 1126   4.739   0.857   0.773 -0.2401  0.1419  0.0859
  313SOL    HW1 1127   4.810   0.818   0.722  0.6815  1.7671  0.0631
  313SOL    HW2 1128   4.689   0.907   0.708 -2.3953 -2.2084 -0.2044
  314SOL     OW 1129   3.870   0.193   1.130 -0.0676  0.2807 -0.5640
  314SOL    HW1 1130   3.889   0.142   1.209 -1.1309  2.5031  1.2154
  314SOL    HW2 1131   3.941   0.256   1.124 -0.0381  0.1918 -1.3865
  315SOL     OW 1132   2.122   3.282   2.656  0.0086 -0.1611  0.3785
  315SOL    HW1 1133   2.066   3.280   2.578  0.8215 -0.2702 -0.2258
  315SOL    HW2 1134   2.085   3.216   2.714  0.8765 -1.9828 -1.0216
  316SOL     OW 1135   2.646   0.426   0.370  0.4401  0.0508  0.3101
  316SOL    HW1 1136   2.614   0.443   0.459  0.3488  0.6000  0.1779
  316SOL    HW2 1137   2.610   0.498   0.318 -1.2146 -1.3473 -0.5887
  317SOL     OW 1138   0.666   4.654   2.170 -0.5335 -0.0444 -0.2587
  317SOL    HW1 1139   0.602   4.725   2.167 -0.1694  0.2831 -0.2395
  317SOL    HW2 1140   0.728   4.674   2.099  0.3449  0.3974  0.6100
  318SOL     OW 1141   3.928   2.743   3.142  0.0908  0.6875  0.0218
  318SOL    HW1 1142   4.016   2.747   3.105 -0.3297  0.2014 -1.0691
  318SOL    HW2 1143   3.927   2.662   3.193  1.2619  2.2539  2.7811
  319SOL     OW 1144   0.455   0.674   1.217  0.4589  0.1496  0.2626
  319SOL    HW1 1145   0.482   0.595   1.264  0.2037 -0.1910 -0.1524
  319SOL    HW2 1146   0.452   0.647   1.125  0.8838  0.7847  0.0522
  320SOL     OW 1147   1.968   0.877   1.821  0.1197  0.0699 -0.4643
  320SOL    HW1 1148   2.051   0.859   1.864  0.0259  1.3418  0.2878
  320SOL    HW2 1149   1.993   0.915   1.737  0.2939  0.3686 -0.2772
  321SOL     OW 1150   2.679   2.331   0.006 -1.1420 -0.2597 -0.1579
  321SOL    HW1 1151   2.692   2.357   0.097 -0.7100  0.2642 -0.3614
  321SOL    HW2 1152   2.645   2.409  -0.037  0.1815  0.0096 -0.7799
  322SOL     OW 1153   2.601   3.366   2.668  0.0378  0.1179  0.1206
  322SOL    HW1 1154   2.618   3.458   2.647  1.2788 -0.2293 -0.4797
  322SOL    HW2 1155   2.588   3.324   2.583 -0.3698 -0.2895  0.3823
  323SOL     OW 1156   1.218   3.484   1.814 -0.0445 -0.1863  0.4581
  323SOL    HW1 1157   1.240   3.528   1.732  1.6074 -0.2899  0.8036
  323SOL    HW2 1158   1.123   3.489   1.819 -0.0732  1.2595 -0.6629
  324SOL     OW 1159   4.431   4.166   1.977 -0.3573 -0.0080  0.3982
  324SOL    HW1 1160   4.442   4.225   2.051  1.5802  0.6711 -0.3486
  324SOL    HW2 1161   4.413   4.081   2.016  1.6452  0.1089  1.7523
  325SOL     OW 1162   2.724   3.107   3.737  0.4292 -0.3772 -0.4120
  325SOL    HW1 1163   2.698   3.121   3.646  1.5515  0.5910 -0.6114
  325SOL    HW2 1164   2.812   3.072   3.731  1.9377  2.9234  0.2762
  326SOL     OW 1165   3.421   1.393   4.330  0.2429  0.0763 -0.9086
  326SOL    HW1 1166   3.372   1.320   4.368  1.6630 -0.6787 -0.4674
  326SOL    HW2 1167   3.362   1.468   4.340 -0.4924 -0.6181  0.3829
  327SOL     OW 1168   1.169   4.781   3.490  0.4798  0.1539 -0.2117
  327SOL    HW1 1169   1.121   4.767   3.409 -1.4707  0.1162  0.8903
  327SOL    HW2 1170   1.231   4.851   3.471 -0.2092  0.3975 -1.6050
  328SOL     OW 1171   0.948   3.499   3.245  0.0147  0.6770  0.3428
  328SOL    HW1 1172   0.933   3.519   3.153  0.7791 -0.0663  0.0505
  328SOL    HW2 1173   0.878   3.546   3.291  0.0942  1.7033 -0.5405
  329SOL     OW 1174   4.618   1.747   2.122  0.2719 -0.4889  0.4274
  329SOL    HW1 1175   4.595   1.806   2.050 -0.6094  0.2716  1.2979
  329SOL    HW2 1176   4.713   1.756   2.132  0.1560  0.7527  0.5097
  330SOL     OW 1177   1.520   1.308   0.600  0.0738  0.1038  0.2938
  330SOL    HW1 1178   1.484   1.307   0.689 -0.6179  0.4153  0.0307
  330SOL    HW2 1179   1.517   1.400   0.574  0.6564  0.0689  0.0971
  331SOL     OW 1180   0.055   2.139   1.053 -0.3605  0.4669  0.1602
  331SOL    HW1 1181   0.026   2.053   1.085 -2.1063  0.6363 -0.8241
  331SOL    HW2 1182  -0.006   2.201   1.093 -0.3395  1.0353 -0.6609
  332SOL     OW 1183   3.047   2.041   0.447 -0.5824 -0.3323  0.1832
  332SOL    HW1 1184   3.107   1.967   0.437  0.1458  0.1472  0.8429
  332SOL    HW2 1185   3.104   2.115   0.471 -1.1328  0.7617 -1.6561
  333SOL     OW 1186   4.100   0.928   3.347  0.1378 -0.4513 -0.3083
  333SOL    HW1 1187   4.190   0.899   3.333 -0.3325 -1.5249 -1.2964
  333SOL    HW2 1188   4.055   0.908   3.265 -0.7264  1.2379 -0.2967
  334SOL     OW 1189   1.484   1.473   0.164 -0.2386  0.1592 -0.1088
  334SOL    HW1 1190   1.447   1.543   0.111 -2.0387 -1.6819 -1.4490
  334SOL    HW2 1191   1.426   1.398   0.149  0.0719 -0.9310  3.2979
  335SOL     OW 1192   2.487   2.887   3.224  0.6760  0.1414 -0.1743
  335SOL    HW1 1193   2.431   2.844   3.288  1.6951 -0.2828  0.4413
  335SOL    HW2 1194   2.469   2.842   3.141 -1.0156  1.0200 -0.3378
  336SOL     OW 1195   3.477   0.229   3.421  0.1351  0.1731 -0.2604
  336SOL    HW1 1196   3.445   0.265   3.338 -0.7041 -0.1253 -0.0744
  336SOL    HW2 1197   3.497   0.305   3.474  2.3481  0.4086 -1.3360
  337SOL     OW 1198   0.061   4.488   3.277  0.0987  0.1922  0.2994
  337SOL    HW1 1199   0.098   4.436   3.348 -0.9017 -0.5219  0.3255
  337SOL    HW2 1200   0.080   4.438   3.198  0.4595  0.5552  0.1535
  338SOL     OW 1201   0.177   0.097   1.597 -0.5906 -0.0818 -0.3358
  338SOL    HW1 1202   0.214   0.044   1.527  0.3753 -0.6880  0.6026
  338SOL    HW2 1203   0.175   0.039   1.673  0.1534  1.0865  0.6214
  339SOL     OW 1204   2.710   3.119   3.472  0.0892  0.1818  0.0140
  339SOL    HW1 1205   2.791   3.171   3.468 -0.6658  1.4179  0.4928
  339SOL    HW2 1206   2.718   3.058   3.398  1.9922 -0.5293  0.7536
  340SOL     OW 1207   4.931   2.857   0.007  0.1475 -0.2016 -0.5209
  340SOL    HW1 1208   4.953   2.772   0.046 -0.0762 -0.9096 -1.8864
  340SOL    HW2 1209   4.868   2.895   0.068  1.1388 -0.4715  0.7268
  341SOL     OW 1210   0.461   3.905   2.690  0.2616 -0.1144  0.1810
  341SOL    HW1 1211   0.370   3.880   2.679  0.3301 -0.4788  0.4496
  341SOL    HW2 1212   0.493   3.852   2.762  0.4900  0.5244  0.5625
  342SOL     OW 1213   4.323   4.497   4.150 -0.4638 -0.5390  0.1686
  342SOL    HW1 1214   4.310   4.558   4.222  0.3177  0.0920 -0.2164
  342SOL    HW2 1215   4.265   4.423   4.171 -0.3093 -0.3350  1.3936
  343SOL     OW 1216   1.581   3.228   3.301 -0.0761  0.4855  1.0610
  343SOL    HW1 1217   1.639   3.302   3.320  1.2972 -0.7362  1.7723
  343SOL    HW2 1218   1.554   3.243   3.210  0.3088  1.7705  1.1326
  344SOL     OW 1219   3.437   3.005   3.471  0.4988 -0.0811  0.6603
  344SOL    HW1 1220   3.456   3.097   3.491  0.3843  0.0752  0.0650
  344SOL    HW2 1221   3.383   2.975   3.544  0.5313  0.3281  0.8549
  345SOL     OW 1222   0.642   0.117   3.925  0.0506 -0.2719 -0.2674
  345SOL    HW1 1223   0.663   0.188   3.864  0.0124 -0.3303 -0.3484
  345SOL    HW2 1224   0.579   0.155   3.985 -0.7280 -0.5284 -0.9126
  346SOL     OW 1225   3.791   1.230   1.857  0.0940  0.7542  0.1976
  346SOL    HW1 1226   3.812   1.254   1.947 -1.6565  0.9551  0.5881
  346SOL    HW2 1227   3.799   1.134   1.856  1.9490  0.8767  0.0342
  347SOL     OW 1228   0.323   1.389   2.926 -0.1187  0.1440 -0.0060
  347SOL    HW1 1229   0.296   1.344   3.006 -1.1218  0.3541 -0.2130
  347SOL    HW2 1230   0.244   1.434   2.895  0.8090  2.0049  0.1540
  348SOL     OW 1231   2.778   0.878   4.222  0.0950  0.1480  0.2741
  348SOL    HW1 1232   2.832   0.859   4.299  1.5158  1.2148 -0.4053
  348SOL    HW2 1233   2.719   0.948   4.251  0.0522 -0.0321  0.6296
  349SOL     OW 1234   0.889   0.703   4.198  0.2268  0.0996  0.5302
  349SOL    HW1 1235   0.949   0.636   4.230  1.1493  0.3919 -0.4949
  349SOL    HW2 1236   0.808   0.689   4.247  1.5273  0.5362  2.9217
  350SOL     OW 1237   2.448   4.173   2.543 -0.2201 -0.1887  0.1330
  350SOL    HW1 1238   2.505   4.245   2.570 -0.1743  0.5123 -1.7070
  350SOL    HW2 1239   2.489   4.138   2.464 -1.1267 -1.1917  0.0794
  351SOL     OW 1240   2.191   4.436   4.387 -0.1849 -0.3912 -0.1982
  351SOL    HW1 1241   2.180   4.452   4.293 -0.2492  0.2410 -0.0867
  351SOL    HW2 1242   2.140   4.504   4.429  0.6988 -0.0269  0.3034
  352SOL     OW 1243   1.807   1.303   4.058 -0.5015 -0.1063  0.0369
  352SOL    HW1 1244   1.734   1.363   4.047 -0.8318 -0.9043 -2.7862
  352SOL    HW2 1245   1.768   1.216   4.047  0.6669 -0.5959 -0.3593
  353SOL     OW 1246   3.610   3.841   4.913  0.1966 -0.6449  0.7357
  353SOL    HW1 1247   3.539   3.903   4.930  0.3754 -0.3301  0.3561
  353SOL    HW2 1248   3.567   3.756   4.912 -0.7550 -0.2480 -2.4687
  354SOL     OW 1249   3.175   3.462   4.276  0.3907  0.3233  0.1547
  354SOL    HW1 1250   3.184   3.378   4.321  2.1708  1.7174  2.7144
  354SOL    HW2 1251   3.124   3.516   4.337  1.0351  1.6882 -0.4609
  355SOL     OW 1252   3.873   2.967   2.400  0.3137 -0.0415 -0.0783
  355SOL    HW1 1253   3.779   2.978   2.391  0.5454  1.5442 -1.1929
  355SOL    HW2 1254   3.896   3.016   2.479  0.3779  1.1411 -0.7921
  356SOL     OW 1255   2.645   2.944   0.357 -0.3182 -0.2191 -0.3001
  356SOL    HW1 1256   2.638   2.891   0.436 -0.8061  0.5115  0.1511
  356SOL    HW2 1257   2.576   2.910   0.299 -2.3261  1.5212  0.9507
  357SOL     OW 1258   2.428   2.685   2.955 -0.0756  0.2008 -0.2571
  357SOL    HW1 1259   2.394   2.729   2.878  0.6414  0.2055 -0.5762
  357SOL    HW2 1260   2.523   2.695   2.949  0.0958 -1.2809 -0.2776
  358SOL     OW 1261   2.695   0.840   1.907  0.7451  0.0708  0.2091
  358SOL    HW1 1262   2.741   0.803   1.831  0.4667 -0.6878  0.3967
  358SOL    HW2 1263   2.617   0.881   1.870  1.2585  0.8308 -0.0455
  359SOL     OW 1264   3.624   1.510   2.017  0.5345 -0.1803  0.1268
  359SOL    HW1 1265   3.577   1.580   2.062 -1.2547 -1.3754  0.2310
  359SOL    HW2 1266   3.711   1.546   1.999 -0.3018  2.0031  0.2457
  360SOL     OW 1267   0.682   0.240   2.111  0.3121  0.2637  0.0379
  360SOL    HW1 1268   0.673   0.334   2.098  2.4896  0.4752 -0.1915
  360SOL    HW2 1269   0.604   0.216   2.161 -1.9233  1.6072 -2.5016
  361SOL     OW 1270   2.709   0.778   4.775  0.6222  0.2560 -0.2501
  361SOL    HW1 1271   2.684   0.870   4.787  1.3525  0.7599 -2.3134
  361SOL    HW2 1272   2.631   0.736   4.740  0.5061  0.2175  0.0443
  362SOL     OW 1273   0.159   2.264   1.533 -0.4476  0.1992 -0.2613
  362SOL    HW1 1274   0.069   2.265   1.501 -0.5729  1.1897  0.0960
  362SOL    HW2 1275   0.152   2.255   1.628 -0.2706  2.2368 -0.0116
  363SOL     OW 1276   2.628   3.578   4.906 -0.7821  0.1204  0.4240
  363SOL    HW1 1277   2.653   3.506   4.848 -1.5661 -0.7692  1.1656
  363SOL    HW2 1278   2.610   3.651   4.847 -0.4168 -0.4193 -0.3758
  364SOL     OW 1279   3.065   3.667   4.502  0.3154 -0.2072 -0.0652
  364SOL    HW1 1280   3.042   3.754   4.533 -0.6532 -0.5573  0.2223
  364SOL    HW2 1281   3.111   3.627   4.576 -0.0339 -0.2515  0.1303
  365SOL     OW 1282   0.229   1.942   0.718  0.2477 -0.3454  0.0459
  365SOL    HW1 1283   0.278   1.879   0.665 -1.5682 -0.6234 -1.4345
  365SOL    HW2 1284   0.287   1.963   0.790  1.9054 -1.8059 -0.7756
  366SOL     OW 1285   2.509   4.082   2.049 -0.0708  0.3233  0.1677
  366SOL    HW1 1286   2.604   4.075   2.050 -0.0159  0.8811  1.9281
  366SOL    HW2 1287   2.489   4.140   1.976  1.0883  1.8180  0.9898
  367SOL     OW 1288   3.551   3.197   2.747 -0.2090  0.2359  0.2067
  367SOL    HW1 1289   3.537   3.236   2.660 -1.5474  1.3954  0.8926
  367SOL    HW2 1290   3.554   3.272   2.806 -1.8477 -0.6302  1.4700
  368SOL     OW 1291   3.992   0.603   3.041  0.1578 -0.2521  0.6251
  368SOL    HW1 1292   3.898   0.606   3.024  0.1642 -1.7946  0.1592
  368SOL    HW2 1293   4.028   0.676   2.991 -0.7977  0.4649  0.9500
  369SOL     OW 1294   4.827   4.075   0.539 -0.0703  0.2279  0.1251
  369SOL    HW1 1295   4.870   4.079   0.454 -0.6220 -0.7712 -0.2187
  369SOL    HW2 1296   4.761   4.007   0.530  0.3386 -0.4213  1.5591
  370SOL     OW 1297   2.224   0.606   1.674 -0.2842  0.3295 -0.0588
  370SOL    HW1 1298   2.189   0.664   1.607  0.0625  1.8216  0.9912
  370SOL    HW2 1299   2.319   0.606   1.659 -0.4545 -1.9907 -1.5701
  371SOL     OW 1300   0.362   4.489   3.515 -0.1052  0.0984 -0.5791
  371SOL    HW1 1301   0.442   4.506   3.564 -0.2877  1.7136 -0.7844
  371SOL    HW2 1302   0.370   4.546   3.437 -1.1935 -0.1399 -0.8721
  372SOL     OW 1303   0.674   1.067   1.441 -0.0163  0.0038 -0.0824
  372SOL    HW1 1304   0.658   0.991   1.497  0.9485 -1.1769 -1.3332
  372SOL    HW2 1305   0.646   1.038   1.354  0.6957  0.9574 -0.6407
  373SOL     OW 1306   1.781   3.238   1.700  0.5425 -0.2632  0.1339
  373SOL    HW1 1307   1.802   3.170   1.764 -2.9770 -2.0313 -0.3890
  373SOL    HW2 1308   1.863   3.252   1.653  2.0295 -2.2802  1.9161
  374SOL     OW 1309   4.880   0.399   3.238  0.5852 -0.0063 -0.1048
  374SOL    HW1 1310   4.943   0.328   3.247  0.7979 -0.0160 -1.4739
  374SOL    HW2 1311   4.926   0.465   3.185 -0.6997 -0.2180 -1.5282
  375SOL     OW 1312   2.145   1.210   0.212 -0.0523 -0.3206 -0.3142
  375SOL    HW1 1313   2.091   1.163   0.148 -0.7431 -0.6976  0.5245
  375SOL    HW2 1314   2.112   1.300   0.210  1.9662  0.4678 -2.6875
  376SOL     OW 1315   4.556   0.778   2.919  0.6634  0.1366 -0.2431
  376SOL    HW1 1316   4.593   0.853   2.873  2.7329 -0.2863  0.6005
  376SOL    HW2 1317   4.583   0.702   2.867  1.9293 -0.2464  0.9004
  377SOL     OW 1318   4.905   1.745   4.261  0.6782  0.2385 -0.5108
  377SOL    HW1 1319   4.940   1.717   4.346  1.0119 -0.4931 -0.8838
  377SOL    HW2 1320   4.820   1.700   4.255  0.3229  0.8635 -0.2502
  378SOL     OW 1321   2.535   4.453   2.613 -0.2415 -0.1177  0.3160
  378SOL    HW1 1322   2.539   4.504   2.695 -1.6729 -0.0371  0.3604
  378SOL    HW2 1323   2.524   4.519   2.545  1.4968 -0.1427 -0.0427
  379SOL     OW 1324   4.387   0.883   3.670 -0.4354  0.0197 -0.4047
  379SOL    HW1 1325   4.331   0.819   3.715 -1.9883 -0.6783 -3.1170
  379SOL    HW2 1326   4.384   0.960   3.727 -1.8339 -0.9659  0.9608
  380SOL     OW 1327   4.769   0.982   4.586 -0.4746 -0.1253 -0.7946
  380SOL    HW1 1328   4.820   0.901   4.593  1.0047  0.7806 -0.7402
  380SOL    HW2 1329   4.779   1.024   4.672 -1.6823 -0.1229 -0.6379
  381SOL     OW 1330   1.371   2.990   4.142 -0.3067 -0.7576  0.4172
  381SOL    HW1 1331   1.405   2.913   4.097  2.2699  0.0736  0.7558
  381SOL    HW2 1332   1.427   2.998   4.220 -1.7352  0.4002  1.3660
  382SOL     OW 1333   2.367   4.695   3.903  0.0565 -0.6981 -0.2322
  382SOL    HW1 1334   2.341   4.658   3.818 -0.6229 -1.3498  0.2464
  382SOL    HW2 1335   2.332   4.784   3.902 -0.0490 -0.7431 -0.5907
  383SOL     OW 1336   2.007   2.685   1.906 -0.2938  0.3738  0.1836
  383SOL    HW1 1337   2.072   2.708   1.840  0.1602 -0.9957  0.1276
  383SOL    HW2 1338   2.025   2.745   1.979 -0.3547  1.4296 -0.6382
  384SOL     OW 1339   0.048   1.153   4.781  0.0666 -0.3926  0.4476
  384SOL    HW1 1340   0.093   1.219   4.833  1.1148 -0.6786 -0.0671
  384SOL    HW2 1341   0.077   1.168   4.691 -1.5665 -0.0287 -0.0487
  385SOL     OW 1342   0.541   1.598   4.703  0.6371  0.1927 -0.1485
  385SOL    HW1 1343   0.554   1.623   4.611  1.1669 -0.0558 -0.1409
  385SOL    HW2 1344   0.506   1.677   4.744  0.6226  0.3780 -0.5123
  386SOL     OW 1345   1.687   4.287   3.720 -0.1504  0.3492  0.7870
  386SOL    HW1 1346   1.640   4.341   3.656  0.2485  0.4806  0.6026
  386SOL    HW2 1347   1.750   4.237   3.668  0.6975  1.0099  1.1524
  387SOL     OW 1348   1.511   3.729   0.413 -0.2376 -0.3763 -0.1031
  387SOL    HW1 1349   1.594   3.697   0.448 -0.1182 -0.4492 -0.4503
  387SOL    HW2 1350   1.506   3.690   0.326 -0.9267 -0.8646  0.1502
  388SOL     OW 1351   2.972   4.058   4.213 -0.3178 -0.0241 -0.2144
  388SOL    HW1 1352   3.019   3.981   4.247  0.1555  0.4404  0.1967
  388SOL    HW2 1353   2.887   4.055   4.258  0.1700  0.3860  0.7755
  389SOL     OW 1354   1.750   3.116   1.102 -0.0402 -0.5376  0.0498
  389SOL    HW1 1355   1.708   3.122   1.016  0.5856  0.4178 -0.2095
  389SOL    HW2 1356   1.834   3.162   1.091 -0.9131  1.6347  1.7424
  390SOL     OW 1357   4.558   3.269   3.135 -0.1678  0.1001  0.3906
  390SOL    HW1 1358   4.561   3.184   3.092 -0.8945 -1.9360  3.9362
  390SOL    HW2 1359   4.465   3.288   3.143 -0.0092  1.2776 -0.3466
  391SOL     OW 1360   4.643   1.934   1.163  0.7381 -0.4960  0.1318
  391SOL    HW1 1361   4.664   2.009   1.107 -2.2969  0.9370  0.7300
  391SOL    HW2 1362   4.673   1.858   1.113  1.1263  0.9233 -1.9077
  392SOL     OW 1363   0.824   1.160   0.184 -0.2392  0.4385  0.1336
  392SOL    HW1 1364   0.878   1.134   0.109 -0.4044 -0.8741  0.4390
  392SOL    HW2 1365   0.866   1.239   0.218  1.1499 -0.1986 -0.0121
  393SOL     OW 1366   0.256   3.611   3.571 -0.0216  0.2346  0.5576
  393SOL    HW1 1367   0.217   3.612   3.658 -2.2713 -0.4996 -0.3699
  393SOL    HW2 1368   0.343   3.573   3.585  0.4591  1.9029  2.7112
  394SOL     OW 1369   0.768   4.096   4.527  0.4391 -0.2805  0.0752
  394SOL    HW1 1370   0.742   4.004   4.515  2.9081 -1.0452  0.0657
  394SOL    HW2 1371   0.752   4.114   4.619  0.2221 -0.8315  0.1478
  395SOL     OW 1372   3.264   3.326   2.887 -0.4237 -0.3683  0.1411
  395SOL    HW1 1373   3.212   3.356   2.812 -0.5882  0.1547  0.4594
  395SOL    HW2 1374   3.329   3.395   2.900  1.4213 -1.7349 -1.2461
  396SOL     OW 1375   1.538   4.890   4.658 -0.1264  0.0396 -0.2738
  396SOL    HW1 1376   1.561   4.802   4.688  0.2541  0.2515  0.0674
  396SOL    HW2 1377   1.622   4.931   4.636 -0.3111  0.2769 -0.5552
  397SOL     OW 1378   2.052   4.912   4.757  0.2974  0.3166 -0.2625
  397SOL    HW1 1379   2.122   4.908   4.692  0.0680  0.6532 -0.5385
  397SOL    HW2 1380   1.997   4.835   4.737 -0.0442  0.6909 -0.7909
  398SOL     OW 1381   2.715   2.825   2.058  0.2229  0.1210  0.7666
  398SOL    HW1 1382   2.672   2.905   2.029 -0.0317 -0.2697  0.0422
  398SOL    HW2 1383   2.730   2.775   1.977 -0.2168 -0.8555  1.2689
  399SOL     OW 1384   4.583   3.763   2.752 -0.3834 -0.1678 -0.0756
  399SOL    HW1 1385   4.634   3.694   2.796  0.1570  0.1910 -0.1306
  399SOL    HW2 1386   4.503   3.719   2.723 -0.3813 -0.5943  0.5571
  400SOL     OW 1387   0.738   1.735   4.502 -0.3145  0.0971  0.4159
  400SOL    HW1 1388   0.800   1.756   4.573 -0.4883 -1.1136  0.9519
  400SOL    HW2 1389   0.793   1.704   4.431 -0.1867  0.6608  0.2664
  401SOL     OW 1390   2.602   0.651   4.152  0.2541  0.2049  0.8714
  401SOL    HW1 1391   2.683   0.618   4.113 -1.3697 -0.2048 -2.4659
  401SOL    HW2 1392   2.617   0.745   4.162  1.0656  0.1772  0.0829
  402SOL     OW 1393   3.120   3.638   2.458 -0.5733  0.4477 -0.7700
  402SOL    HW1 1394   3.128   3.545   2.433  2.1105  1.0376 -2.6445
  402SOL    HW2 1395   3.094   3.682   2.377  0.3618  1.5451 -0.5069
  403SOL     OW 1396   2.566   2.774   0.570  0.1192  0.2132  0.4814
  403SOL    HW1 1397   2.483   2.730   0.590  0.5843 -0.7232  0.4194
  403SOL    HW2 1398   2.632   2.707   0.587  0.8787  1.0196  0.7292
  404SOL     OW 1399   4.909   0.962   3.311 -0.2882  0.8184 -0.0403
  404SOL    HW1 1400   4.975   1.028   3.291  0.2559  0.1065 -0.6752
  404SOL    HW2 1401   4.873   0.988   3.395  1.3429  0.8152  0.6973
  405SOL     OW 1402   3.549   1.520   0.303  0.3841 -0.7778  0.0502
  405SOL    HW1 1403   3.633   1.545   0.265 -0.0707 -1.9315 -1.8899
  405SOL    HW2 1404   3.544   1.425   0.288 -0.5478 -1.0067  1.6486
  406SOL     OW 1405   0.026   2.528   2.802  0.1508  0.1883 -0.2414
  406SOL    HW1 1406   0.034   2.512   2.896  0.2183 -2.2105 -0.5898
  406SOL    HW2 1407  -0.039   2.598   2.795  0.8743  1.1336  1.5933
  407SOL     OW 1408   2.080   4.853   0.081 -0.7375  0.5483  0.3125
  407SOL    HW1 1409   2.071   4.885  -0.009  2.1276  0.5307 -0.0706
  407SOL    HW2 1410   2.136   4.775   0.073 -1.5699 -0.2771  1.9940
  408SOL     OW 1411   4.001   0.726   1.422  0.0908  0.1559 -1.0426
  408SOL    HW1 1412   3.968   0.714   1.511 -0.3429 -1.0808 -1.3539
  408SOL    HW2 1413   4.050   0.809   1.426  1.0512 -0.4327  0.6270
  409SOL     OW 1414   1.242   2.423   2.898 -0.3418 -0.4708 -0.2173
  409SOL    HW1 1415   1.268   2.366   2.825 -0.2572  0.1407 -0.6722
  409SOL    HW2 1416   1.202   2.363   2.961  0.0009 -1.0766 -0.5602
  410SOL     OW 1417   1.926   1.178   3.652  0.2998  0.3781 -0.7124
  410SOL    HW1 1418   1.887   1.265   3.665 -0.3858 -0.0205 -0.0780
  410SOL    HW2 1419   1.962   1.155   3.738  0.0394 -0.1888 -0.7556
  411SOL     OW 1420   4.094   3.811   4.806  0.5513 -0.1564 -0.3659
  411SOL    HW1 1421   4.105   3.885   4.866  0.4717 -1.1753  0.9364
  411SOL    HW2 1422   4.012   3.829   4.760  0.1757  0.2247  0.4405
  412SOL     OW 1423   1.751   2.748   4.454 -0.1739  0.1952  0.0665
  412SOL    HW1 1424   1.769   2.719   4.543  0.5274 -2.5903 -0.9004
  412SOL    HW2 1425   1.829   2.724   4.404 -1.0055  0.6563 -1.5322
  413SOL     OW 1426   4.308   2.063   0.143  0.3215 -0.5096  0.1565
  413SOL    HW1 1427   4.216   2.078   0.121 -0.0097  1.0667  2.2632
  413SOL    HW2 1428   4.356   2.096   0.067 -0.8134  1.6658  0.2984
  414SOL     OW 1429   0.284   0.415   0.937  0.4681 -0.1729  0.2834
  414SOL    HW1 1430   0.288   0.352   1.009 -0.2171 -1.9912 -1.1725
  414SOL    HW2 1431   0.202   0.395   0.892  0.2900  1.7204 -0.3136
  415SOL     OW 1432   3.994   3.547   2.746 -0.0550  0.4535  0.3217
  415SOL    HW1 1433   4.036   3.461   2.753 -0.8540  0.0361  0.1090
  415SOL    HW2 1434   3.952   3.560   2.831 -1.7187 -0.3429 -0.3172
  416SOL     OW 1435   4.568   0.125   3.238  0.0009 -0.0950  0.1581
  416SOL    HW1 1436   4.508   0.073   3.184 -1.4953  0.7121  0.9710
  416SOL    HW2 1437   4.655   0.109   3.200 -0.7415 -1.1524 -1.1829
  417SOL     OW 1438   0.136   0.224   3.244 -0.1989 -1.2779  0.4560
  417SOL    HW1 1439   0.182   0.218   3.327 -0.7399 -2.1883  0.7126
  417SOL    HW2 1440   0.204   0.243   3.179  0.2904 -1.0158  1.0383
  418SOL     OW 1441   4.599   0.040   0.568 -0.5368 -0.0478  0.4455
  418SOL    HW1 1442   4.568  -0.049   0.581 -0.9399 -0.0466 -0.4598
  418SOL    HW2 1443   4.664   0.033   0.499  1.5899 -0.0585  2.3378
  419SOL     OW 1444   1.581   4.933   1.695  0.4281 -0.1719  0.1513
  419SOL    HW1 1445   1.507   4.926   1.635 -0.5358  0.7203  1.1947
  419SOL    HW2 1446   1.566   5.015   1.742  0.0235 -1.7973  3.0697
  420SOL     OW 1447   4.169   2.719   2.883 -0.6487 -0.0421  0.0929
  420SOL    HW1 1448   4.215   2.740   2.964 -1.8435  2.3628  0.2364
  420SOL    HW2 1449   4.156   2.624   2.886  0.4277 -0.1742  2.0976
  421SOL     OW 1450   3.767   4.065   3.447  0.5508 -0.3958  1.2658
  421SOL    HW1 1451   3.684   4.023   3.427  0.9834 -1.2294  1.1559
  421SOL    HW2 1452   3.833   4.006   3.410  1.1741  0.4473  1.0018
  422SOL     OW 1453   3.038   2.961   0.470  0.7108  0.4463 -0.7165
  422SOL    HW1 1454   2.958   3.008   0.447  0.9578  0.2674 -2.0608
  422SOL    HW2 1455   3.052   2.900   0.397  1.4570 -0.3261  0.0430
  423SOL     OW 1456   3.118   4.279   4.660  0.5701  0.0291 -0.4355
  423SOL    HW1 1457   3.153   4.260   4.573  2.5167  1.4447 -0.0384
  423SOL    HW2 1458   3.192   4.267   4.719 -0.5216 -0.1767  0.9578
  424SOL     OW 1459   3.711   2.388   0.999 -0.4346 -0.3683  0.5835
  424SOL    HW1 1460   3.687   2.316   0.940 -0.0717  1.3808 -1.8553
  424SOL    HW2 1461   3.769   2.347   1.063 -2.4979 -2.7978  1.0875
  425SOL     OW 1462   4.351   0.283   1.782  0.2593 -0.1974 -0.0752
  425SOL    HW1 1463   4.295   0.206   1.776  0.0153  0.0116 -0.5969
  425SOL    HW2 1464   4.437   0.248   1.805 -0.3992 -0.3817  2.3689
  426SOL     OW 1465   3.482   2.682   1.560  0.2188  0.5462  0.0975
  426SOL    HW1 1466   3.454   2.632   1.484 -0.7990 -0.9704  1.4034
  426SOL    HW2 1467   3.400   2.711   1.601  0.6703 -0.1342  1.5294
  427SOL     OW 1468   4.835   2.661   2.121 -0.0411  0.2440 -0.4578
  427SOL    HW1 1469   4.862   2.634   2.033 -0.7588 -0.6389 -0.4242
  427SOL    HW2 1470   4.760   2.719   2.107 -1.1351 -1.1110 -0.3992
  428SOL     OW 1471   4.458   1.858   1.437  0.7139  0.4520 -0.6525
  428SOL    HW1 1472   4.542   1.903   1.434  0.6066  0.6036 -1.5896
  428SOL    HW2 1473   4.468   1.793   1.507  1.2187  1.2149  0.0043
  429SOL     OW 1474   3.360   0.365   1.675 -0.1481  0.5501  0.0249
  429SOL    HW1 1475   3.343   0.368   1.770 -1.8270 -1.0346 -0.1712
  429SOL    HW2 1476   3.334   0.451   1.643  1.5445  1.5227  1.1318
  430SOL     OW 1477   1.342   0.662   0.277 -0.5652  0.0629  0.6175
  430SOL    HW1 1478   1.382   0.644   0.362 -0.8829  2.4014  1.3398
  430SOL    HW2 1479   1.414   0.694   0.222 -0.5496 -0.4701  0.3213
  431SOL     OW 1480   1.607   3.934   1.256  0.4209  0.3533 -0.0553
  431SOL    HW1 1481   1.594   3.941   1.161  0.5771  1.0049 -0.0372
  431SOL    HW2 1482   1.558   4.008   1.292  0.0515 -0.1110  0.4057
  432SOL     OW 1483   1.250   0.980   2.573  0.2564  0.8659 -0.4315
  432SOL    HW1 1484   1.284   1.063   2.605  0.3206  0.8229 -0.3880
  432SOL    HW2 1485   1.247   0.923   2.651  1.3001  0.4655 -0.6743
  433SOL     OW 1486   1.724   4.270   3.447 -0.4072  0.4053  0.0514
  433SOL    HW1 1487   1.642   4.230   3.417 -0.3469  0.2332  0.1145
  433SOL    HW2 1488   1.715   4.363   3.424 -0.9143  0.5233  0.6910
  434SOL     OW 1489   4.671   0.189   0.784  0.5727  0.5060 -0.2273
  434SOL    HW1 1490   4.707   0.237   0.710 -0.6613  0.7481 -0.6920
  434SOL    HW2 1491   4.623   0.116   0.745 -0.9873  1.2368  0.2473
  435SOL     OW 1492   1.548   0.745   3.297 -0.8396  0.4521  0.3536
  435SOL    HW1 1493   1.607   0.819   3.314 -0.6086  0.9225 -2.1182
  435SOL    HW2 1494   1.589   0.671   3.342  1.0715  1.0090 -0.3681
  436SOL     OW 1495   4.939   4.357   0.230  0.1090  0.1862 -0.7661
  436SOL    HW1 1496   5.018   4.339   0.281 -0.0106  0.1964 -0.5760
  436SOL    HW2 1497   4.882   4.405   0.290 -0.8354 -1.4812 -0.2416
  437SOL     OW 1498   1.246   2.151   4.248 -0.2559  0.0591 -0.0644
  437SOL    HW1 1499   1.162   2.140   4.293 -0.5571  1.6480 -0.1777
  437SOL    HW2 1500   1.223   2.160   4.156  0.1120 -0.2072 -0.1848
  438SOL     OW 1501   2.506   0.899   2.797 -0.3780 -0.4883  0.7421
  438SOL    HW1 1502   2.414   0.878   2.805 -0.8482  0.6609 -1.1130
  438SOL    HW2 1503   2.545   0.827   2.748 -0.7310 -0.0188 -0.2518
  439SOL     OW 1504   4.150   0.651   1.110 -0.3422 -0.8112  0.0223
  439SOL    HW1 1505   4.210   0.639   1.183  1.3434 -0.4748 -1.2412
  439SOL    HW2 1506   4.148   0.746   1.097 -0.8612 -0.8491 -0.2111
  440SOL     OW 1507   3.652   1.065   3.758 -0.2728 -0.1755 -0.5637
  440SOL    HW1 1508   3.694   1.112   3.830  0.9096  0.7168 -1.7842
  440SOL    HW2 1509   3.711   0.992   3.740  0.1091  0.3294 -1.4267
  441SOL     OW 1510   2.175   3.662   3.069 -0.5078  0.4246  0.1202
  441SOL    HW1 1511   2.205   3.739   3.117  2.1711  0.0844 -0.7868
  441SOL    HW2 1512   2.165   3.594   3.136 -0.1664  0.8451  0.6065
  442SOL     OW 1513   1.563   4.888   3.659 -0.3528 -0.3708  0.4407
  442SOL    HW1 1514   1.542   4.953   3.725 -3.5621 -1.4154  0.6164
  442SOL    HW2 1515   1.618   4.824   3.704 -0.1472  0.3580  1.2527
  443SOL     OW 1516   3.763   2.694   0.483 -0.5928 -0.0840  0.1670
  443SOL    HW1 1517   3.803   2.630   0.541  0.8327  0.1982 -0.4574
  443SOL    HW2 1518   3.811   2.775   0.501  1.2825 -0.4224 -2.7347
  444SOL     OW 1519   3.571   3.621   4.451 -0.0803 -0.0324  0.1620
  444SOL    HW1 1520   3.511   3.680   4.496  0.5303 -0.0073  0.9616
  444SOL    HW2 1521   3.652   3.671   4.444  0.2743 -0.5796  0.3491
  445SOL     OW 1522   3.013   1.456   4.340  0.3883  0.3339 -0.2923
  445SOL    HW1 1523   3.056   1.425   4.260  1.3251 -0.5045  0.5283
  445SOL    HW2 1524   3.070   1.526   4.372  0.6334 -0.1323  0.2847
  446SOL     OW 1525   0.074   3.369   3.044  0.0028  0.2256 -0.4287
  446SOL    HW1 1526   0.057   3.462   3.056  1.9919  0.7036 -0.9599
  446SOL    HW2 1527   0.085   3.358   2.950  0.5978 -0.3688 -0.3001
  447SOL     OW 1528   1.621   2.522   0.458 -0.0735 -0.0952  0.3259
  447SOL    HW1 1529   1.527   2.529   0.440 -0.0229 -0.7416 -0.2392
  447SOL    HW2 1530   1.656   2.608   0.437 -0.4084 -0.1103 -0.3218
  448SOL     OW 1531   1.788   0.232   2.222 -0.1117 -0.5158  0.0586
  448SOL    HW1 1532   1.773   0.323   2.195  1.5015  0.4826  2.2051
  448SOL    HW2 1533   1.803   0.185   2.141 -2.1090  0.8617 -1.2107
  449SOL     OW 1534   2.724   3.453   4.643 -0.0527 -0.4503  0.2872
  449SOL    HW1 1535   2.763   3.537   4.618 -0.6414  0.4426  2.1267
  449SOL    HW2 1536   2.665   3.432   4.571 -0.9301  1.4494  0.3801
  450SOL     OW 1537   0.406   2.562   1.717  0.2806 -0.0284 -0.6219
  450SOL    HW1 1538   0.318   2.538   1.688 -0.5100  0.7864  0.9435
  450SOL    HW2 1539   0.403   2.657   1.728  0.7485 -0.1720  1.1777
  451SOL     OW 1540   1.313   3.946   3.352  0.2577 -0.4264 -0.6519
  451SOL    HW1 1541   1.335   3.888   3.426  0.4560  1.8622  1.1927
  451SOL    HW2 1542   1.232   3.989   3.379  0.4793  0.6386 -1.6571
  452SOL     OW 1543   0.379   3.170   1.942  0.4180 -0.0887  0.3833
  452SOL    HW1 1544   0.388   3.143   1.851  0.6747 -1.3158  0.7434
  452SOL    HW2 1545   0.286   3.194   1.951 -0.2507 -2.4459  0.3987
  453SOL     OW 1546   1.545   3.012   3.459  0.4154 -0.1043 -0.5649
  453SOL    HW1 1547   1.567   3.074   3.390  0.7243  1.2719  0.7291
  453SOL    HW2 1548   1.629   2.975   3.486  0.4552  0.4391  0.0605
  454SOL     OW 1549   2.894   1.038   1.935 -0.6970 -0.0280  0.5313
  454SOL    HW1 1550   2.822   0.982   1.904 -1.8817  1.5674  0.2935
  454SOL    HW2 1551   2.857   1.087   2.008  0.5545 -0.0835  1.2263
  455SOL     OW 1552   4.101   4.848   2.491  0.2038 -0.2837 -0.2099
  455SOL    HW1 1553   4.128   4.873   2.579  0.7907 -0.4296 -0.3408
  455SOL    HW2 1554   4.018   4.893   2.477  0.5911  0.5346  0.0464
  456SOL     OW 1555   1.253   2.883   2.221 -0.7845  0.5082 -0.3232
  456SOL    HW1 1556   1.260   2.845   2.133 -0.1151 -0.6786  0.2256
  456SOL    HW2 1557   1.272   2.810   2.280 -0.1241  1.5601  0.7820
  457SOL     OW 1558   0.197   4.932   2.949 -0.9535  0.0788  0.2874
  457SOL    HW1 1559   0.164   5.021   2.936 -1.8802 -0.0081  1.7053
  457SOL    HW2 1560   0.129   4.875   2.912  0.1109 -0.0528 -1.5415
  458SOL     OW 1561   1.496   2.992   4.923 -0.5029 -0.2159  0.0156
  458SOL    HW1 1562   1.431   2.968   4.989  0.1199  2.6117  1.8462
  458SOL    HW2 1563   1.546   3.063   4.964  2.3137 -0.7909 -2.1559
  459SOL     OW 1564   3.421   0.045   4.256 -0.6364  0.6989 -0.2798
  459SOL    HW1 1565   3.348   0.028   4.196 -1.5132  1.6976  0.4637
  459SOL    HW2 1566   3.394   0.003   4.338 -0.1896  0.7336 -0.1164
  460SOL     OW 1567   3.002   2.048   3.805 -0.1023  0.1638  0.1475
  460SOL    HW1 1568   3.072   2.113   3.810  0.9771 -0.9941  0.6699
  460SOL    HW2 1569   2.928   2.096   3.769  0.4406  1.8573  1.1558
  461SOL     OW 1570   3.833   4.559   2.299  0.2349 -0.0239  0.2502
  461SOL    HW1 1571   3.779   4.637   2.308  0.8210  0.6115 -1.2908
  461SOL    HW2 1572   3.869   4.544   2.386  2.5201  3.2663  0.0650
  462SOL     OW 1573   3.326   0.325   1.969 -0.2466 -0.1190 -0.3587
  462SOL    HW1 1574   3.236   0.329   1.938  0.0019 -2.8409 -1.7551
  462SOL    HW2 1575   3.318   0.328   2.065 -1.3117  4.5498 -0.3716
  463SOL     OW 1576   4.142   0.776   2.814 -0.0785 -0.2807  0.0286
  463SOL    HW1 1577   4.231   0.788   2.782 -0.5892 -1.5151 -2.0344
  463SOL    HW2 1578   4.122   0.858   2.860  2.0709  0.0319  0.5139
  464SOL     OW 1579   0.823   2.139   1.271 -0.0451 -0.2859 -0.1921
  464SOL    HW1 1580   0.908   2.098   1.290 -0.8590 -1.5204  0.9907
  464SOL    HW2 1581   0.794   2.098   1.190  1.1103  1.1977 -1.3986
  465SOL     OW 1582   0.660   0.852   0.634 -0.6529  0.3083  0.2350
  465SOL    HW1 1583   0.624   0.839   0.547 -0.9841 -0.9485  0.5409
  465SOL    HW2 1584   0.651   0.767   0.677 -1.1687  1.0777  1.7385
  466SOL     OW 1585   3.888   2.294   4.184  0.1525 -0.0895  0.4860
  466SOL    HW1 1586   3.931   2.253   4.110  1.0745  0.2977  0.8002
  466SOL    HW2 1587   3.872   2.222   4.246  0.1199 -0.2722  0.2633
  467SOL     OW 1588   3.776   4.449   4.103 -0.1256 -0.6848 -0.6029
  467SOL    HW1 1589   3.692   4.495   4.099 -0.0666 -0.4759  0.3937
  467SOL    HW2 1590   3.782   4.418   4.193 -0.3242 -2.9526 -1.3084
  468SOL     OW 1591   3.632   3.419   1.638 -0.3437 -0.0930 -0.9190
  468SOL    HW1 1592   3.671   3.453   1.557  2.3070  0.9531  0.6706
  468SOL    HW2 1593   3.565   3.484   1.661  1.1806  1.4461 -0.5956
  469SOL     OW 1594   4.686   2.922   2.350 -0.0875 -0.7799 -0.3758
  469SOL    HW1 1595   4.598   2.958   2.340  0.2907 -0.0477 -1.1309
  469SOL    HW2 1596   4.705   2.881   2.266  0.8843  0.4213 -0.7736
  470SOL     OW 1597   4.567   1.028   3.354  0.7984  0.3644  0.3491
  470SOL    HW1 1598   4.510   0.972   3.407 -0.6681  1.3103 -0.1634
  470SOL    HW2 1599   4.588   0.975   3.277 -0.5728  0.4685 -0.1307
  471SOL     OW 1600   2.121   3.235   0.181  0.5152 -0.0741  0.7509
  471SOL    HW1 1601   2.174   3.310   0.156  0.1966 -0.4718 -1.2616
  471SOL    HW2 1602   2.030   3.265   0.173  0.2170 -1.3964 -3.1891
  472SOL     OW 1603   2.226   0.805   2.840 -0.4639 -0.2644 -0.1975
  472SOL    HW1 1604   2.196   0.820   2.930  0.3788 -0.3803  0.1106
  472SOL    HW2 1605   2.209   0.713   2.823  0.2051 -0.4582  0.1669
  473SOL     OW 1606   4.476   3.786   2.252 -0.0853 -0.1947 -0.7954
  473SOL    HW1 1607   4.487   3.713   2.313  2.6483 -2.5409 -3.6679
  473SOL    HW2 1608   4.556   3.838   2.261 -0.1423  0.0486 -1.5578
  474SOL     OW 1609   1.735   2.929   1.475 -0.3818  0.1689  0.2033
  474SOL    HW1 1610   1.715   2.881   1.395  0.1106 -0.1678  0.2740
  474SOL    HW2 1611   1.723   3.021   1.452  0.2954  0.1069 -0.4205
  475SOL     OW 1612   1.256   4.857   4.821 -0.3293 -0.3256 -0.1350
  475SOL    HW1 1613   1.326   4.828   4.762  1.0438  0.0529  1.2252
  475SOL    HW2 1614   1.202   4.914   4.767 -0.7298 -2.1320 -1.7406
  476SOL     OW 1615   3.058   4.554   1.657  0.2503  0.1948  0.5082
  476SOL    HW1 1616   3.043   4.634   1.606 -1.1229 -1.5639 -2.0805
  476SOL    HW2 1617   3.153   4.540   1.652  0.2499  0.5339 -0.8856
  477SOL     OW 1618   4.878   2.638   3.897 -0.7961  0.1321 -0.0378
  477SOL    HW1 1619   4.817   2.697   3.852 -1.2091  0.0143  0.3586
  477SOL    HW2 1620   4.828   2.606   3.972 -0.6402 -0.8725 -0.3482
  478SOL     OW 1621   4.113   0.625   4.894 -0.1342 -0.1843  0.0426
  478SOL    HW1 1622   4.040   0.680   4.923  0.6192  1.1667 -0.5421
  478SOL    HW2 1623   4.190   0.681   4.900  0.8480 -1.5173  0.4311
  479SOL     OW 1624   2.881   4.531   3.446  0.2042  0.0518  0.3418
  479SOL    HW1 1625   2.797   4.571   3.427  0.6660  0.3701 -1.1160
  479SOL    HW2 1626   2.878   4.446   3.401 -0.0034 -0.7278  1.7656
  480SOL     OW 1627   2.323   0.802   4.212 -0.1186 -1.0236  0.2357
  480SOL    HW1 1628   2.316   0.715   4.172 -1.0143 -1.7421  1.8697
  480SOL    HW2 1629   2.267   0.798   4.289 -0.7911  1.2645 -0.0521
  481SOL     OW 1630   3.552   3.193   3.126  0.2867  0.5751 -0.4710
  481SOL    HW1 1631   3.480   3.242   3.166 -1.4177 -0.4536 -2.0825
  481SOL    HW2 1632   3.606   3.260   3.084  0.1177  1.3529  0.5230
  482SOL     OW 1633   2.414   1.748   0.841 -0.1384 -0.0256 -0.4091
  482SOL    HW1 1634   2.470   1.774   0.914  1.6744 -1.8879 -1.0467
  482SOL    HW2 1635   2.431   1.812   0.773  1.6160 -0.7983 -0.7460
  483SOL     OW 1636   2.642   2.987   1.256  0.2490  0.1445 -0.2332
  483SOL    HW1 1637   2.692   3.064   1.228 -0.2238  0.2939 -0.6979
  483SOL    HW2 1638   2.706   2.917   1.261  0.6935  0.5847  0.2432
  484SOL     OW 1639   0.227   1.580   1.203  0.4960  0.0143  0.1238
  484SOL    HW1 1640   0.287   1.534   1.262  1.6611  1.2208 -0.0645
  484SOL    HW2 1641   0.143   1.537   1.215  0.8204 -0.0984  2.2809
  485SOL     OW 1642   3.896   4.738   1.685 -0.3688 -0.4343 -0.1178
  485SOL    HW1 1643   3.825   4.800   1.675  0.4013  0.5606  0.4276
  485SOL    HW2 1644   3.918   4.740   1.779 -1.3228 -2.6681  0.2236
  486SOL     OW 1645   2.581   4.245   0.761  0.0896 -0.3969 -0.0621
  486SOL    HW1 1646   2.670   4.231   0.728 -0.4019 -1.6982 -0.9082
  486SOL    HW2 1647   2.592   4.308   0.832  1.8640 -1.5447  0.7509
  487SOL     OW 1648   2.495   2.698   1.268  0.4832  0.3534  0.2107
  487SOL    HW1 1649   2.549   2.775   1.285  1.2805 -0.0228 -0.5729
  487SOL    HW2 1650   2.541   2.626   1.312  0.7469 -0.0129 -0.6625
  488SOL     OW 1651   0.657   0.252   3.691  0.0419 -0.1396 -0.6705
  488SOL    HW1 1652   0.630   0.171   3.649 -2.1974  0.9757 -1.5769
  488SOL    HW2 1653   0.744   0.270   3.656  0.5398 -2.0731 -0.5058
  489SOL     OW 1654   1.925   4.935   1.425  0.0258 -0.5746 -0.2114
  489SOL    HW1 1655   1.866   4.861   1.409 -0.2302 -0.2459 -0.8098
  489SOL    HW2 1656   1.867   5.006   1.450  0.2416 -0.4658 -0.0207
  490SOL     OW 1657   2.948   0.433   0.963  0.2279  0.4225  0.3067
  490SOL    HW1 1658   2.902   0.458   0.883  1.7303  1.7993 -0.1801
  490SOL    HW2 1659   3.040   0.434   0.938  0.7239  0.8882  2.0469
  491SOL     OW 1660   4.445   0.154   1.373  0.3552  0.3114 -0.2588
  491SOL    HW1 1661   4.462   0.097   1.448  1.4473 -0.0398 -0.7444
  491SOL    HW2 1662   4.492   0.235   1.392 -0.0825  0.5497 -0.1787
  492SOL     OW 1663   1.427   0.992   0.802  0.0468  0.2887  0.3551
  492SOL    HW1 1664   1.358   0.962   0.862 -0.8231 -0.0437 -0.7780
  492SOL    HW2 1665   1.394   1.076   0.769 -0.0155 -0.0573 -0.4890
  493SOL     OW 1666   1.150   3.082   1.922  0.1301  0.1486  0.2216
  493SOL    HW1 1667   1.073   3.091   1.865 -0.0558  0.4520  0.5166
  493SOL    HW2 1668   1.219   3.130   1.876  0.2306 -0.3802 -0.1924
  494SOL     OW 1669   0.874   3.191   3.935  0.1372 -0.4666  0.2642
  494SOL    HW1 1670   0.809   3.127   3.906 -0.1954 -1.2834  2.5720
  494SOL    HW2 1671   0.822   3.258   3.981  0.7182  0.1596  0.0282
  495SOL     OW 1672   2.724   3.833   1.249  0.3005  0.3519  0.2226
  495SOL    HW1 1673   2.730   3.738   1.241  0.5505  0.3101  0.8308
  495SOL    HW2 1674   2.814   3.861   1.267  0.4833  0.8554 -1.3799
  496SOL     OW 1675   3.412   2.318   3.142 -0.7230  0.2965  0.3720
  496SOL    HW1 1676   3.434   2.355   3.227  0.4799  1.7809 -0.5332
  496SOL    HW2 1677   3.345   2.377   3.106  1.6262  2.1057 -1.3298
  497SOL     OW 1678   3.495   2.352   4.636 -0.3416  0.1784  0.1734
  497SOL    HW1 1679   3.490   2.394   4.550  1.3839 -1.1560 -0.6334
  497SOL    HW2 1680   3.491   2.424   4.699  1.0172  1.4432 -1.1189
  498SOL     OW 1681   0.190   3.892   1.348  0.7666  0.2146  0.0642
  498SOL    HW1 1682   0.158   3.838   1.276 -0.6110  0.6049  0.3576
  498SOL    HW2 1683   0.204   3.978   1.309  1.5818  0.0196 -0.0858
  499SOL     OW 1684   0.653   4.781   0.541 -0.3322 -0.1375  0.6068
  499SOL    HW1 1685   0.691   4.703   0.500 -0.2220 -0.2396  0.8999
  499SOL    HW2 1686   0.644   4.844   0.470  0.4142 -0.0984  0.5392
  500SOL     OW 1687   2.051   3.743   4.899  0.4808  0.1563  0.2271
  500SOL    HW1 1688   2.017   3.820   4.853 -2.7175 -0.7926  0.7594
  500SOL    HW2 1689   1.981   3.718   4.959  2.3485 -1.8480  1.7378
  501SOL     OW 1690   0.200   3.941   4.222  0.3113  0.3692  0.5237
  501SOL    HW1 1691   0.117   3.921   4.264  1.2898 -0.7639  2.0337
  501SOL    HW2 1692   0.237   4.012   4.274  1.0096 -0.2459  0.8869
  502SOL     OW 1693   1.039   1.499   1.140 -0.2359  0.5983  0.3457
  502SOL    HW1 1694   0.988   1.436   1.190 -0.4780  0.4270 -0.1065
  502SOL    HW2 1695   1.130   1.474   1.156 -0.3437 -0.9968 -1.1984
  503SOL     OW 1696   4.905   2.664   1.855  0.1653 -0.2156 -0.1705
  503SOL    HW1 1697   4.968   2.705   1.914  0.3563  0.1529 -0.6262
  503SOL    HW2 1698   4.852   2.736   1.822 -0.8558 -0.5785  0.6173
  504SOL     OW 1699   0.144   3.646   4.118 -0.4486  0.7299 -0.2704
  504SOL    HW1 1700   0.059   3.685   4.136 -1.0493 -0.1534 -1.1073
  504SOL    HW2 1701   0.187   3.707   4.058 -0.8248  0.7643 -0.5037
  505SOL     OW 1702   2.674   3.814   4.036  0.8054 -0.4075  0.5785
  505SOL    HW1 1703   2.661   3.895   4.085  0.1350 -0.0885 -0.1028
  505SOL    HW2 1704   2.593   3.804   3.986  1.3348 -0.9166 -0.1821
  506SOL     OW 1705   3.512   3.899   0.283 -0.2538 -0.3015  0.1322
  506SOL    HW1 1706   3.431   3.850   0.294  0.4799 -1.9114 -1.1271
  506SOL    HW2 1707   3.580   3.832   0.282  0.7983  0.7073 -1.7898
  507SOL     OW 1708   0.520   0.045   3.571  0.1782  0.4801  1.0114
  507SOL    HW1 1709   0.562   0.008   3.493  0.1494 -1.5057  1.8853
  507SOL    HW2 1710   0.426   0.032   3.556  0.1731  0.0986  1.3552
  508SOL     OW 1711   0.582   0.345   3.455  0.2921  0.2524  0.3364
  508SOL    HW1 1712   0.577   0.345   3.551  0.3620  0.6878  0.3405
  508SOL    HW2 1713   0.523   0.275   3.428  0.7842 -0.3262  0.7258
  509SOL     OW 1714   0.515   2.395   3.936 -0.0912  0.1811 -0.4982
  509SOL    HW1 1715   0.601   2.416   3.900  0.0399 -0.0678 -0.3311
  509SOL    HW2 1716   0.468   2.479   3.937  0.9672  0.8275  1.6596
  510SOL     OW 1717   4.632   0.804   1.627  0.3990  0.4576  0.2896
  510SOL    HW1 1718   4.649   0.762   1.712  0.7808 -2.0488 -0.9332
  510SOL    HW2 1719   4.719   0.817   1.590  0.1808 -0.3913 -0.5564
  511SOL     OW 1720   2.074   0.854   3.979  0.3934 -0.5400 -0.3974
  511SOL    HW1 1721   2.038   0.921   4.037  1.3631 -0.3487  0.0027
  511SOL    HW2 1722   2.056   0.771   4.024 -1.2179 -0.6117 -1.1130
  512SOL     OW 1723   2.674   2.727   4.616 -0.3478  0.3807 -0.2862
  512SOL    HW1 1724   2.655   2.634   4.630  2.9289 -0.1189  2.1066
  512SOL    HW2 1725   2.691   2.761   4.703  1.2747  2.5413 -1.3642
  513SOL     OW 1726   4.132   2.404   3.693  0.2620 -0.5258 -0.3669
  513SOL    HW1 1727   4.156   2.321   3.734 -1.0889 -0.8246 -0.1247
  513SOL    HW2 1728   4.139   2.388   3.599 -1.4213 -1.3984 -0.3709
  514SOL     OW 1729   3.058   3.753   1.162 -0.2340  0.1529 -0.3998
  514SOL    HW1 1730   3.076   3.824   1.099 -1.0374 -0.0576 -0.8746
  514SOL    HW2 1731   3.010   3.796   1.233 -4.3175 -0.4915 -2.4702
  515SOL     OW 1732   1.292   3.066   2.461 -0.1734 -0.6901 -0.6128
  515SOL    HW1 1733   1.261   3.032   2.378 -1.6967 -1.7367  0.3399
  515SOL    HW2 1734   1.382   3.095   2.443  0.2531 -2.7219 -2.1473
  516SOL     OW 1735   0.061   2.521   0.054  0.1429  0.2718 -0.4441
  516SOL    HW1 1736   0.154   2.501   0.053  0.3397  1.1528 -0.3782
  516SOL    HW2 1737   0.025   2.466   0.124  1.0360  1.6691  1.1992
  517SOL     OW 1738   0.588   0.471   1.371  0.5768 -0.3213 -0.4813
  517SOL    HW1 1739   0.565   0.462   1.464 -0.5327 -1.8891 -0.8550
  517SOL    HW2 1740   0.621   0.385   1.346 -1.7674 -0.8340 -2.1683
  518SOL     OW 1741   1.625   4.370   0.396 -0.2329 -0.5430 -0.0185
  518SOL    HW1 1742   1.629   4.284   0.354 -0.9383 -0.8879  0.6038
  518SOL    HW2 1743   1.540   4.406   0.370 -0.9787 -1.0415  1.6182
  519SOL     OW 1744   4.023   0.527   3.553  0.1883 -0.0664 -0.4726
  519SOL    HW1 1745   4.085   0.523   3.479  0.2954  0.8518 -0.4389
  519SOL    HW2 1746   3.951   0.470   3.526 -0.0508  0.7041 -1.5589
  520SOL     OW 1747   2.763   1.435   2.923 -0.0054  0.2867 -0.2183
  520SOL    HW1 1748   2.780   1.345   2.949  0.9361  0.1179 -1.3501
  520SOL    HW2 1749   2.758   1.432   2.828  0.7869  1.5397 -0.3248
  521SOL     OW 1750   0.310   2.227   3.734  0.0196 -0.1153 -0.2381
  521SOL    HW1 1751   0.301   2.322   3.735  0.0527 -0.0535 -1.9934
  521SOL    HW2 1752   0.402   2.210   3.755 -0.1701  0.1827  0.8638
  522SOL     OW 1753   0.477   2.859   3.074  0.3032  0.7143 -0.4332
  522SOL    HW1 1754   0.508   2.888   3.159  3.4521 -1.5094 -0.6686
  522SOL    HW2 1755   0.473   2.764   3.081  2.3978  0.2993 -3.1901
  523SOL     OW 1756   3.662   3.069   0.334 -0.6337 -0.1770 -0.1237
  523SOL    HW1 1757   3.669   3.128   0.409  0.1586  0.2224 -0.5042
  523SOL    HW2 1758   3.709   2.990   0.362  1.4420  0.7080 -0.8965
  524SOL     OW 1759   1.320   0.351   0.153 -0.0921  0.3698  0.2139
  524SOL    HW1 1760   1.375   0.277   0.128  1.1911  2.0423 -2.3044
  524SOL    HW2 1761   1.261   0.315   0.220  2.6005 -2.0595  1.5174
  525SOL     OW 1762   3.701   1.375   0.710  0.6838  0.0067  0.3467
  525SOL    HW1 1763   3.711   1.399   0.802  2.5441 -1.2886  0.5435
  525SOL    HW2 1764   3.744   1.446   0.662 -1.5188  1.4069  0.3310
  526SOL     OW 1765   1.979   0.633   3.666 -0.2429 -0.5798  0.3598
  526SOL    HW1 1766   2.019   0.580   3.735  1.6736  0.6356  0.2440
  526SOL    HW2 1767   2.040   0.705   3.651 -2.7862  1.8160  0.6225
  527SOL     OW 1768   3.151   2.623   4.681  0.1662  0.4074  0.2068
  527SOL    HW1 1769   3.065   2.628   4.641 -0.2262  2.1689  1.1519
  527SOL    HW2 1770   3.146   2.548   4.741  0.3626 -1.4586 -1.9950
  528SOL     OW 1771   1.575   3.617   3.338  0.6212  0.2468 -0.0879
  528SOL    HW1 1772   1.646   3.561   3.305  0.5078  0.9350 -1.5820
  528SOL    HW2 1773   1.620   3.697   3.367  0.4142  1.0012 -1.7675
  529SOL     OW 1774   1.856   1.791   0.431 -0.3502  0.5031 -0.1694
  529SOL    HW1 1775   1.855   1.887   0.421 -4.2680  0.7155  0.5981
  529SOL    HW2 1776   1.888   1.777   0.520 -2.8733  1.4301  0.9649
  530SOL     OW 1777   2.573   0.423   4.801  0.6828  0.0111  0.2525
  530SOL    HW1 1778   2.590   0.332   4.826  1.6646  0.7052  2.2633
  530SOL    HW2 1779   2.491   0.445   4.845  1.2772  0.5650  1.1140
  531SOL     OW 1780   1.847   3.008   2.472 -0.3254 -0.1341  0.3566
  531SOL    HW1 1781   1.819   3.023   2.382 -0.0435 -0.7520  0.1556
  531SOL    HW2 1782   1.933   3.050   2.478 -0.9390  1.1037  0.7510
  532SOL     OW 1783   3.511   0.303   4.757 -0.2972  0.3813 -0.2074
  532SOL    HW1 1784   3.520   0.220   4.710 -1.2182  0.3634 -0.3683
  532SOL    HW2 1785   3.417   0.321   4.756 -0.0651  1.6788 -0.6101
  533SOL     OW 1786   2.037   1.919   2.219 -0.1878  0.3010 -0.4201
  533SOL    HW1 1787   2.062   1.827   2.207 -0.3589  0.1387  0.4087
  533SOL    HW2 1788   2.112   1.959   2.263 -0.5663  0.2818  0.2584
  534SOL     OW 1789   0.973   1.096   3.607 -0.4052  0.6215 -0.4035
  534SOL    HW1 1790   0.944   1.119   3.696  2.2242  3.1788 -0.0576
  534SOL    HW2 1791   1.044   1.033   3.621  0.6994  1.7888 -0.5544
  535SOL     OW 1792   1.485   3.041   4.617  0.6973  0.4676  0.0096
  535SOL    HW1 1793   1.527   3.030   4.702  0.8236 -1.2350 -0.2306
  535SOL    HW2 1794   1.398   3.074   4.637  0.9243  0.6275  0.7586
  536SOL     OW 1795   2.212   0.487   0.838  0.4536  0.1393  0.4138
  536SOL    HW1 1796   2.233   0.494   0.744  1.5949  0.4758  0.6794
  536SOL    HW2 1797   2.136   0.543   0.849  0.2151 -0.0173 -0.3412
  537SOL     OW 1798   0.117   2.855   1.976 -0.6414  0.4532  0.6289
  537SOL    HW1 1799   0.081   2.923   2.032  0.6593  1.3560  0.4036
  537SOL    HW2 1800   0.205   2.839   2.011 -0.1601  0.3634 -0.5842
  538SOL     OW 1801   3.059   4.009   4.856 -0.5649  0.1873  0.3599
  538SOL    HW1 1802   2.995   4.048   4.917  0.9107  0.5821  1.7260
  538SOL    HW2 1803   3.129   4.073   4.851 -0.0448 -0.4406 -0.7638
  539SOL     OW 1804   1.773   1.545   0.088  0.2999 -0.3324  0.1774
  539SOL    HW1 1805   1.708   1.476   0.075 -0.6178  0.9267 -2.9190
  539SOL    HW2 1806   1.742   1.618   0.034  3.1761  1.1550  0.3160
  540SOL     OW 1807   2.188   0.030   0.295  0.4230 -0.5848  0.0435
  540SOL    HW1 1808   2.168  -0.023   0.372 -1.6293  1.6298  1.1589
  540SOL    HW2 1809   2.123   0.004   0.230 -0.5684  0.4475  0.5826
  541SOL     OW 1810   1.983   2.172   1.808  0.2268 -0.8342 -0.3987
  541SOL    HW1 1811   2.031   2.225   1.745  0.3047 -0.5591 -0.1073
  541SOL    HW2 1812   1.905   2.223   1.829  0.3024 -0.8327 -0.1159
  542SOL     OW 1813   0.288   0.843   3.415 -0.0011  0.4478 -0.3369
  542SOL    HW1 1814   0.234   0.892   3.477  0.7850 -0.4707  1.1334
  542SOL    HW2 1815   0.374   0.836   3.458  0.0037 -1.9518 -0.5900
  543SOL     OW 1816   0.489   1.871   0.245 -0.1870 -0.3914  1.4500
  543SOL    HW1 1817   0.403   1.873   0.203 -0.3115  0.9545  1.7163
  543SOL    HW2 1818   0.474   1.909   0.331  0.8241  0.7314  1.1644
  544SOL     OW 1819   0.362   0.947   2.698  0.1320  0.7334 -0.0378
  544SOL    HW1 1820   0.419   0.993   2.637  0.3442  0.4908 -0.0197
  544SOL    HW2 1821   0.366   1.000   2.778  1.1397  0.1537  0.3007
  545SOL     OW 1822   3.773   1.086   0.475 -0.7119  0.2344 -0.1396
  545SOL    HW1 1823   3.768   1.129   0.560 -0.3947  0.6933 -0.3488
  545SOL    HW2 1824   3.744   1.153   0.413  1.1243  0.6420 -0.6231
  546SOL     OW 1825   4.565   3.159   1.247 -0.2353 -0.5754  0.0294
  546SOL    HW1 1826   4.601   3.234   1.199 -0.0362 -0.8488 -0.2501
  546SOL    HW2 1827   4.559   3.190   1.337 -0.8987  0.0427 -0.2211
  547SOL     OW 1828   0.213   2.927   4.666  0.1321  0.5462  0.0655
  547SOL    HW1 1829   0.126   2.928   4.707 -0.5791  1.3832 -1.4053
  547SOL    HW2 1830   0.237   3.020   4.660  0.8673  0.3473 -0.0996
  548SOL     OW 1831   3.310   2.263   4.086 -0.0058 -0.0454 -0.0425
  548SOL    HW1 1832   3.309   2.177   4.044 -1.4856 -1.9586  3.4393
  548SOL    HW2 1833   3.401   2.293   4.078  0.3136 -1.3978 -2.2553
  549SOL     OW 1834   0.772   0.010   0.009  0.1246  0.1486 -0.0204
  549SOL    HW1 1835   0.765   0.086   0.067 -0.5177 -0.0952  0.2351
  549SOL    HW2 1836   0.857   0.020  -0.034  1.6205 -0.7344  2.4855
  550SOL     OW 1837   1.271   0.600   0.647  0.2476 -0.1076  0.3675
  550SOL    HW1 1838   1.214   0.595   0.570 -0.4686 -1.1482  0.9422
  550SOL    HW2 1839   1.339   0.663   0.622 -1.4327  1.6155 -0.1474
  551SOL     OW 1840   1.568   3.435   0.386 -0.0162  0.1822  0.6745
  551SOL    HW1 1841   1.552   3.341   0.387  1.2600 -0.0820 -0.6101
  551SOL    HW2 1842   1.510   3.468   0.317 -1.8174  0.6609  2.3287
  552SOL     OW 1843   3.883   3.164   1.936  0.2836  0.2067 -0.5905
  552SOL    HW1 1844   3.854   3.203   2.019 -1.4484 -2.9432  0.4299
  552SOL    HW2 1845   3.841   3.218   1.869 -1.4046  0.6111  0.7194
  553SOL     OW 1846   4.816   2.871   3.474  0.0982  0.1956  0.3607
  553SOL    HW1 1847   4.874   2.813   3.524  0.6405 -0.5710 -1.0894
  553SOL    HW2 1848   4.797   2.943   3.534 -0.5124 -1.4108  2.2007
  554SOL     OW 1849   2.955   3.550   3.518 -0.1688 -0.6855  0.1247
  554SOL    HW1 1850   2.888   3.482   3.510  0.2427 -1.1106  0.1874
  554SOL    HW2 1851   3.020   3.527   3.451  1.1334 -1.7208  1.6657
  555SOL     OW 1852   1.250   1.884   3.268 -1.0127  0.5789  0.0389
  555SOL    HW1 1853   1.232   1.962   3.321 -1.2560  1.2103 -0.9462
  555SOL    HW2 1854   1.193   1.893   3.192 -0.3348 -0.0755 -0.5615
  556SOL     OW 1855   3.301   2.535   0.625  0.0581 -0.0836  0.1018
  556SOL    HW1 1856   3.347   2.452   0.611 -0.2229 -0.7025  2.4435
  556SOL    HW2 1857   3.219   2.510   0.666  1.2706  1.3810  3.8632
  557SOL     OW 1858   1.726   3.623   4.458 -0.3184  0.1885  0.1941
  557SOL    HW1 1859   1.685   3.706   4.432 -0.4357  1.0363  2.8101
  557SOL    HW2 1860   1.764   3.641   4.544  2.2861 -1.6564 -0.4520
  558SOL     OW 1861   0.745   3.691   3.355 -0.4269 -0.2685  0.5132
  558SOL    HW1 1862   0.671   3.696   3.295 -0.9150  0.6214  1.1646
  558SOL    HW2 1863   0.775   3.781   3.364 -0.5973 -0.3346  1.8827
  559SOL     OW 1864   0.209   3.145   1.463 -0.2487  0.3215  0.0212
  559SOL    HW1 1865   0.132   3.088   1.462  0.7321 -1.0709 -1.1944
  559SOL    HW2 1866   0.194   3.205   1.390 -0.4772  0.4498  0.1749
  560SOL     OW 1867   4.437   3.588   1.501 -0.1802 -0.4056  0.4885
  560SOL    HW1 1868   4.424   3.677   1.469 -0.8193 -1.3197 -1.9998
  560SOL    HW2 1869   4.352   3.546   1.490  0.6281 -1.8925 -0.3635
  561SOL     OW 1870   4.106   4.467   3.099 -0.2148 -0.1673  0.3641
  561SOL    HW1 1871   4.012   4.462   3.082 -0.0359 -1.0515 -0.4586
  561SOL    HW2 1872   4.142   4.387   3.060  1.0795  0.8875 -0.7233
  562SOL     OW 1873   1.617   2.283   1.522  0.3711  0.1528  0.4271
  562SOL    HW1 1874   1.598   2.331   1.603  1.0791  1.2032  0.0020
  562SOL    HW2 1875   1.655   2.200   1.551 -0.1166  0.1832  1.1762
  563SOL     OW 1876   3.446   2.939   3.124 -0.6317 -0.6733  0.3228
  563SOL    HW1 1877   3.498   3.002   3.174 -0.5498 -2.0099  1.9879
  563SOL    HW2 1878   3.370   2.989   3.095  0.0650  0.5224  0.4765
  564SOL     OW 1879   1.150   1.909   4.094  0.2806 -0.4782 -0.6838
  564SOL    HW1 1880   1.124   1.837   4.037 -0.5578 -1.1210  0.4657
  564SOL    HW2 1881   1.123   1.881   4.182 -0.3354  1.3734 -0.2469
  565SOL     OW 1882   3.818   4.422   1.385 -0.2107  0.1129 -1.2290
  565SOL    HW1 1883   3.839   4.447   1.475  0.1055 -3.1623 -0.2734
  565SOL    HW2 1884   3.875   4.477   1.331  0.6168  1.1633  0.6073
  566SOL     OW 1885   0.185   4.770   4.918  0.5204 -1.0050  0.7127
  566SOL    HW1 1886   0.275   4.802   4.925  0.5028 -0.8915  0.4013
  566SOL    HW2 1887   0.172   4.719   4.998  0.4278  0.0605  1.3974
  567SOL     OW 1888   0.279   0.876   1.167  0.0417 -0.4888 -0.0874
  567SOL    HW1 1889   0.201   0.839   1.127 -0.5421 -2.0760  2.3153
  567SOL    HW2 1890   0.339   0.801   1.176  1.9413  0.7000 -1.9397
  568SOL     OW 1891   0.592   1.672   2.176 -0.3547 -0.2358 -0.6653
  568SOL    HW1 1892   0.579   1.595   2.231  0.8447  0.3894  0.5296
  568SOL    HW2 1893   0.530   1.660   2.104 -0.5615 -2.0470 -0.2320
  569SOL     OW 1894   0.459   0.988   3.887  0.0115 -0.6944 -0.1260
  569SOL    HW1 1895   0.474   1.038   3.967 -0.0289 -0.7951 -0.0555
  569SOL    HW2 1896   0.521   0.915   3.893 -0.7051 -1.2876  0.3119
  570SOL     OW 1897   3.604   1.804   1.450 -0.4511  0.2626 -0.2644
  570SOL    HW1 1898   3.595   1.744   1.524 -0.1851 -0.1055 -0.5281
  570SOL    HW2 1899   3.694   1.791   1.420 -0.3348  0.9230 -0.2140
  571SOL     OW 1900   2.095   1.725   1.147 -0.0278  0.3542  0.0386
  571SOL    HW1 1901   2.127   1.643   1.187  1.3982  1.4759  1.3154
  571SOL    HW2 1902   2.098   1.708   1.053 -2.2335 -1.9207  0.2804
  572SOL     OW 1903   2.524   3.559   0.223  0.5093  0.1678  0.2913
  572SOL    HW1 1904   2.585   3.620   0.264  0.6870 -0.8932  1.6711
  572SOL    HW2 1905   2.542   3.566   0.129  1.1697  1.5226  0.5082
  573SOL     OW 1906   1.759   1.705   3.931 -0.4500 -0.1772  0.7043
  573SOL    HW1 1907   1.803   1.757   3.999  0.1778  1.2772 -0.7530
  573SOL    HW2 1908   1.752   1.765   3.856 -0.1124 -2.0688 -0.9047
  574SOL     OW 1909   2.003   2.843   1.504 -0.3555  0.1025 -0.3019
  574SOL    HW1 1910   2.044   2.903   1.441 -1.1336 -0.4194 -1.3145
  574SOL    HW2 1911   1.915   2.879   1.517 -0.4929 -0.2822 -0.1735
  575SOL     OW 1912   3.724   0.252   0.348 -0.1835 -0.2688  0.8237
  575SOL    HW1 1913   3.683   0.199   0.417  0.8932 -0.7059  1.1478
  575SOL    HW2 1914   3.770   0.189   0.294 -1.2980  0.0305 -0.5337
  576SOL     OW 1915   2.607   1.488   4.735  0.1744 -0.3581 -0.3214
  576SOL    HW1 1916   2.567   1.575   4.733  0.3737 -0.1866  1.3948
  576SOL    HW2 1917   2.700   1.503   4.719  0.2291 -0.2267  0.1003
  577SOL     OW 1918   3.330   0.593   3.871 -0.3674  0.4366  0.7103
  577SOL    HW1 1919   3.405   0.649   3.889  0.4784 -0.6461  0.5947
  577SOL    HW2 1920   3.366   0.506   3.858 -1.4588  0.1871 -1.0339
  578SOL     OW 1921   2.309   4.776   1.105  0.3028  0.5259  0.1713
  578SOL    HW1 1922   2.298   4.681   1.107 -1.4013  0.6962  0.7523
  578SOL    HW2 1923   2.359   4.793   1.025  0.7346 -0.8592  0.1258
  579SOL     OW 1924   4.212   4.530   0.892 -0.4623 -0.0063  0.6292
  579SOL    HW1 1925   4.213   4.542   0.987 -1.2922 -0.0236  0.6415
  579SOL    HW2 1926   4.125   4.495   0.872 -0.0660 -0.6337 -0.0647
  580SOL     OW 1927   3.066   0.561   3.925  0.2600 -0.2183  0.4076
  580SOL    HW1 1928   3.155   0.592   3.907 -0.2704  0.6442 -0.8744
  580SOL    HW2 1929   3.028   0.546   3.838 -0.9227 -0.3473  0.9321
  581SOL     OW 1930   4.110   2.701   1.349  0.4268  0.2661  0.3666
  581SOL    HW1 1931   4.064   2.635   1.298  0.5061  1.1297 -0.8655
  581SOL    HW2 1932   4.196   2.707   1.308  0.6056  0.7654  0.8028
  582SOL     OW 1933   4.596   2.529   4.580  0.0226  0.5457  0.6066
  582SOL    HW1 1934   4.546   2.539   4.661  1.3721 -0.4333  1.6099
  582SOL    HW2 1935   4.670   2.473   4.604 -0.2216 -0.8302 -1.6038
  583SOL     OW 1936   3.153   4.572   3.455 -0.1508 -0.1864  0.0522
  583SOL    HW1 1937   3.180   4.504   3.516  0.4699 -0.4731 -0.5300
  583SOL    HW2 1938   3.058   4.570   3.457 -0.1624  0.6612  1.9505
  584SOL     OW 1939   0.492   3.313   4.412  0.1080 -0.1378  0.3002
  584SOL    HW1 1940   0.568   3.369   4.398 -1.5198  1.8073 -1.4651
  584SOL    HW2 1941   0.434   3.333   4.338 -2.4638 -0.9011  1.9838
  585SOL     OW 1942   3.450   2.689   4.172  0.6134  0.0546  0.3986
  585SOL    HW1 1943   3.524   2.657   4.121  0.9354 -0.2205  1.0393
  585SOL    HW2 1944   3.454   2.784   4.164  0.8519  0.0251  0.1791
  586SOL     OW 1945   2.402   1.577   0.158 -0.5498 -0.1795  0.0112
  586SOL    HW1 1946   2.323   1.629   0.146 -1.9512 -2.3289 -0.4450
  586SOL    HW2 1947   2.395   1.507   0.094  0.6119 -1.7468  1.5124
  587SOL     OW 1948   0.426   4.814   1.167 -0.1702  0.1696 -0.5415
  587SOL    HW1 1949   0.390   4.872   1.101 -1.4348 -1.0451 -0.9589
  587SOL    HW2 1950   0.519   4.838   1.171 -0.4684  1.5965 -1.3141
  588SOL     OW 1951   3.235   2.005   2.971  0.5974 -0.0963  0.0282
  588SOL    HW1 1952   3.160   2.041   3.019 -0.3496 -0.4496 -1.1465
  588SOL    HW2 1953   3.214   1.913   2.959  1.9361 -0.5531  0.9855
  589SOL     OW 1954   4.425   1.689   4.828 -0.6107  0.0996 -0.1212
  589SOL    HW1 1955   4.385   1.773   4.805 -1.8640 -0.4643 -0.0927
  589SOL    HW2 1956   4.412   1.634   4.750  0.5357  0.0443 -0.2781
  590SOL     OW 1957   0.928   1.652   4.292  0.5474  0.5311  0.1711
  590SOL    HW1 1958   0.875   1.575   4.311 -1.1751  1.4024 -0.8878
  590SOL    HW2 1959   1.011   1.617   4.260  0.3159 -0.8617  1.0182
  591SOL     OW 1960   1.599   2.339   4.622 -0.1706 -0.3416 -0.1019
  591SOL    HW1 1961   1.691   2.337   4.597 -0.3969  2.2394 -1.4431
  591SOL    HW2 1962   1.555   2.286   4.555  0.0756  0.4240 -0.8802
  592SOL     OW 1963   3.735   4.172   2.801  0.0700 -0.3924  0.4305
  592SOL    HW1 1964   3.743   4.265   2.825  0.0851 -0.4836  0.7759
  592SOL    HW2 1965   3.747   4.172   2.706 -0.8928  0.0669  0.2999
  593SOL     OW 1966   1.945   2.728   4.226 -0.2206  0.6660 -0.2601
  593SOL    HW1 1967   1.882   2.674   4.178  0.3242  1.5792 -2.1003
  593SOL    HW2 1968   1.958   2.805   4.171  0.6031  1.7091  1.2962
  594SOL     OW 1969   2.806   3.969   2.063 -0.5707 -0.3313 -0.1217
  594SOL    HW1 1970   2.821   3.946   2.154  0.9908 -1.4590 -0.6376
  594SOL    HW2 1971   2.780   3.887   2.021 -2.2002  0.3533 -0.5373
  595SOL     OW 1972   4.651   0.461   3.612  0.3292  0.1841 -0.2517
  595SOL    HW1 1973   4.563   0.498   3.617  0.4385  0.3528  0.4839
  595SOL    HW2 1974   4.673   0.438   3.702  1.3670  0.9179 -0.2928
  596SOL     OW 1975   3.441   0.388   0.996 -0.2592 -0.2221  0.6163
  596SOL    HW1 1976   3.526   0.422   1.025  0.7670  0.1361 -2.4415
  596SOL    HW2 1977   3.457   0.295   0.979 -0.1227  0.0690 -0.9969
  597SOL     OW 1978   1.006   2.228   0.918  0.0673 -0.7116 -0.6489
  597SOL    HW1 1979   0.916   2.207   0.893 -1.0379  1.8261  0.8331
  597SOL    HW2 1980   1.040   2.279   0.844 -0.1559 -0.5815 -0.6614
  598SOL     OW 1981   0.934   1.879   2.428 -0.0986 -0.2792 -0.8040
  598SOL    HW1 1982   0.977   1.884   2.343  1.4592 -0.4982 -0.0694
  598SOL    HW2 1983   0.904   1.788   2.435  0.2069 -0.3881 -0.9089
  599SOL     OW 1984   4.785   3.927   2.653  0.1769  0.0503  0.0914
  599SOL    HW1 1985   4.721   3.886   2.712  0.7715 -0.9316  0.0781
  599SOL    HW2 1986   4.808   3.858   2.592  0.5026  0.7013 -0.5314
  600SOL     OW 1987   0.083   1.498   3.983  0.1577  0.0234  0.0009
  600SOL    HW1 1988   0.098   1.485   3.890  0.3670 -0.9661  0.1587
  600SOL    HW2 1989   0.028   1.424   4.009 -3.5348  2.4275 -0.1433
  601SOL     OW 1990   4.496   3.200   3.553 -0.0487 -0.0795  0.5784
  601SOL    HW1 1991   4.417   3.249   3.529  0.4135 -0.0090 -0.8471
  601SOL    HW2 1992   4.484   3.114   3.513  0.7202  0.0298  0.0962
  602SOL     OW 1993   3.260   2.753   0.864  0.2052 -0.3760  0.3983
  602SOL    HW1 1994   3.309   2.706   0.798 -0.2749  0.7553 -0.7976
  602SOL    HW2 1995   3.174   2.767   0.825 -0.8079 -1.4650  2.0684
  603SOL     OW 1996   3.515   2.726   1.189  0.7211  0.6349  0.3471
  603SOL    HW1 1997   3.439   2.774   1.158 -0.7489 -1.9855 -0.3820
  603SOL    HW2 1998   3.567   2.710   1.109  0.1213 -0.7417  0.2137
  604SOL     OW 1999   1.854   0.099   1.989 -0.0963  0.2582 -0.1360
  604SOL    HW1 2000   1.890   0.026   1.939 -0.9281  0.6996 -1.4303
  604SOL    HW2 2001   1.928   0.158   2.003  0.8218 -1.2613  1.8235
  605SOL     OW 2002   3.789   3.109   3.597 -0.0275 -0.1253  0.7912
  605SOL    HW1 2003   3.754   3.037   3.650  1.2085 -1.0647  0.3745
  605SOL    HW2 2004   3.711   3.149   3.558 -0.8707 -0.1598  2.3553
  606SOL     OW 2005   0.837   1.219   3.119 -0.1432  0.4753  0.2016
  606SOL    HW1 2006   0.788   1.155   3.068 -1.1094  1.6714 -0.4494
  606SOL    HW2 2007   0.923   1.179   3.133 -1.1496 -1.4880  1.0028
  607SOL     OW 2008   3.907   4.034   3.971 -0.2974  0.6299 -0.8301
  607SOL    HW1 2009   3.852   3.975   3.919  1.0869 -0.8167 -0.7079
  607SOL    HW2 2010   3.960   3.976   4.025  2.2509  1.8936 -1.8345
  608SOL     OW 2011   3.611   0.749   2.137  0.5681  0.3875  0.4206
  608SOL    HW1 2012   3.642   0.837   2.115 -0.1375  0.7833  0.9831
  608SOL    HW2 2013   3.681   0.711   2.190  0.5486  0.8834  0.8034
  609SOL     OW 2014   0.242   2.199   4.644  0.2021 -0.5266 -0.0135
  609SOL    HW1 2015   0.253   2.118   4.594 -3.2947  0.5256 -2.9276
  609SOL    HW2 2016   0.302   2.261   4.603  0.3817 -0.7550 -0.1006
  610SOL     OW 2017   3.189   4.756   2.588  0.0996  0.5482 -0.1359
  610SOL    HW1 2018   3.185   4.793   2.676 -0.8584 -0.1999  0.1524
  610SOL    HW2 2019   3.261   4.803   2.546 -0.4960  2.1127  0.4859
  611SOL     OW 2020   1.313   1.066   1.153  0.1056 -0.4429 -0.8762
  611SOL    HW1 2021   1.318   0.970   1.155  0.7173 -0.3946 -0.0038
  611SOL    HW2 2022   1.220   1.085   1.170 -0.0763 -0.8812 -1.3482
  612SOL     OW 2023   0.270   0.260   3.487 -0.0996 -0.0522 -0.2006
  612SOL    HW1 2024   0.255   0.248   3.581 -1.9298 -2.3293 -0.6615
  612SOL    HW2 2025   0.257   0.353   3.472  1.1559  0.5144  1.9230
  613SOL     OW 2026   1.611   3.989   1.744 -0.3841  0.2635 -0.3524
  613SOL    HW1 2027   1.597   4.041   1.824 -1.9727 -1.2785  0.4272
  613SOL    HW2 2028   1.539   3.926   1.743  0.8086 -1.1654 -1.8870
  614SOL     OW 2029   2.358   3.075   4.847 -1.2318 -0.0048 -0.0531
  614SOL    HW1 2030   2.373   3.011   4.777 -1.0457 -0.2777  0.2309
  614SOL    HW2 2031   2.366   3.160   4.804  0.3265 -0.1413 -0.0887
  615SOL     OW 2032   1.201   0.758   2.884  0.2270 -0.0961  1.1406
  615SOL    HW1 2033   1.219   0.715   2.801  3.3580  1.8386  0.6317
  615SOL    HW2 2034   1.266   0.722   2.945  0.3971  1.1198  1.7144
  616SOL     OW 2035   0.190   1.781   1.542 -0.2096  0.4105  0.0832
  616SOL    HW1 2036   0.236   1.827   1.613  0.2033 -0.4956  0.4241
  616SOL    HW2 2037   0.107   1.827   1.533  1.2410  2.9445 -1.4419
  617SOL     OW 2038   1.779   1.223   2.311  0.1159 -0.2080 -0.0942
  617SOL    HW1 2039   1.743   1.264   2.390 -0.8585  0.7874 -1.0213
  617SOL    HW2 2040   1.862   1.269   2.295  1.5713 -2.0182  1.6342
  618SOL     OW 2041   2.855   3.735   0.067  0.2152  1.1390  0.1241
  618SOL    HW1 2042   2.784   3.679   0.035  1.5657  0.2143 -1.4213
  618SOL    HW2 2043   2.921   3.674   0.099  1.6548  1.7831 -1.4386
  619SOL     OW 2044   1.663   1.370   1.160  0.2950  0.1924  0.0115
  619SOL    HW1 2045   1.727   1.430   1.198 -0.3664  1.6109 -1.0212
  619SOL    HW2 2046   1.636   1.411   1.078 -2.6536  0.2169  0.8494
  620SOL     OW 2047   4.904   4.587   2.324 -0.2700  0.5928  0.7226
  620SOL    HW1 2048   4.982   4.576   2.379  1.2619 -0.0802 -1.4320
  620SOL    HW2 2049   4.867   4.671   2.351  1.9834  1.5858  0.9545
  621SOL     OW 2050   2.180   2.810   1.717 -0.5086  0.8044  0.7123
  621SOL    HW1 2051   2.197   2.896   1.755 -1.1829  0.7577  1.1162
  621SOL    HW2 2052   2.113   2.825   1.650  0.9520  0.9631 -0.8077
  622SOL     OW 2053   1.603   0.865   2.265 -0.3666 -0.0852  0.3161
  622SOL    HW1 2054   1.563   0.947   2.239 -0.4427 -0.5115 -0.9834
  622SOL    HW2 2055   1.564   0.845   2.350 -1.5486  0.4098 -0.0870
  623SOL     OW 2056   4.026   3.099   4.098  0.2913  0.0377 -0.3967
  623SOL    HW1 2057   4.057   3.076   4.010  0.4753  0.6795 -0.5035
  623SOL    HW2 2058   4.105   3.109   4.150  0.2865  1.4585 -0.6150
  624SOL     OW 2059   2.514   4.602   4.463  0.3881 -0.4169 -0.3855
  624SOL    HW1 2060   2.443   4.606   4.528  0.6363 -0.3870 -0.1145
  624SOL    HW2 2061   2.476   4.554   4.389  0.1483 -0.5785 -0.1593
  625SOL     OW 2062   0.413   2.158   3.468  0.5657  0.3928  0.0955
  625SOL    HW1 2063   0.487   2.119   3.514  0.1737  0.3669  0.7200
  625SOL    HW2 2064   0.378   2.223   3.530  0.1885  0.5437 -0.2697
  626SOL     OW 2065   0.737   3.798   4.075  0.5204 -0.0774  0.2982
  626SOL    HW1 2066   0.671   3.850   4.120 -1.2098 -0.3289 -1.7845
  626SOL    HW2 2067   0.804   3.861   4.049 -0.4955  0.7788 -0.3193
  627SOL     OW 2068   1.821   3.896   1.415 -0.3263  0.5344  0.1814
  627SOL    HW1 2069   1.805   3.806   1.446  1.2811 -0.3522 -1.3872
  627SOL    HW2 2070   1.773   3.901   1.332 -0.1748  1.0429  0.1225
  628SOL     OW 2071   3.011   2.650   2.127  0.1176  0.0075  0.0747
  628SOL    HW1 2072   3.043   2.560   2.122  0.4341  0.0500  1.1468
  628SOL    HW2 2073   2.938   2.646   2.188 -0.6406  0.2862 -0.7802
  629SOL     OW 2074   0.408   0.250   4.047 -0.1536 -0.3736  0.3880
  629SOL    HW1 2075   0.446   0.335   4.025 -0.2211 -0.7373 -1.2337
  629SOL    HW2 2076   0.327   0.272   4.094 -0.4155  0.4697 -0.4238
  630SOL     OW 2077   3.296   4.245   2.978  0.2202 -0.1150 -0.1452
  630SOL    HW1 2078   3.339   4.233   2.893 -2.9059 -1.7040 -1.7000
  630SOL    HW2 2079   3.248   4.327   2.970 -1.6455 -1.1855 -0.8145
  631SOL     OW 2080   4.184   3.617   4.643  0.0005 -0.6261  0.4933
  631SOL    HW1 2081   4.124   3.554   4.682  0.8808 -1.2162  0.9229
  631SOL    HW2 2082   4.157   3.701   4.679 -2.0912 -0.5062 -1.1666
  632SOL     OW 2083   0.093   2.885   0.884 -0.5529 -0.2343 -0.1106
  632SOL    HW1 2084   0.143   2.964   0.905 -0.2957  0.2156 -2.2095
  632SOL    HW2 2085   0.152   2.812   0.906  0.2747  0.2407 -0.7016
  633SOL     OW 2086   0.909   2.680   2.286  0.0962 -0.2394 -0.0135
  633SOL    HW1 2087   0.838   2.631   2.246 -0.9822  0.2772  1.1748
  633SOL    HW2 2088   0.903   2.768   2.247 -1.4613  0.5038  1.7256
  634SOL     OW 2089   0.201   3.893   4.908  0.3100 -0.4165  0.2666
  634SOL    HW1 2090   0.143   3.955   4.862 -0.6502 -3.5432 -3.2622
  634SOL    HW2 2091   0.289   3.922   4.886 -0.0808  0.3831 -0.3063
  635SOL     OW 2092   4.125   4.201   1.587 -0.3375 -0.5916  0.2663
  635SOL    HW1 2093   4.156   4.110   1.584 -1.4601 -1.0167  1.0008
  635SOL    HW2 2094   4.032   4.195   1.565 -0.1208  0.5625 -1.0853
  636SOL     OW 2095   2.494   1.613   4.454 -0.5089  0.4048 -0.2810
  636SOL    HW1 2096   2.487   1.655   4.539  0.2496  1.4997 -0.7382
  636SOL    HW2 2097   2.588   1.604   4.439 -0.6492 -0.8667 -0.4941
  637SOL     OW 2098   2.355   3.467   2.409  0.1021  0.2070 -0.3055
  637SOL    HW1 2099   2.353   3.471   2.505  0.7239  0.9813 -0.3142
  637SOL    HW2 2100   2.430   3.412   2.389 -0.4108 -0.4919 -0.3513
  638SOL     OW 2101   4.258   0.580   3.378 -0.0194 -0.2524  0.4945
  638SOL    HW1 2102   4.281   0.489   3.395  2.8601 -0.0198 -1.4246
  638SOL    HW2 2103   4.212   0.579   3.295 -2.5661 -0.1375  1.8062
  639SOL     OW 2104   3.793   1.941   2.758 -0.0135  0.2763 -0.1178
  639SOL    HW1 2105   3.879   1.899   2.759  0.3632  0.9790  1.5574
  639SOL    HW2 2106   3.731   1.869   2.761  0.5847 -0.2169  0.8458
  640SOL     OW 2107   4.775   0.598   2.266 -0.1538  0.0377 -0.0450
  640SOL    HW1 2108   4.735   0.612   2.180  0.4539 -1.1451 -0.5473
  640SOL    HW2 2109   4.794   0.504   2.268  2.6872  0.5101  0.1039
  641SOL     OW 2110   4.405   3.604   4.215  0.6930 -0.6607  0.1116
  641SOL    HW1 2111   4.351   3.683   4.227  1.1311 -0.3086 -0.2131
  641SOL    HW2 2112   4.475   3.614   4.280  0.7985 -0.7381  0.0090
  642SOL     OW 2113   1.930   1.042   3.422  0.2019  0.1421 -0.0924
  642SOL    HW1 2114   1.940   1.076   3.511 -0.4534 -0.3353  0.1753
  642SOL    HW2 2115   1.836   1.023   3.415 -0.1463  2.1147 -1.5823
  643SOL     OW 2116   3.874   2.077   1.602  0.3258  0.0183  0.6411
  643SOL    HW1 2117   3.907   2.009   1.543 -0.4106 -1.2191  1.6083
  643SOL    HW2 2118   3.787   2.097   1.567  0.0156 -0.4930  1.0995
  644SOL     OW 2119   0.013   0.404   0.889  0.2045  0.5860 -0.7726
  644SOL    HW1 2120  -0.030   0.326   0.925  0.9490  1.0036  1.1762
  644SOL    HW2 2121  -0.057   0.468   0.879  0.0491  0.6479  0.5688
  645SOL     OW 2122   0.531   1.464   2.358 -0.1581 -0.7571  0.1718
  645SOL    HW1 2123   0.604   1.402   2.354 -0.4809 -1.1912  0.8229
  645SOL    HW2 2124   0.454   1.412   2.335 -0.6658 -1.0197  2.3151
  646SOL     OW 2125   4.321   2.576   3.796 -0.0801 -0.5187 -0.5415
  646SOL    HW1 2126   4.358   2.498   3.836  0.9843  0.8369  1.2812
  646SOL    HW2 2127   4.243   2.545   3.750  0.6532 -2.7175 -0.4247
  647SOL     OW 2128   2.720   2.502   0.284 -0.3742 -0.3381 -0.6487
  647SOL    HW1 2129   2.643   2.450   0.262 -1.4982  1.0044  0.0201
  647SOL    HW2 2130   2.721   2.505   0.380 -1.8516  2.9369 -0.6061
  648SOL     OW 2131   2.303   3.621   3.570  0.4592  0.2358  0.1132
  648SOL    HW1 2132   2.238   3.552   3.582  0.3330  0.4088  0.4247
  648SOL    HW2 2133   2.380   3.591   3.620  0.6808 -0.0501 -0.3951
  649SOL     OW 2134   0.532   3.177   4.101  0.1628 -0.2258 -0.0036
  649SOL    HW1 2135   0.553   3.131   4.020  0.5197 -0.7037  0.3492
  649SOL    HW2 2136   0.444   3.212   4.087 -0.0900 -0.9558 -0.3142
  650SOL     OW 2137   1.912   2.339   3.161 -0.2720  0.3620  0.0968
  650SOL    HW1 2138   1.868   2.349   3.246 -2.2631 -1.5576 -0.6369
  650SOL    HW2 2139   1.901   2.247   3.138  1.7391  0.4386 -1.4982
  651SOL     OW 2140   3.786   3.584   2.106  0.2586 -0.0157  0.7625
  651SOL    HW1 2141   3.776   3.489   2.104  1.1877 -0.1226  0.4803
  651SOL    HW2 2142   3.873   3.600   2.069  0.2430  0.9222  1.0867
  652SOL     OW 2143   3.107   1.002   0.808 -0.2344  0.1424 -0.1222
  652SOL    HW1 2144   3.063   1.084   0.787  0.2229  0.5872  0.6081
  652SOL    HW2 2145   3.172   0.992   0.739 -0.8124 -0.0055 -0.6468
  653SOL     OW 2146   1.906   1.086   4.938  0.3200 -0.1951 -0.2415
  653SOL    HW1 2147   1.871   1.010   4.985  0.1826  0.5738  0.9521
  653SOL    HW2 2148   1.837   1.153   4.947  1.3557  0.7891  0.6807
  654SOL     OW 2149   4.532   4.447   0.632  0.4814 -0.2256 -0.5553
  654SOL    HW1 2150   4.472   4.403   0.571 -0.3729 -1.3005  0.9955
  654SOL    HW2 2151   4.583   4.376   0.670  1.6080  0.5246 -0.6410
  655SOL     OW 2152   4.527   2.549   4.826 -0.5126 -0.1187  0.4711
  655SOL    HW1 2153   4.623   2.552   4.826 -0.4782 -0.7156 -0.7677
  655SOL    HW2 2154   4.501   2.619   4.886  0.6910  0.5298  0.2745
  656SOL     OW 2155   2.027   0.694   4.735 -0.2211  0.3775 -0.8213
  656SOL    HW1 2156   2.050   0.713   4.644 -0.9423  0.3564 -1.0115
  656SOL    HW2 2157   2.106   0.716   4.784 -0.6672  3.0121 -1.1232
  657SOL     OW 2158   1.811   1.990   1.991  0.4025  0.1285  0.5327
  657SOL    HW1 2159   1.894   2.005   1.944  0.4517  1.5899  1.0456
  657SOL    HW2 2160   1.746   1.982   1.922  0.6571  1.0661  0.1699
  658SOL     OW 2161   2.533   0.778   0.649  0.3297 -0.0201 -0.1982
  658SOL    HW1 2162   2.448   0.820   0.635  0.4468  0.3316  0.1272
  658SOL    HW2 2163   2.581   0.793   0.568 -0.1199 -0.7105 -0.6007
  659SOL     OW 2164   4.904   3.027   2.147 -0.0186  0.0706  1.1848
  659SOL    HW1 2165   4.929   3.095   2.210 -1.0778 -0.8561  2.7014
  659SOL    HW2 2166   4.815   3.051   2.121 -1.0873 -1.5268  3.0422
  660SOL     OW 2167   3.765   4.736   2.658 -0.0040  0.1410  0.1519
  660SOL    HW1 2168   3.784   4.821   2.697 -1.4189  0.6223 -0.1532
  660SOL    HW2 2169   3.840   4.682   2.681  0.9852  1.5027  0.2343
  661SOL     OW 2170   2.475   2.363   1.627  0.1309 -0.4813 -0.1408
  661SOL    HW1 2171   2.431   2.351   1.543 -1.0385 -0.7795  0.4953
  661SOL    HW2 2172   2.506   2.276   1.651 -0.5394 -0.6183  0.2621
  662SOL     OW 2173   0.729   4.689   3.542 -0.1974  0.7131 -0.5237
  662SOL    HW1 2174   0.796   4.739   3.589  1.4920 -1.0132 -0.9919
  662SOL    HW2 2175   0.686   4.637   3.610  1.6259 -1.0850 -0.6431
  663SOL     OW 2176   1.136   0.209   0.621 -0.2336 -0.1088 -0.1003
  663SOL    HW1 2177   1.228   0.221   0.594 -0.1255  0.1732  0.3740
  663SOL    HW2 2178   1.107   0.297   0.645 -1.0120  0.0165 -1.3969
  664SOL     OW 2179   0.702   4.598   3.288 -0.1050 -0.5412 -0.0264
  664SOL    HW1 2180   0.702   4.641   3.373 -1.9917 -1.0388  0.2770
  664SOL    HW2 2181   0.740   4.662   3.228  1.7090 -0.3634  1.2509
  665SOL     OW 2182   1.952   4.432   4.566  0.3673  0.0069 -0.2683
  665SOL    HW1 2183   1.988   4.424   4.478  2.3552 -0.8467  0.5539
  665SOL    HW2 2184   1.863   4.464   4.553  0.4216 -0.6035 -2.6035
  666SOL     OW 2185   4.631   2.110   0.589  0.0642 -0.1340  0.0782
  666SOL    HW1 2186   4.672   2.160   0.660 -0.1983  1.8315 -1.0676
  666SOL    HW2 2187   4.704   2.070   0.542  0.2537 -1.2567  1.2645
  667SOL     OW 2188   0.614   4.292   0.181  0.0892 -0.6724 -0.3715
  667SOL    HW1 2189   0.687   4.354   0.186 -0.8919  0.5165 -0.4055
  667SOL    HW2 2190   0.655   4.209   0.156  1.1916  0.4120 -2.4570
  668SOL     OW 2191   0.066   2.599   4.258 -0.1136  0.1063 -0.1448
  668SOL    HW1 2192   0.086   2.524   4.313  1.4072  0.9202  0.4822
  668SOL    HW2 2193   0.004   2.566   4.193  0.7678 -1.7600 -0.0881
  669SOL     OW 2194   2.733   1.383   2.664  0.7075  0.2852 -0.0732
  669SOL    HW1 2195   2.688   1.420   2.588  1.9818  1.7849 -0.1442
  669SOL    HW2 2196   2.698   1.294   2.671 -0.2022  0.4586 -1.7698
  670SOL     OW 2197   2.517   1.523   1.042 -0.3082  0.4735 -0.4454
  670SOL    HW1 2198   2.556   1.610   1.041  0.4998  0.1313  0.1559
  670SOL    HW2 2199   2.527   1.493   1.132 -2.4860  0.5766 -0.1040
  671SOL     OW 2200   3.756   1.773   0.954 -0.5635 -0.4526  0.2822
  671SOL    HW1 2201   3.676   1.737   0.916 -0.4308 -0.2412 -0.2137
  671SOL    HW2 2202   3.826   1.735   0.900 -0.3857  0.0280  0.1775
  672SOL     OW 2203   0.198   3.482   0.686  0.0248 -0.3727  1.0258
  672SOL    HW1 2204   0.217   3.461   0.595  2.5674  1.3133  1.0805
  672SOL    HW2 2205   0.117   3.533   0.682  0.3735  0.1356 -0.3917
  673SOL     OW 2206   3.288   0.020   4.506  0.1256  0.1926  0.0920
  673SOL    HW1 2207   3.231   0.092   4.534 -0.8523 -0.8220  0.8566
  673SOL    HW2 2208   3.239  -0.059   4.530  2.0338 -0.7504  1.1388
  674SOL     OW 2209   4.561   1.860   0.157 -0.2378  0.5764  0.2604
  674SOL    HW1 2210   4.560   1.775   0.113  1.6636 -0.4029  1.9122
  674SOL    HW2 2211   4.470   1.889   0.156 -0.6195 -0.4452 -2.1926
  675SOL     OW 2212   2.942   4.526   1.409 -0.0377  0.1628  0.2496
  675SOL    HW1 2213   2.963   4.491   1.496 -0.1716  0.6944  0.4980
  675SOL    HW2 2214   2.913   4.450   1.359  3.0853 -0.8033 -0.3402
  676SOL     OW 2215   3.988   3.682   0.117 -0.0478 -0.4103  0.2548
  676SOL    HW1 2216   4.007   3.667   0.025  2.6357 -0.5052  0.7291
  676SOL    HW2 2217   4.009   3.775   0.132 -1.0030 -0.2473  0.6633
  677SOL     OW 2218   0.836   3.510   0.629 -0.0252  0.0309 -0.2575
  677SOL    HW1 2219   0.911   3.490   0.685 -0.3816 -0.4315  0.0582
  677SOL    HW2 2220   0.807   3.426   0.596 -1.2932  0.0221  0.7769
  678SOL     OW 2221   4.476   3.301   2.210 -0.2488 -0.2711 -0.0805
  678SOL    HW1 2222   4.390   3.278   2.245 -0.0270 -0.6199  0.2471
  678SOL    HW2 2223   4.472   3.396   2.196 -0.1318 -0.0125  1.5011
  679SOL     OW 2224   4.648   2.025   1.553 -0.1397  0.1474 -0.2482
  679SOL    HW1 2225   4.621   2.048   1.642  0.3191  1.4418 -0.4245
  679SOL    HW2 2226   4.638   2.107   1.504 -0.4838 -0.5753 -1.4123
  680SOL     OW 2227   4.394   3.008   2.141 -0.1405  0.4888 -0.3242
  680SOL    HW1 2228   4.299   3.004   2.132 -0.1367  1.8919 -1.3064
  680SOL    HW2 2229   4.408   3.035   2.232 -0.7159  1.0226 -0.3857
  681SOL     OW 2230   3.562   0.928   4.088  0.2082  0.0132  0.3104
  681SOL    HW1 2231   3.655   0.936   4.106 -0.2802  2.2283  2.4068
  681SOL    HW2 2232   3.529   1.018   4.092 -2.1932 -0.8200  0.8154
  682SOL     OW 2233   1.084   1.860   0.897  0.1005 -0.2768 -0.1220
  682SOL    HW1 2234   1.062   1.867   0.990  1.8747 -2.2807  0.5359
  682SOL    HW2 2235   1.116   1.947   0.874 -2.0334  0.7993  0.5822
  683SOL     OW 2236   0.721   4.666   4.916  0.5912 -0.5756  0.1160
  683SOL    HW1 2237   0.748   4.748   4.958  0.9119  0.2570 -1.6203
  683SOL    HW2 2238   0.722   4.601   4.987  1.4950  0.6649  1.2919
  684SOL     OW 2239   1.874   1.132   4.647  0.0840  0.7532 -0.1460
  684SOL    HW1 2240   1.964   1.108   4.627 -0.6946 -2.0745 -0.7235
  684SOL    HW2 2241   1.856   1.091   4.732 -1.1197 -0.1956 -0.8194
  685SOL     OW 2242   1.062   4.543   4.084 -0.4545 -0.1174  0.2568
  685SOL    HW1 2243   0.987   4.507   4.034  0.7211 -0.5258 -1.3011
  685SOL    HW2 2244   1.132   4.480   4.068  1.3559  2.2069 -1.5822
  686SOL     OW 2245   4.670   2.044   3.797  0.2025 -0.5117  0.0911
  686SOL    HW1 2246   4.677   2.138   3.811 -0.2177 -0.5152  0.3681
  686SOL    HW2 2247   4.720   2.027   3.718 -0.3330  0.0614 -0.3835
  687SOL     OW 2248   4.228   0.644   2.345 -0.2298  0.2053 -0.3804
  687SOL    HW1 2249   4.307   0.693   2.322  1.1607 -1.1767  1.1697
  687SOL    HW2 2250   4.250   0.553   2.327 -1.0054 -0.3245  1.1516
  688SOL     OW 2251   4.156   2.492   2.548  0.1847 -0.0760 -0.0493
  688SOL    HW1 2252   4.174   2.461   2.460  2.4416  0.4944  0.1216
  688SOL    HW2 2253   4.185   2.584   2.547 -1.9032  0.6502  0.7000
  689SOL     OW 2254   3.747   0.919   1.334 -0.2779 -0.6287 -0.1220
  689SOL    HW1 2255   3.695   0.843   1.362  1.4701 -1.0906  2.1650
  689SOL    HW2 2256   3.816   0.882   1.279 -0.2069 -0.5201 -0.1067
  690SOL     OW 2257   0.565   1.968   2.129  0.4319 -0.0710  0.1176
  690SOL    HW1 2258   0.541   1.886   2.086 -0.2916  1.5194 -2.7398
  690SOL    HW2 2259   0.601   1.941   2.214 -0.2821 -3.2709 -0.4805
  691SOL     OW 2260   2.957   4.178   2.670  0.4109  0.1351 -0.3918
  691SOL    HW1 2261   3.038   4.187   2.621  0.4040  2.7094 -0.0643
  691SOL    HW2 2262   2.888   4.191   2.605  0.3463  0.8764 -0.1843
  692SOL     OW 2263   4.277   2.341   4.268  0.0390 -0.4766 -0.4772
  692SOL    HW1 2264   4.362   2.385   4.275 -0.4276  0.1864  2.3375
  692SOL    HW2 2265   4.286   2.265   4.325 -1.2328 -0.4174 -0.1788
  693SOL     OW 2266   1.138   2.780   1.324  0.0616 -0.2404  0.1762
  693SOL    HW1 2267   1.058   2.799   1.373 -0.2650 -0.4917 -0.2460
  693SOL    HW2 2268   1.193   2.732   1.385 -0.0285  0.1063  0.5339
  694SOL     OW 2269   1.651   0.999   3.479  0.4242  0.4223 -0.1275
  694SOL    HW1 2270   1.591   1.042   3.540  0.9428  0.5399  0.3042
  694SOL    HW2 2271   1.662   0.911   3.513 -0.1710  0.1301 -0.6831
  695SOL     OW 2272   2.615   3.226   4.757  0.2928  0.6695 -0.1333
  695SOL    HW1 2273   2.560   3.285   4.808 -0.0644  1.8850 -1.8095
  695SOL    HW2 2274   2.665   3.284   4.699  1.0334 -0.5911 -0.7967
  696SOL     OW 2275   2.760   2.418   1.655  0.3233 -0.1358 -0.1276
  696SOL    HW1 2276   2.673   2.452   1.675  0.2980 -0.8298  1.0269
  696SOL    HW2 2277   2.802   2.489   1.606 -0.0985  1.1517  1.2690
  697SOL     OW 2278   1.247   4.262   0.618 -0.2396 -0.5560  0.5125
  697SOL    HW1 2279   1.189   4.321   0.666  1.8694  1.2905  1.0099
  697SOL    HW2 2280   1.243   4.179   0.665 -0.1221  0.4807  2.4397
  698SOL     OW 2281   1.187   2.479   1.846 -0.1245  0.5872 -0.2486
  698SOL    HW1 2282   1.097   2.463   1.874  0.5829 -0.3976  1.5829
  698SOL    HW2 2283   1.194   2.434   1.762 -0.7973 -1.0763  0.5465
  699SOL     OW 2284   1.138   2.358   1.234 -0.1559 -0.3343  0.0776
  699SOL    HW1 2285   1.086   2.415   1.176  0.1893 -0.1004 -0.0076
  699SOL    HW2 2286   1.104   2.375   1.322 -0.7416 -0.7539 -0.0625
  700SOL     OW 2287   3.082   2.847   4.273 -0.4099  0.5017  0.0545
  700SOL    HW1 2288   3.050   2.863   4.184 -0.0796 -0.1976 -0.1953
  700SOL    HW2 2289   3.126   2.928   4.298 -2.4190  1.5395  0.4414
  701SOL     OW 2290   2.410   0.378   1.007  0.1749  0.3301  0.4657
  701SOL    HW1 2291   2.487   0.434   1.007 -0.7175  1.6223  0.4596
  701SOL    HW2 2292   2.349   0.423   0.948 -0.1933 -1.2263 -0.3918
  702SOL     OW 2293   4.621   4.181   1.086 -0.5158  0.8322  0.2298
  702SOL    HW1 2294   4.574   4.150   1.163 -0.4246  0.7723  0.2605
  702SOL    HW2 2295   4.695   4.121   1.077  0.9158  2.2874  1.5668
  703SOL     OW 2296   1.806   4.465   2.869  0.6219  0.2470 -0.5981
  703SOL    HW1 2297   1.838   4.555   2.867  2.2612 -0.3042 -0.4655
  703SOL    HW2 2298   1.770   4.450   2.782 -1.1318  1.4978 -0.1506
  704SOL     OW 2299   0.121   2.113   4.327 -0.0998  0.4025 -0.0767
  704SOL    HW1 2300   0.181   2.052   4.370 -1.5460 -2.8672 -2.2255
  704SOL    HW2 2301   0.162   2.131   4.243 -0.7415  0.5014 -0.3755
  705SOL     OW 2302   4.901   4.675   2.065 -0.6942  0.7176 -0.0317
  705SOL    HW1 2303   4.899   4.647   2.156  1.3202 -1.8051 -0.6565
  705SOL    HW2 2304   4.816   4.650   2.030 -0.5347 -0.6685  0.5392
  706SOL     OW 2305   0.036   3.326   3.335 -0.1343 -0.4070 -0.1092
  706SOL    HW1 2306   0.073   3.256   3.282  0.6539 -1.3296  1.5885
  706SOL    HW2 2307  -0.042   3.354   3.287  1.1344 -0.4008 -2.3133
  707SOL     OW 2308   4.803   2.895   1.101 -0.0556 -0.1051 -0.4065
  707SOL    HW1 2309   4.877   2.869   1.045  1.6810  1.4132  1.0505
  707SOL    HW2 2310   4.825   2.984   1.130 -1.5510 -0.3139  1.5744
  708SOL     OW 2311   1.826   2.713   3.386 -0.2172  0.5055  0.5655
  708SOL    HW1 2312   1.921   2.719   3.395  0.1083 -2.6009  0.4669
  708SOL    HW2 2313   1.808   2.733   3.294  0.2551  1.6467  0.7139
  709SOL     OW 2314   4.469   4.119   1.296  0.0455  0.2651 -0.3359
  709SOL    HW1 2315   4.383   4.144   1.330 -0.9463 -0.9048 -1.8897
  709SOL    HW2 2316   4.525   4.116   1.374 -1.5123  0.1949  0.8298
  710SOL     OW 2317   2.274   0.766   4.872  0.9079 -0.2200  0.6374
  710SOL    HW1 2318   2.303   0.814   4.795  0.2257 -0.0386  0.4846
  710SOL    HW2 2319   2.291   0.825   4.945 -1.9505  1.2350  0.2465
  711SOL     OW 2320   1.765   2.440   4.893 -0.2437  0.0893  0.2683
  711SOL    HW1 2321   1.715   2.512   4.931 -0.9977 -0.0684 -0.3844
  711SOL    HW2 2322   1.721   2.422   4.809 -0.2327 -1.3057  0.5351
  712SOL     OW 2323   1.373   3.007   2.725  0.3929  0.3764 -0.0722
  712SOL    HW1 2324   1.303   2.955   2.765 -0.9170  1.9463 -0.2226
  712SOL    HW2 2325   1.343   3.023   2.635  0.4776  1.8266  0.1298
  713SOL     OW 2326   4.072   3.889   0.585  0.3694 -0.6481 -0.4871
  713SOL    HW1 2327   4.129   3.896   0.662  1.1451  0.1502 -1.1205
  713SOL    HW2 2328   4.043   3.798   0.585  0.1486 -0.6097  0.8872
  714SOL     OW 2329   0.643   4.715   4.038  0.2653 -0.3146 -0.4254
  714SOL    HW1 2330   0.642   4.748   3.949 -0.5988 -1.0911 -0.7149
  714SOL    HW2 2331   0.555   4.681   4.052  0.6383 -0.9652  0.4337
  715SOL     OW 2332   1.955   1.308   1.068 -0.4107  0.6975 -0.3531
  715SOL    HW1 2333   2.009   1.356   1.130 -1.5953 -0.0284  1.3187
  715SOL    HW2 2334   1.866   1.316   1.103 -0.8070 -1.6456 -0.6682
  716SOL     OW 2335   1.642   2.628   0.859  0.6406  0.6084 -0.1273
  716SOL    HW1 2336   1.735   2.620   0.878  0.3554 -1.2297  0.6733
  716SOL    HW2 2337   1.608   2.539   0.867 -0.9215  0.9841 -1.9101
  717SOL     OW 2338   1.804   4.921   0.129 -0.2239 -0.1572 -0.0407
  717SOL    HW1 2339   1.891   4.892   0.104  0.4728  2.0460 -0.4007
  717SOL    HW2 2340   1.819   4.984   0.200 -1.4080  1.0134 -0.7807
  718SOL     OW 2341   2.554   0.538   1.291  0.2770 -0.2803 -0.2252
  718SOL    HW1 2342   2.613   0.541   1.216  2.8735  0.5949  1.7359
  718SOL    HW2 2343   2.502   0.618   1.283  0.9499  0.1177 -0.7594
  719SOL     OW 2344   0.483   3.426   1.528  0.3423 -0.0227 -0.2475
  719SOL    HW1 2345   0.400   3.410   1.573  1.1300 -1.3824  0.8117
  719SOL    HW2 2346   0.459   3.441   1.436 -1.1785  1.2476  0.3231
  720SOL     OW 2347   3.398   1.836   1.781  0.1408 -0.0167  0.2703
  720SOL    HW1 2348   3.354   1.793   1.708 -0.7499  0.8280  0.2861
  720SOL    HW2 2349   3.491   1.838   1.755 -0.1522  0.2334 -0.8186
  721SOL     OW 2350   2.466   0.182   1.178 -0.1061 -1.1751 -0.6094
  721SOL    HW1 2351   2.444   0.271   1.153  0.7424 -1.1445 -1.2841
  721SOL    HW2 2352   2.432   0.128   1.107  0.3228 -1.2961 -0.7198
  722SOL     OW 2353   1.208   2.305   3.688 -0.0730  0.2811 -0.0147
  722SOL    HW1 2354   1.188   2.216   3.717 -0.0282  0.0505 -0.6818
  722SOL    HW2 2355   1.194   2.303   3.593  2.6111  0.2143 -0.4990
  723SOL     OW 2356   2.609   3.672   4.348  0.3543  0.1154  0.0474
  723SOL    HW1 2357   2.587   3.741   4.285  2.0237 -0.6448 -1.4459
  723SOL    HW2 2358   2.676   3.711   4.404 -0.4641  0.4774  0.8111
  724SOL     OW 2359   2.143   1.392   2.018 -0.2089 -0.1781  0.1255
  724SOL    HW1 2360   2.187   1.475   2.040 -0.2935  0.1032 -0.7062
  724SOL    HW2 2361   2.091   1.371   2.095  0.2093  0.2876  0.5405
  725SOL     OW 2362   2.840   2.148   0.158  0.2196 -0.6884 -0.0853
  725SOL    HW1 2363   2.783   2.145   0.235  0.2721  1.2694  0.0952
  725SOL    HW2 2364   2.798   2.091   0.094 -1.8292  0.4608  0.1551
  726SOL     OW 2365   3.168   0.691   2.224  0.8124  0.2411  0.1688
  726SOL    HW1 2366   3.233   0.760   2.236  1.2758  0.0952 -1.2706
  726SOL    HW2 2367   3.183   0.660   2.135  0.1106 -1.2054  0.5325
  727SOL     OW 2368   2.859   2.249   4.163  0.2130 -0.6389  0.0353
  727SOL    HW1 2369   2.945   2.289   4.151  0.5295 -1.4403 -0.4777
  727SOL    HW2 2370   2.828   2.282   4.247  1.0220 -0.3407  0.2235
  728SOL     OW 2371   0.488   3.412   2.358  0.0967 -0.4680  0.8410
  728SOL    HW1 2372   0.462   3.343   2.297 -2.2626 -0.3811  1.6532
  728SOL    HW2 2373   0.560   3.457   2.314 -0.9367 -0.9433 -1.4991
  729SOL     OW 2374   0.908   4.152   1.701 -0.1784 -0.0720 -0.5664
  729SOL    HW1 2375   0.818   4.153   1.671 -0.9228  0.3622  1.4851
  729SOL    HW2 2376   0.939   4.063   1.685 -0.8607 -0.1401 -1.5583
  730SOL     OW 2377   0.825   2.573   4.588  0.4282 -0.2950  0.2192
  730SOL    HW1 2378   0.871   2.581   4.505  1.2189 -0.3981  0.6425
  730SOL    HW2 2379   0.867   2.501   4.633 -0.6063 -0.8521  0.3342
  731SOL     OW 2380   3.747   3.665   4.715 -0.1872 -0.5258  0.5841
  731SOL    HW1 2381   3.677   3.675   4.651  1.4793 -0.6001 -1.3538
  731SOL    HW2 2382   3.785   3.753   4.724 -1.3627 -0.1573  2.7455
  732SOL     OW 2383   2.679   1.427   0.812 -0.4369 -0.3268 -0.4152
  732SOL    HW1 2384   2.634   1.344   0.796 -0.1243 -1.2874  2.9062
  732SOL    HW2 2385   2.618   1.478   0.866 -0.4059  1.4858 -1.9495
  733SOL     OW 2386   1.142   3.321   3.429  0.2173  0.4340  0.0883
  733SOL    HW1 2387   1.084   3.380   3.381  1.3818  1.2427 -0.3906
  733SOL    HW2 2388   1.124   3.338   3.521  0.3132  1.3283 -0.0471
  734SOL     OW 2389   0.805   3.541   3.682 -0.6351  0.9277 -0.2148
  734SOL    HW1 2390   0.836   3.617   3.633  0.8610 -0.4233 -1.5034
  734SOL    HW2 2391   0.837   3.554   3.771 -0.5075  1.8548 -0.3906
  735SOL     OW 2392   0.895   1.205   1.934  0.3827 -0.0275  0.5859
  735SOL    HW1 2393   0.980   1.248   1.949  0.4942 -0.7094  2.0346
  735SOL    HW2 2394   0.914   1.139   1.866  0.9437  0.0212  0.6854
  736SOL     OW 2395   4.456   1.219   2.912 -0.0760  0.1853  0.4106
  736SOL    HW1 2396   4.536   1.200   2.861  0.2965 -0.9687  1.3676
  736SOL    HW2 2397   4.430   1.307   2.884  0.7736  0.0557 -0.9018
  737SOL     OW 2398   2.173   3.883   2.299  0.0458  0.6169  0.0650
  737SOL    HW1 2399   2.253   3.851   2.341 -0.7428  0.7768  1.7774
  737SOL    HW2 2400   2.107   3.882   2.368 -1.1324  1.6860 -0.9744
  738SOL     OW 2401   0.612   2.483   1.898  0.1668  0.1836 -0.4719
  738SOL    HW1 2402   0.520   2.495   1.874  0.0474 -1.1457 -0.7469
  738SOL    HW2 2403   0.621   2.528   1.982 -0.9364 -0.3579 -0.0473
  739SOL     OW 2404   1.902   2.451   0.213 -0.1592 -0.0080 -0.2208
  739SOL    HW1 2405   1.875   2.493   0.131  1.8423 -1.6481 -1.8466
  739SOL    HW2 2406   1.828   2.395   0.237 -0.9476  0.8256 -0.6428
  740SOL     OW 2407   1.062   2.805   0.497 -0.3662  0.1119  0.0865
  740SOL    HW1 2408   1.022   2.863   0.562 -0.0419  0.0812  0.3176
  740SOL    HW2 2409   0.992   2.745   0.471 -0.5864  0.3354  0.1619
  741SOL     OW 2410   1.673   1.172   4.441 -0.5735 -0.1481  0.9531
  741SOL    HW1 2411   1.751   1.155   4.493 -1.0264 -0.9491  1.3877
  741SOL    HW2 2412   1.613   1.100   4.462 -0.2335 -1.3376 -1.7406
  742SOL     OW 2413   3.563   2.316   4.090  0.0057  0.2623  0.7054
  742SOL    HW1 2414   3.578   2.367   4.169 -0.7919 -1.4189  2.0155
  742SOL    HW2 2415   3.651   2.292   4.059  0.3191  0.8449  1.1437
  743SOL     OW 2416   1.059   4.743   1.262 -0.1270  0.0884  0.1162
  743SOL    HW1 2417   1.106   4.688   1.199 -1.8101 -1.3332  0.0173
  743SOL    HW2 2418   1.089   4.711   1.348 -0.3827 -0.3168  0.0541
  744SOL     OW 2419   4.749   2.902   0.424 -0.5716 -0.3219  0.5749
  744SOL    HW1 2420   4.819   2.907   0.489 -1.0144 -0.8220  1.1037
  744SOL    HW2 2421   4.670   2.888   0.476 -0.9927 -0.2909 -0.0514
  745SOL     OW 2422   3.002   2.149   3.107  0.7365  0.8493  0.3430
  745SOL    HW1 2423   2.922   2.168   3.058  0.6954  0.2090  0.1474
  745SOL    HW2 2424   2.972   2.105   3.187  0.9696 -1.8090 -0.9006
  746SOL     OW 2425   2.247   4.282   3.018  0.2775 -0.6707  0.4424
  746SOL    HW1 2426   2.245   4.195   3.057 -0.9920 -1.9083 -2.1711
  746SOL    HW2 2427   2.272   4.268   2.927 -2.8915  1.2602 -0.9095
  747SOL     OW 2428   2.918   2.608   4.574 -0.6447 -0.0292 -0.1267
  747SOL    HW1 2429   2.841   2.654   4.605 -1.9376 -1.6962 -0.6941
  747SOL    HW2 2430   2.884   2.528   4.533  1.3519 -0.6385 -0.7466
  748SOL     OW 2431   0.846   4.407   3.816  0.0333  0.1093 -0.5352
  748SOL    HW1 2432   0.933   4.401   3.776  1.1297  1.7910  1.4100
  748SOL    HW2 2433   0.789   4.434   3.745  1.3024 -0.0229 -1.6437
  749SOL     OW 2434   1.708   2.921   0.845  0.7237  0.1251 -0.3035
  749SOL    HW1 2435   1.693   2.834   0.882 -0.4383  0.4633  0.0581
  749SOL    HW2 2436   1.784   2.910   0.789  0.8173 -1.0432  0.0279
  750SOL     OW 2437   1.018   0.922   2.974 -0.3479 -0.2276  0.0624
  750SOL    HW1 2438   1.089   0.860   2.956  0.1517  0.0834  0.8816
  750SOL    HW2 2439   1.063   1.005   2.993 -1.0337  0.7511 -2.2355
  751SOL     OW 2440   2.661   0.989   1.193  0.0916  0.1038  0.5769
  751SOL    HW1 2441   2.606   0.952   1.124  1.5512 -2.3741  0.6104
  751SOL    HW2 2442   2.626   0.952   1.274  1.4360 -1.1770  0.6319
  752SOL     OW 2443   4.469   0.352   2.081  0.6345 -0.0502  0.4024
  752SOL    HW1 2444   4.415   0.429   2.064  0.3120 -0.2794  0.3750
  752SOL    HW2 2445   4.500   0.325   1.994  1.2969  0.4418  0.4820
  753SOL     OW 2446   2.150   3.053   4.050 -0.3378 -0.4014 -0.2436
  753SOL    HW1 2447   2.113   3.126   4.001 -1.6458 -0.6130  0.3792
  753SOL    HW2 2448   2.216   3.093   4.107 -1.0752  0.3293  0.1334
  754SOL     OW 2449   1.014   3.210   0.506  0.1886  0.0794 -0.1337
  754SOL    HW1 2450   1.083   3.274   0.521  1.4380 -0.8504 -1.6646
  754SOL    HW2 2451   1.033   3.139   0.567 -0.3185  0.4532  0.4849
  755SOL     OW 2452   4.098   0.438   0.403  0.1006 -0.3270  0.7197
  755SOL    HW1 2453   4.154   0.506   0.367  0.9515 -1.9250 -1.1939
  755SOL    HW2 2454   4.044   0.483   0.468  1.3433  1.9185  0.3074
  756SOL     OW 2455   0.064   4.547   1.524  0.3907  0.2434 -0.0828
  756SOL    HW1 2456   0.137   4.606   1.507  0.8452 -0.3201 -0.1229
  756SOL    HW2 2457   0.086   4.505   1.607  0.0195  0.2062 -0.0016
  757SOL     OW 2458   1.038   1.135   1.169 -0.0446  0.4691 -0.4111
  757SOL    HW1 2459   0.958   1.185   1.181 -0.2677 -0.1279  0.8243
  757SOL    HW2 2460   1.009   1.051   1.133 -0.0120  0.1587  0.2756
  758SOL     OW 2461   2.942   3.920   1.378  0.1600  0.0667 -0.6047
  758SOL    HW1 2462   3.021   3.974   1.380  0.0635  0.2455  2.0322
  758SOL    HW2 2463   2.879   3.968   1.432 -0.3498 -2.0240  0.7539
  759SOL     OW 2464   0.673   2.674   3.779  0.5505  0.3296 -0.7437
  759SOL    HW1 2465   0.580   2.678   3.755  0.6324  0.8265 -0.9733
  759SOL    HW2 2466   0.720   2.666   3.696  0.5640 -3.4077 -0.5429
  760SOL     OW 2467   0.503   4.845   0.144 -0.5383 -1.3032  0.0106
  760SOL    HW1 2468   0.497   4.756   0.176 -2.3373 -1.2746 -0.1022
  760SOL    HW2 2469   0.544   4.837   0.058  1.2719 -1.7410  0.8716
  761SOL     OW 2470   4.327   0.019   0.224 -0.5118  0.4878 -0.4414
  761SOL    HW1 2471   4.353   0.084   0.159  0.1828  1.3025  0.6229
  761SOL    HW2 2472   4.235   0.039   0.243 -0.4199  0.8849 -0.4200
  762SOL     OW 2473   3.390   2.922   3.750 -0.0056 -0.0620  0.2588
  762SOL    HW1 2474   3.334   2.860   3.702  0.6855  0.5292 -1.3941
  762SOL    HW2 2475   3.350   2.928   3.836 -3.2866  1.2924 -1.1774
  763SOL     OW 2476   0.179   1.347   2.633 -0.0650 -0.8806  0.0613
  763SOL    HW1 2477   0.272   1.367   2.632  0.0364 -1.3405 -1.0491
  763SOL    HW2 2478   0.137   1.429   2.607  0.0398 -0.7495  0.2990
  764SOL     OW 2479   4.559   3.869   3.908  0.4070 -0.4613  0.1188
  764SOL    HW1 2480   4.646   3.899   3.881 -0.2967 -0.0353 -1.8832
  764SOL    HW2 2481   4.553   3.781   3.871  0.3532 -0.9048  1.1550
  765SOL     OW 2482   0.830   1.568   3.573  0.0522 -0.3217 -0.6182
  765SOL    HW1 2483   0.755   1.514   3.550 -1.4363  0.3008  2.3572
  765SOL    HW2 2484   0.806   1.656   3.544 -1.5449  0.3404  2.3657
  766SOL     OW 2485   4.324   3.632   2.758  0.7903  0.0094  0.2369
  766SOL    HW1 2486   4.264   3.684   2.811  1.7310  2.0013 -0.5827
  766SOL    HW2 2487   4.274   3.611   2.679  1.2233  1.9589 -0.5961
  767SOL     OW 2488   4.272   4.437   1.413 -0.1490 -0.4985 -0.3245
  767SOL    HW1 2489   4.213   4.376   1.456 -1.2209  0.4138 -0.4633
  767SOL    HW2 2490   4.246   4.436   1.321 -1.0912  1.1364 -0.1140
  768SOL     OW 2491   1.112   1.723   3.923  0.5674  0.1762 -0.4352
  768SOL    HW1 2492   1.029   1.676   3.911  2.0255 -2.9387  0.5585
  768SOL    HW2 2493   1.123   1.772   3.841 -2.1002  0.5297 -0.6782
  769SOL     OW 2494   2.182   3.345   2.234 -0.2819 -0.1143  0.2738
  769SOL    HW1 2495   2.249   3.391   2.283 -0.9168  1.2515 -0.0771
  769SOL    HW2 2496   2.168   3.264   2.282  3.2878 -1.6398 -0.9354
  770SOL     OW 2497   0.648   0.526   2.107  0.2470  0.0104 -0.2148
  770SOL    HW1 2498   0.643   0.620   2.090  1.3585 -0.1606 -1.6911
  770SOL    HW2 2499   0.724   0.517   2.165  0.9211 -0.0592 -1.0774
  771SOL     OW 2500   4.730   4.834   1.614 -0.3244  0.2447 -0.3293
  771SOL    HW1 2501   4.672   4.881   1.554 -1.2386 -0.2346  0.1622
  771SOL    HW2 2502   4.686   4.750   1.628  0.0429  0.2281  0.7591
  772SOL     OW 2503   0.254   1.150   3.904 -0.5332 -0.1438 -0.2260
  772SOL    HW1 2504   0.278   1.057   3.906 -1.3177 -0.3341  0.6156
  772SOL    HW2 2505   0.330   1.192   3.865 -0.2349 -1.1600 -0.7859
  773SOL     OW 2506   1.426   2.750   0.669 -0.4366  0.4380 -0.0153
  773SOL    HW1 2507   1.467   2.799   0.597 -0.3886  0.5963  0.1204
  773SOL    HW2 2508   1.498   2.731   0.729 -0.1147 -1.2667 -0.8695
  774SOL     OW 2509   2.518   0.280   1.877 -0.2189 -0.1929  0.1834
  774SOL    HW1 2510   2.595   0.259   1.930  0.3033  1.1657  0.0163
  774SOL    HW2 2511   2.533   0.235   1.794  0.6087  0.3385  0.0195
  775SOL     OW 2512   3.876   4.301   3.884  0.4249 -0.0648  0.0551
  775SOL    HW1 2513   3.850   4.347   3.964  1.8049  0.1773  0.3916
  775SOL    HW2 2514   3.902   4.214   3.913  0.8956  0.0112 -0.1275
  776SOL     OW 2515   3.047   1.882   2.028 -0.2787  0.1103 -0.0863
  776SOL    HW1 2516   3.127   1.835   2.049 -0.1359 -1.2005 -3.0683
  776SOL    HW2 2517   2.979   1.838   2.078  0.4502 -0.6131  0.2880
  777SOL     OW 2518   0.865   0.012   4.068 -0.5245 -0.0240  0.3969
  777SOL    HW1 2519   0.807   0.050   4.001  1.1577  0.7740 -0.6530
  777SOL    HW2 2520   0.911   0.087   4.106  1.3892 -0.7853 -0.3057
  778SOL     OW 2521   2.792   3.780   3.189 -0.0374  0.4088  0.2084
  778SOL    HW1 2522   2.731   3.778   3.262  0.1347  0.7087  0.3617
  778SOL    HW2 2523   2.746   3.828   3.120  1.1687  3.5280  1.3909
  779SOL     OW 2524   4.012   0.454   3.265 -0.5312  0.1817  0.0525
  779SOL    HW1 2525   4.003   0.507   3.186 -2.0236 -0.3584 -0.1655
  779SOL    HW2 2526   4.008   0.364   3.233  1.0787 -0.0825  0.5182
  780SOL     OW 2527   0.413   4.630   3.295  0.0689 -0.0893  0.4376
  780SOL    HW1 2528   0.372   4.701   3.244  1.5653  0.5454  0.0565
  780SOL    HW2 2529   0.503   4.660   3.308 -0.3802  0.1157  4.0908
  781SOL     OW 2530   2.654   1.131   2.742 -0.3129  0.1438 -0.1166
  781SOL    HW1 2531   2.608   1.047   2.746  0.3911 -0.2092  0.9014
  781SOL    HW2 2532   2.707   1.134   2.821 -0.1963  1.4886 -0.2113
  782SOL     OW 2533   1.228   1.608   3.329 -0.2730  0.3686 -0.5051
  782SOL    HW1 2534   1.261   1.694   3.354  0.4194 -0.5174  1.9296
  782SOL    HW2 2535   1.192   1.572   3.410  0.7428 -2.1870 -1.1196
  783SOL     OW 2536   2.816   4.681   0.594 -0.2425 -0.2192 -0.2107
  783SOL    HW1 2537   2.907   4.650   0.593  0.0064  0.4683 -1.0232
  783SOL    HW2 2538   2.789   4.674   0.685  0.8796  0.2382  0.1773
  784SOL     OW 2539   3.458   3.598   1.912  0.0399 -0.2670  0.1104
  784SOL    HW1 2540   3.474   3.624   1.821 -1.0131 -1.1531 -0.3481
  784SOL    HW2 2541   3.532   3.635   1.961  0.1283  1.0145 -0.9548
  785SOL     OW 2542   1.262   2.024   1.722  0.1134 -0.3072  0.0446
  785SOL    HW1 2543   1.196   1.955   1.727 -0.4557  0.2588  0.4638
  785SOL    HW2 2544   1.298   2.016   1.634 -0.2224 -0.8881 -0.0477
  786SOL     OW 2545   3.569   2.077   3.269 -0.0015  0.1392 -0.3262
  786SOL    HW1 2546   3.570   2.158   3.322  1.4763 -0.3425  0.4523
  786SOL    HW2 2547   3.596   2.105   3.182  0.5470  0.4885 -0.0489
  787SOL     OW 2548   0.705   0.255   2.621  0.0664  0.2705 -0.2637
  787SOL    HW1 2549   0.788   0.284   2.582  0.1077  2.7841  1.4443
  787SOL    HW2 2550   0.659   0.336   2.641 -2.0121 -1.0354  0.5374
  788SOL     OW 2551   4.133   2.941   0.771 -0.2164  0.3574  0.0901
  788SOL    HW1 2552   4.107   2.960   0.861 -0.8302 -0.7011  0.1436
  788SOL    HW2 2553   4.220   2.901   0.778  0.9097  2.6088  0.0045
  789SOL     OW 2554   4.004   4.149   4.488  0.1771 -0.5220  0.1002
  789SOL    HW1 2555   3.911   4.170   4.477  1.0566  3.9901 -0.7442
  789SOL    HW2 2556   4.048   4.197   4.418  3.2872 -1.4331  1.2581
  790SOL     OW 2557   1.070   4.402   4.641 -0.0459  0.2995  0.6790
  790SOL    HW1 2558   1.004   4.341   4.672  1.1796 -0.2149  2.4686
  790SOL    HW2 2559   1.115   4.355   4.570  0.2591 -0.5382  1.4012
  791SOL     OW 2560   1.875   3.030   4.822  0.2609 -0.1421  0.1068
  791SOL    HW1 2561   1.825   3.091   4.875  0.6242  0.5837 -0.3709
  791SOL    HW2 2562   1.934   3.085   4.770 -0.3884 -0.7837 -1.3808
  792SOL     OW 2563   0.224   4.142   2.626 -0.3875 -0.2774  0.0668
  792SOL    HW1 2564   0.183   4.081   2.565  0.3643 -0.3749 -0.3566
  792SOL    HW2 2565   0.228   4.225   2.578  1.0271 -0.5749 -0.3924
  793SOL     OW 2566   4.393   0.479   1.585 -0.3609  0.3016  0.3642
  793SOL    HW1 2567   4.352   0.433   1.658  0.2574  1.3088  1.3663
  793SOL    HW2 2568   4.324   0.533   1.548 -0.9342 -0.9487 -0.4389
  794SOL     OW 2569   4.497   4.742   0.616  0.9130 -0.3828  0.6835
  794SOL    HW1 2570   4.408   4.707   0.612  1.4264 -1.7292 -3.5125
  794SOL    HW2 2571   4.551   4.669   0.644  0.8764  0.1768  2.3156
  795SOL     OW 2572   1.734   4.415   1.831  0.6646 -0.2137  0.2392
  795SOL    HW1 2573   1.712   4.487   1.772 -0.2335 -0.2000  0.5731
  795SOL    HW2 2574   1.829   4.421   1.842  0.5330  1.4084  0.8689
  796SOL     OW 2575   0.446   0.645   0.954 -0.0288 -0.0761  0.6324
  796SOL    HW1 2576   0.511   0.624   0.888 -0.5205  0.8205 -0.1773
  796SOL    HW2 2577   0.371   0.589   0.933 -0.5721  0.9395 -0.2464
  797SOL     OW 2578   1.126   4.502   0.049  0.0081  0.3472  0.3166
  797SOL    HW1 2579   1.162   4.413   0.047  0.4576  0.5332 -0.0665
  797SOL    HW2 2580   1.198   4.556   0.082  0.8234  1.0303 -2.3060
  798SOL     OW 2581   1.542   4.145   0.248 -0.2796 -0.0383  0.0106
  798SOL    HW1 2582   1.500   4.096   0.319 -1.0012 -0.8212 -0.9391
  798SOL    HW2 2583   1.635   4.125   0.257 -0.5297 -1.3774 -0.1922
  799SOL     OW 2584   0.516   1.082   3.315  0.2015  0.8011 -0.4583
  799SOL    HW1 2585   0.466   1.099   3.395 -2.2183 -0.4265 -1.5898
  799SOL    HW2 2586   0.464   1.017   3.268  2.6460 -0.1328 -2.0570
  800SOL     OW 2587   1.721   2.714   1.854  0.5487  0.6109  0.1993
  800SOL    HW1 2588   1.813   2.737   1.866  0.7215  0.5029 -0.7982
  800SOL    HW2 2589   1.708   2.635   1.907  1.3460 -0.0548 -0.5746
  801SOL     OW 2590   2.928   4.093   1.856  0.0567 -0.1861  0.1503
  801SOL    HW1 2591   2.853   4.132   1.811 -0.5965  1.1177  2.2146
  801SOL    HW2 2592   2.890   4.024   1.910  0.6199 -0.7348 -0.1400
  802SOL     OW 2593   2.616   0.168   4.901 -0.0947  0.2448  0.6105
  802SOL    HW1 2594   2.562   0.090   4.903  0.2488  0.0008  2.3009
  802SOL    HW2 2595   2.652   0.175   4.990  0.6309  1.7939  0.2441
  803SOL     OW 2596   4.936   4.733   1.055  0.1755 -0.0024 -0.4402
  803SOL    HW1 2597   4.881   4.680   0.997 -1.3563  0.2725  0.6893
  803SOL    HW2 2598   4.909   4.707   1.143  1.8372  0.2144  0.1595
  804SOL     OW 2599   2.101   1.025   1.218  0.7748 -0.1367 -0.0978
  804SOL    HW1 2600   2.020   1.069   1.244  0.0365 -1.0546 -0.7350
  804SOL    HW2 2601   2.171   1.086   1.241 -0.1905  1.3112 -0.8424
  805SOL     OW 2602   3.251   4.298   1.138 -0.3428 -1.1375  0.3042
  805SOL    HW1 2603   3.193   4.372   1.156  0.4689  0.1878 -2.1232
  805SOL    HW2 2604   3.332   4.319   1.183 -0.5322 -1.1659  0.6576
  806SOL     OW 2605   1.149   0.639   1.745  0.3488 -0.2591  0.1141
  806SOL    HW1 2606   1.156   0.700   1.672  0.6026 -1.7113 -1.1419
  806SOL    HW2 2607   1.063   0.657   1.783  0.5269  1.0294 -0.0504
  807SOL     OW 2608   2.764   4.167   2.461  0.0504 -0.1620 -0.2364
  807SOL    HW1 2609   2.783   4.260   2.450  0.5338 -0.2568 -0.2408
  807SOL    HW2 2610   2.688   4.151   2.406  0.1576  0.1674 -0.4841
  808SOL     OW 2611   2.529   2.169   3.770  0.4061  0.9444  0.1289
  808SOL    HW1 2612   2.610   2.139   3.729  0.8547 -0.3450  1.8417
  808SOL    HW2 2613   2.558   2.217   3.847 -0.3974  3.9346 -1.2722
  809SOL     OW 2614   4.294   1.171   4.151  0.1802 -0.0167 -0.6127
  809SOL    HW1 2615   4.284   1.195   4.243  1.9474 -0.1131 -0.3642
  809SOL    HW2 2616   4.210   1.130   4.127  0.6263 -2.5446  1.7426
  810SOL     OW 2617   0.139   2.432   2.092 -0.0794 -0.2700 -0.1387
  810SOL    HW1 2618   0.076   2.470   2.153 -0.1635  1.0113 -0.9806
  810SOL    HW2 2619   0.150   2.341   2.121  0.2059  0.4039  2.0228
  811SOL     OW 2620   1.970   0.639   0.859 -0.2738  0.1917  0.4958
  811SOL    HW1 2621   1.917   0.628   0.939 -1.6845  2.3355 -0.0459
  811SOL    HW2 2622   1.947   0.727   0.828  3.0137  0.8836 -0.2912
  812SOL     OW 2623   4.084   1.941   2.774 -0.0317  0.0222 -0.1891
  812SOL    HW1 2624   4.114   1.984   2.694 -0.8523  3.1028  1.0271
  812SOL    HW2 2625   4.163   1.930   2.827  0.2974 -0.7053 -0.8217
  813SOL     OW 2626   0.872   0.833   3.194 -0.4057 -0.3354 -0.2952
  813SOL    HW1 2627   0.903   0.864   3.109  0.9897 -1.6088 -0.2764
  813SOL    HW2 2628   0.873   0.912   3.249  0.4369  0.1552 -0.9803
  814SOL     OW 2629   1.847   4.763   0.591  0.4182  0.6389  0.2910
  814SOL    HW1 2630   1.887   4.729   0.671  1.4470 -0.2592 -0.5747
  814SOL    HW2 2631   1.782   4.826   0.622  2.3685  2.0720  1.7953
  815SOL     OW 2632   3.872   2.056   4.359 -0.3911  0.1976  0.6358
  815SOL    HW1 2633   3.840   2.053   4.269 -0.8702  0.8646  0.7777
  815SOL    HW2 2634   3.853   1.969   4.394 -0.4471  0.0230  0.1767
  816SOL     OW 2635   1.517   1.875   3.233  1.0352 -0.0108  0.5344
  816SOL    HW1 2636   1.421   1.877   3.241  1.0979  1.7944  1.3663
  816SOL    HW2 2637   1.543   1.791   3.271 -0.2445 -0.7600 -0.1851
  817SOL     OW 2638   0.287   0.292   1.890  0.1356  0.3364  0.0112
  817SOL    HW1 2639   0.298   0.358   1.959  1.2837  1.0670 -0.8468
  817SOL    HW2 2640   0.275   0.342   1.810 -0.7064 -0.5156 -0.4278
  818SOL     OW 2641   1.672   0.398   4.329  0.2209 -0.0142  0.5216
  818SOL    HW1 2642   1.722   0.389   4.248 -0.6823  0.3393 -0.0836
  818SOL    HW2 2643   1.725   0.458   4.383  0.0351  1.0837 -0.4680
  819SOL     OW 2644   0.069   4.764   3.367  0.2913 -0.3432 -0.1606
  819SOL    HW1 2645  -0.020   4.797   3.353  0.4602 -0.0644 -0.6088
  819SOL    HW2 2646   0.061   4.669   3.357 -0.5743 -0.7300  3.0246
  820SOL     OW 2647   3.144   2.121   1.031 -0.4302  0.1812 -0.3745
  820SOL    HW1 2648   3.049   2.116   1.037 -0.3210 -1.6330  0.2518
  820SOL    HW2 2649   3.163   2.110   0.938 -0.8703  1.9978 -0.7108
  821SOL     OW 2650   1.203   4.301   4.015 -0.2909 -0.7172  0.1145
  821SOL    HW1 2651   1.152   4.220   4.015 -1.9106  0.2715 -0.2762
  821SOL    HW2 2652   1.238   4.308   3.926 -1.7302 -0.0568 -0.4287
  822SOL     OW 2653   0.197   1.804   3.747  0.6465 -0.5998  0.4874
  822SOL    HW1 2654   0.172   1.814   3.839 -0.0134 -1.5523  0.4231
  822SOL    HW2 2655   0.287   1.773   3.751  0.9273  0.2122  0.7810
  823SOL     OW 2656   3.710   0.002   4.194 -0.4066  0.3301  0.1303
  823SOL    HW1 2657   3.729  -0.091   4.207  0.9020  0.8376  2.2601
  823SOL    HW2 2658   3.614   0.007   4.196 -0.4896 -0.9424  0.1634
  824SOL     OW 2659   4.041   3.047   2.875  0.4197  0.5211  0.0322
  824SOL    HW1 2660   4.048   2.983   2.946  0.0564 -0.4418 -0.7590
  824SOL    HW2 2661   3.947   3.055   2.860  0.4771  1.0755 -0.0198
  825SOL     OW 2662   3.791   2.309   3.503 -0.5874  0.0403  0.2496
  825SOL    HW1 2663   3.874   2.287   3.461 -1.9157 -1.1018 -1.9678
  825SOL    HW2 2664   3.765   2.230   3.549 -0.7386  0.1855  0.4154
  826SOL     OW 2665   1.781   2.366   2.828 -0.1150  0.4530  0.1687
  826SOL    HW1 2666   1.857   2.310   2.837  0.8621  1.5677 -0.7079
  826SOL    HW2 2667   1.805   2.447   2.873 -1.0279  0.5928  0.4193
  827SOL     OW 2668   4.598   1.200   1.507 -0.6709 -0.2255 -0.1710
  827SOL    HW1 2669   4.649   1.274   1.476  0.7565 -1.1235 -0.0575
  827SOL    HW2 2670   4.615   1.131   1.443  2.1229 -2.0360  2.2892
  828SOL     OW 2671   3.533   0.053   4.645 -0.8660  0.2648 -0.1980
  828SOL    HW1 2672   3.534  -0.034   4.685  1.8933 -0.1034 -0.8528
  828SOL    HW2 2673   3.472   0.045   4.572  0.7158 -1.7733 -1.4128
  829SOL     OW 2674   2.449   2.589   3.225  0.2497 -0.5831 -0.4364
  829SOL    HW1 2675   2.370   2.540   3.245 -1.6860  1.6588 -1.9786
  829SOL    HW2 2676   2.445   2.605   3.130  0.3366  2.9678  0.0037
  830SOL     OW 2677   0.254   0.195   0.578  0.0090  0.5085  0.2255
  830SOL    HW1 2678   0.273   0.128   0.513  0.2850  1.4449 -0.6794
  830SOL    HW2 2679   0.161   0.182   0.600  0.3214 -0.8224  0.8550
  831SOL     OW 2680   3.633   3.361   1.091 -0.1435  0.1009 -0.1252
  831SOL    HW1 2681   3.656   3.305   1.017 -0.3982  0.8767 -0.8106
  831SOL    HW2 2682   3.698   3.341   1.157 -0.7806 -1.6906  0.0178
  832SOL     OW 2683   3.671   2.849   0.784 -0.4956  0.0498 -0.2521
  832SOL    HW1 2684   3.615   2.829   0.709  0.2733 -0.9332 -0.5934
  832SOL    HW2 2685   3.647   2.784   0.850  1.2124 -1.3701 -0.9383
  833SOL     OW 2686   3.311   4.534   1.998 -0.2430  0.2007 -0.1684
  833SOL    HW1 2687   3.366   4.583   1.937 -1.0087  0.8205 -0.3871
  833SOL    HW2 2688   3.318   4.443   1.968 -0.7385  0.5172 -1.3111
  834SOL     OW 2689   1.825   4.423   3.917  0.1200  0.1132 -0.0433
  834SOL    HW1 2690   1.802   4.358   3.851  0.5831  0.5137 -0.6112
  834SOL    HW2 2691   1.912   4.455   3.891 -0.5890  1.8032 -0.4496
  835SOL     OW 2692   1.402   0.457   4.573  0.3395 -0.1023 -0.2013
  835SOL    HW1 2693   1.395   0.361   4.578  0.8858 -0.2549 -1.7557
  835SOL    HW2 2694   1.399   0.476   4.479  0.8551  1.3671  0.0613
  836SOL     OW 2695   0.711   3.138   2.244 -0.1961  0.2872 -0.2178
  836SOL    HW1 2696   0.764   3.208   2.205  0.9713  0.3660  1.4384
  836SOL    HW2 2697   0.749   3.124   2.331 -3.1897  0.6742  1.2601
  837SOL     OW 2698   0.866   0.175   0.361  0.2272  0.2793  0.0316
  837SOL    HW1 2699   0.867   0.122   0.440 -1.5572  1.2790  0.7879
  837SOL    HW2 2700   0.784   0.152   0.317  1.1157 -0.1594 -1.4803
  838SOL     OW 2701   1.810   2.397   2.551  0.6688 -0.2132 -0.1304
  838SOL    HW1 2702   1.784   2.489   2.557 -1.0069 -0.5976 -0.9051
  838SOL    HW2 2703   1.827   2.370   2.642  0.6197  0.6923  0.1512
  839SOL     OW 2704   3.635   3.052   2.083 -0.7561  0.3567 -0.4819
  839SOL    HW1 2705   3.613   2.986   2.150 -2.6845  1.8026  0.4103
  839SOL    HW2 2706   3.577   3.033   2.010  0.0450 -0.0812 -1.0189
  840SOL     OW 2707   2.884   3.150   1.163 -0.0481  0.1677  0.4311
  840SOL    HW1 2708   2.934   3.197   1.096 -2.8240  0.4162 -1.6155
  840SOL    HW2 2709   2.870   3.214   1.232  3.5166 -0.3091  1.8322
  841SOL     OW 2710   4.920   4.330   2.148 -0.1198 -0.7197  0.0169
  841SOL    HW1 2711   4.987   4.269   2.118 -0.7065 -1.0468 -0.6523
  841SOL    HW2 2712   4.970   4.404   2.183  0.6420  0.0464 -2.4516
  842SOL     OW 2713   1.880   3.222   3.662 -0.4600  0.2380 -0.3477
  842SOL    HW1 2714   1.876   3.291   3.728  0.8415  1.4165 -1.4212
  842SOL    HW2 2715   1.791   3.189   3.655 -1.1774  1.9927  0.0427
  843SOL     OW 2716   0.436   4.252   3.376 -0.1465 -0.4353 -0.1609
  843SOL    HW1 2717   0.366   4.187   3.374  0.5928 -1.2412 -1.1183
  843SOL    HW2 2718   0.395   4.331   3.412 -1.1239 -1.3518  0.8145
  844SOL     OW 2719   1.919   1.799   4.136 -0.4173 -0.1280 -0.6283
  844SOL    HW1 2720   1.984   1.795   4.207  0.8616  1.2824 -1.6662
  844SOL    HW2 2721   1.843   1.841   4.176  0.5344  1.2788 -0.2269
  845SOL     OW 2722   0.616   0.757   3.068  0.3186 -0.4219 -0.0393
  845SOL    HW1 2723   0.584   0.679   3.114  0.7917  0.1652  1.3546
  845SOL    HW2 2724   0.700   0.776   3.111  0.4230  0.5822 -0.6768
  846SOL     OW 2725   2.186   4.235   1.063 -0.0126 -0.0298 -0.7499
  846SOL    HW1 2726   2.212   4.202   0.977  1.0968  2.8021 -1.6125
  846SOL    HW2 2727   2.203   4.329   1.059 -0.3548  0.2789  2.4339
  847SOL     OW 2728   0.032   3.999   1.847  0.5141 -0.0716 -0.2706
  847SOL    HW1 2729   0.107   3.941   1.840  0.0796 -0.6067 -0.5324
  847SOL    HW2 2730   0.038   4.036   1.935  0.5797 -0.8050  0.0382
  848SOL     OW 2731   3.415   2.756   2.768 -0.1991  0.4469 -0.0604
  848SOL    HW1 2732   3.510   2.739   2.763 -0.5321 -1.2969 -1.4020
  848SOL    HW2 2733   3.409   2.849   2.791  1.8330  0.5615  0.2096
  849SOL     OW 2734   2.302   1.102   4.131  0.3608  0.5982 -0.3957
  849SOL    HW1 2735   2.307   1.007   4.143 -0.5685  0.4916 -0.7727
  849SOL    HW2 2736   2.393   1.132   4.134  0.5303  0.0129  2.1502
  850SOL     OW 2737   0.395   1.729   3.976  0.6709 -0.1174 -0.4594
  850SOL    HW1 2738   0.378   1.641   4.009  1.8701 -0.0967  0.2870
  850SOL    HW2 2739   0.444   1.716   3.895  0.9412 -0.1476 -0.2937
  851SOL     OW 2740   2.251   2.600   0.890 -0.1449 -0.4199  0.8391
  851SOL    HW1 2741   2.159   2.580   0.872 -0.5658  1.0451  1.2105
  851SOL    HW2 2742   2.272   2.674   0.832  1.3844 -1.9014 -0.6128
  852SOL     OW 2743   1.820   4.697   1.106 -0.0656 -0.0904 -0.0261
  852SOL    HW1 2744   1.825   4.677   1.200 -0.3018  1.9867  0.4760
  852SOL    HW2 2745   1.727   4.714   1.090 -0.2300 -1.6999 -0.9548
  853SOL     OW 2746   3.615   1.821   2.071 -0.2091  0.4521 -0.0748
  853SOL    HW1 2747   3.587   1.912   2.068  1.1911  1.0189  1.7581
  853SOL    HW2 2748   3.618   1.800   2.165  0.6130 -1.0899 -0.4059
  854SOL     OW 2749   1.459   0.448   3.872 -0.0797 -0.1707  0.4188
  854SOL    HW1 2750   1.541   0.403   3.854 -0.1419  0.0002 -0.3151
  854SOL    HW2 2751   1.424   0.469   3.786 -0.5214  0.4338  0.7424
  855SOL     OW 2752   4.569   2.658   3.145  0.2780 -0.1261 -0.0915
  855SOL    HW1 2753   4.483   2.693   3.168  0.7428  0.9878  0.0420
  855SOL    HW2 2754   4.559   2.622   3.058 -0.4265 -0.3718  0.0921
  856SOL     OW 2755   3.442   1.190   4.112  0.5337  0.1002  0.4624
  856SOL    HW1 2756   3.433   1.285   4.107  0.1126  0.0907  0.9607
  856SOL    HW2 2757   3.421   1.169   4.202 -1.6788 -0.6999 -0.1640
  857SOL     OW 2758   0.592   3.628   1.172  0.0174  0.0902  0.3554
  857SOL    HW1 2759   0.523   3.562   1.175 -0.1817  0.2586  3.3414
  857SOL    HW2 2760   0.664   3.589   1.222  0.9174  1.0930 -0.1259
  858SOL     OW 2761   3.312   3.452   0.828  0.2407 -0.2858 -0.3165
  858SOL    HW1 2762   3.270   3.449   0.914  0.6831  0.6353 -0.0549
  858SOL    HW2 2763   3.272   3.380   0.779 -1.1267  0.1297  0.1500
  859SOL     OW 2764   3.676   4.711   0.715 -0.3990 -0.2260 -0.5906
  859SOL    HW1 2765   3.644   4.716   0.805 -0.1559 -1.6563 -0.3960
  859SOL    HW2 2766   3.767   4.683   0.724 -0.4774 -0.7207 -1.2839
  860SOL     OW 2767   2.211   4.831   3.186  0.0876  0.1440 -0.0354
  860SOL    HW1 2768   2.288   4.863   3.139  0.6208  1.9259  1.8700
  860SOL    HW2 2769   2.180   4.757   3.135  1.2740  1.2560 -2.5128
  861SOL     OW 2770   0.045   2.113   3.836 -0.2473  0.0672 -0.1899
  861SOL    HW1 2771  -0.008   2.094   3.759  0.2904  0.1410 -0.5896
  861SOL    HW2 2772   0.131   2.134   3.800  0.3670 -1.1631  0.4941
  862SOL     OW 2773   0.171   3.104   0.016 -0.1835  0.6323 -0.1466
  862SOL    HW1 2774   0.123   3.028   0.047  0.8375 -0.7246 -1.7404
  862SOL    HW2 2775   0.103   3.172   0.005 -1.6516 -0.9824 -1.6056
  863SOL     OW 2776   4.170   4.436   1.736  0.3262 -0.2688 -0.3634
  863SOL    HW1 2777   4.180   4.356   1.686 -0.5184 -1.4597  1.2712
  863SOL    HW2 2778   4.216   4.419   1.818  0.1330  0.9227  0.0143
  864SOL     OW 2779   3.116   0.481   4.914  0.1846 -0.0457 -0.2665
  864SOL    HW1 2780   3.116   0.428   4.993  1.0243  0.0797 -0.1693
  864SOL    HW2 2781   3.026   0.510   4.904  0.0257 -0.2475  0.5241
  865SOL     OW 2782   2.847   4.613   1.028  0.3344  0.4795 -0.2262
  865SOL    HW1 2783   2.818   4.634   1.116  0.8340 -1.2578  0.3932
  865SOL    HW2 2784   2.813   4.684   0.973 -1.2367  0.8138  1.1303
  866SOL     OW 2785   0.699   0.545   3.715  0.3743  0.5266 -0.3509
  866SOL    HW1 2786   0.745   0.494   3.648 -0.5511  1.1178 -1.4740
  866SOL    HW2 2787   0.612   0.505   3.721  0.1142  1.0941 -0.2236
  867SOL     OW 2788   2.274   2.850   0.767  0.7090 -0.1906 -0.1430
  867SOL    HW1 2789   2.229   2.916   0.820 -0.8872 -0.8823 -0.5731
  867SOL    HW2 2790   2.321   2.900   0.701  0.5847  0.5701  0.3323
  868SOL     OW 2791   2.661   4.168   4.557  0.1000 -0.3181 -0.3809
  868SOL    HW1 2792   2.581   4.148   4.508 -0.1877 -0.2041  0.0412
  868SOL    HW2 2793   2.654   4.117   4.637  0.7126 -0.7306 -0.5836
  869SOL     OW 2794   0.241   2.590   0.529 -0.3617 -0.4939  0.1848
  869SOL    HW1 2795   0.330   2.569   0.500 -0.1968  0.1694  0.1923
  869SOL    HW2 2796   0.205   2.507   0.560  0.3521 -0.7160  0.4317
  870SOL     OW 2797   0.158   1.048   0.715  0.0977  0.8359 -0.2858
  870SOL    HW1 2798   0.187   0.965   0.753 -0.8855 -0.2089 -1.6993
  870SOL    HW2 2799   0.238   1.090   0.685  0.5248 -0.2067 -0.6741
  871SOL     OW 2800   0.464   1.015   4.840 -0.0370 -0.1395  0.2403
  871SOL    HW1 2801   0.557   1.002   4.822  0.1805  1.8209 -0.2884
  871SOL    HW2 2802   0.432   0.929   4.865  1.8761 -0.8922  0.2431
  872SOL     OW 2803   4.626   1.285   4.090  0.3678 -0.5079  0.2054
  872SOL    HW1 2804   4.667   1.355   4.039 -1.4496  0.4308 -0.0600
  872SOL    HW2 2805   4.621   1.211   4.029 -0.3305  0.0941 -0.4943
  873SOL     OW 2806   3.022   0.597   1.974 -0.2006  0.2579  0.3114
  873SOL    HW1 2807   2.966   0.646   2.034  0.2387  0.0709  0.8856
  873SOL    HW2 2808   3.013   0.642   1.890  0.7505  1.7757  0.9771
  874SOL     OW 2809   2.854   2.941   0.959  0.0459 -0.8502  0.1859
  874SOL    HW1 2810   2.915   2.874   0.990 -1.5500 -1.8660  1.2100
  874SOL    HW2 2811   2.844   3.001   1.033  0.6483 -0.0185 -0.3725
  875SOL     OW 2812   4.270   3.199   1.554 -0.2818  0.1877  0.6127
  875SOL    HW1 2813   4.251   3.105   1.554  0.8688 -0.0766 -0.8064
  875SOL    HW2 2814   4.233   3.230   1.637 -2.1186 -1.2004  0.4070
  876SOL     OW 2815   2.091   1.613   1.608  0.0876 -0.2565  0.3481
  876SOL    HW1 2816   2.187   1.605   1.610  0.1606  0.1285 -0.7997
  876SOL    HW2 2817   2.069   1.655   1.691  0.8894 -0.5570  0.7275
  877SOL     OW 2818   3.187   4.138   3.886 -0.1196 -0.0716  0.6717
  877SOL    HW1 2819   3.243   4.067   3.855 -2.0059 -1.4474  0.3151
  877SOL    HW2 2820   3.101   4.099   3.898 -1.2252  2.1476  0.5395
  878SOL     OW 2821   3.215   3.121   3.100 -0.0262 -0.9866  0.3065
  878SOL    HW1 2822   3.252   3.184   3.038  1.5026 -2.0231  0.1083
  878SOL    HW2 2823   3.191   3.174   3.176  2.7888 -0.3134  0.8456
  879SOL     OW 2824   4.245   1.917   1.017  0.3040  0.4199  0.2461
  879SOL    HW1 2825   4.272   1.886   0.931 -1.2126 -0.0336 -0.0966
  879SOL    HW2 2826   4.246   1.838   1.072 -0.6504  0.3005  0.1213
  880SOL     OW 2827   1.519   2.613   4.368  0.6745  0.2072 -0.3304
  880SOL    HW1 2828   1.578   2.664   4.423  1.7319 -0.4021 -0.8712
  880SOL    HW2 2829   1.569   2.597   4.288  1.1341 -3.1997  0.4735
  881SOL     OW 2830   1.416   3.816   2.815  0.2006 -0.6433 -0.5082
  881SOL    HW1 2831   1.476   3.888   2.829 -0.5130  0.1548 -1.3887
  881SOL    HW2 2832   1.336   3.840   2.862 -0.1620 -0.6786 -1.0875
  882SOL     OW 2833   1.318   0.088   4.326 -0.1942 -0.1558  0.3441
  882SOL    HW1 2834   1.250   0.127   4.382 -0.7672 -1.3109  0.4853
  882SOL    HW2 2835   1.400   0.115   4.366 -0.5902 -0.7769  1.6580
  883SOL     OW 2836   0.953   4.386   0.867 -0.2558  0.1469  0.0869
  883SOL    HW1 2837   1.036   4.341   0.851  0.6879  1.2735  1.5306
  883SOL    HW2 2838   0.964   4.471   0.824 -1.2011 -0.1630 -0.8172
  884SOL     OW 2839   4.833   4.061   2.916 -0.2397 -0.7728 -0.0158
  884SOL    HW1 2840   4.809   4.036   2.827  0.9343 -1.6129 -0.1092
  884SOL    HW2 2841   4.904   4.002   2.940  0.7359  0.6645  0.7964
  885SOL     OW 2842   0.984   4.261   4.423  0.2107 -0.0478  0.1099
  885SOL    HW1 2843   0.909   4.201   4.424  0.8985 -1.0103  2.5331
  885SOL    HW2 2844   0.945   4.348   4.426 -0.8177 -0.4959  0.0669
  886SOL     OW 2845   0.060   1.457   0.533 -0.3924 -0.1685  0.0581
  886SOL    HW1 2846   0.044   1.478   0.441 -1.8775  1.5322  0.6539
  886SOL    HW2 2847  -0.014   1.401   0.558 -0.6554  0.3662  0.5063
  887SOL     OW 2848   4.137   1.829   3.679 -0.3566 -0.0566  0.6759
  887SOL    HW1 2849   4.217   1.880   3.689  1.0396 -1.6599 -1.4139
  887SOL    HW2 2850   4.073   1.890   3.643  0.5421  0.7771  0.4601
  888SOL     OW 2851   4.628   0.152   2.195 -0.0639 -0.4028  0.7426
  888SOL    HW1 2852   4.695   0.135   2.128  1.7700  1.0548  2.0716
  888SOL    HW2 2853   4.586   0.233   2.165 -1.7807 -1.6669 -0.4316
  889SOL     OW 2854   0.214   4.875   2.412 -0.4887 -0.2151 -0.4771
  889SOL    HW1 2855   0.129   4.919   2.405 -0.2825 -0.0465 -2.7106
  889SOL    HW2 2856   0.233   4.846   2.323  0.9601 -1.8841  0.3213
  890SOL     OW 2857   2.286   2.373   4.427  0.1933  0.1743  0.7331
  890SOL    HW1 2858   2.235   2.300   4.392  1.6232 -0.6790  0.3539
  890SOL    HW2 2859   2.264   2.447   4.370  1.5127 -0.8846 -1.2795
  891SOL     OW 2860   0.534   1.341   4.656  0.8378 -0.5847 -1.0270
  891SOL    HW1 2861   0.586   1.300   4.724  0.1013 -2.2309 -1.3920
  891SOL    HW2 2862   0.551   1.435   4.665  1.1136 -0.7958  1.0987
  892SOL     OW 2863   0.277   0.116   4.672 -0.2768 -0.1763  0.0120
  892SOL    HW1 2864   0.310   0.162   4.749  0.0769  0.2850 -0.4116
  892SOL    HW2 2865   0.194   0.079   4.701  0.9531 -2.0714  1.3477
  893SOL     OW 2866   0.798   3.795   2.691  1.1490 -0.2998 -0.1625
  893SOL    HW1 2867   0.888   3.789   2.722  0.4464 -0.6649  1.9792
  893SOL    HW2 2868   0.750   3.836   2.763 -0.4847 -0.5210 -1.0662
  894SOL     OW 2869   2.350   0.075   0.051 -0.2778 -0.4163  0.0272
  894SOL    HW1 2870   2.313   0.048   0.135 -1.9375 -1.5561 -0.9988
  894SOL    HW2 2871   2.347  -0.005  -0.003  1.8620 -0.0255 -0.7582
  895SOL     OW 2872   3.678   3.858   1.168 -0.5553  0.2178  1.0298
  895SOL    HW1 2873   3.766   3.827   1.147 -0.7225  1.5404 -2.2182
  895SOL    HW2 2874   3.624   3.780   1.167 -0.2302 -0.1164 -2.4886
  896SOL     OW 2875   2.399   0.540   0.034 -0.3369  0.1741 -0.1791
  896SOL    HW1 2876   2.342   0.463   0.025  0.6485 -0.4655 -1.0823
  896SOL    HW2 2877   2.351   0.610  -0.010 -0.1368 -0.5217 -1.5275
  897SOL     OW 2878   0.597   0.637   0.419 -0.1347 -0.4934 -0.2097
  897SOL    HW1 2879   0.682   0.667   0.388  0.0951  0.2174  1.0498
  897SOL    HW2 2880   0.566   0.577   0.351  1.4982 -1.0007 -0.5348
  898SOL     OW 2881   3.242   0.306   1.196  0.1362 -0.1968 -0.2517
  898SOL    HW1 2882   3.168   0.363   1.174  0.3769 -0.2522 -1.2645
  898SOL    HW2 2883   3.315   0.341   1.145  0.6319 -0.5729  0.1917
  899SOL     OW 2884   4.793   3.910   3.198 -0.0341 -0.1688  0.0487
  899SOL    HW1 2885   4.881   3.872   3.197 -0.0305 -0.1503 -0.7090
  899SOL    HW2 2886   4.786   3.957   3.115  0.1472  1.9464  1.1709
  900SOL     OW 2887   2.615   3.907   0.525 -0.4273 -0.3226  0.1263
  900SOL    HW1 2888   2.623   3.877   0.616 -0.8501 -0.7276  0.0363
  900SOL    HW2 2889   2.525   3.938   0.518  0.3237  2.1388  0.5424
  901SOL     OW 2890   1.957   1.063   1.583 -0.3000  0.3880 -0.3106
  901SOL    HW1 2891   1.864   1.067   1.564 -0.3327  2.8320 -0.0052
  901SOL    HW2 2892   1.995   1.135   1.533  1.2687  0.0818  0.3697
  902SOL     OW 2893   0.739   4.130   0.605 -0.3695 -0.3420  0.3724
  902SOL    HW1 2894   0.676   4.057   0.609 -2.0066  0.9418 -0.5032
  902SOL    HW2 2895   0.812   4.095   0.555 -1.0052 -1.4636  0.1807
  903SOL     OW 2896   1.576   0.092   2.961  0.3600 -0.0770 -0.3734
  903SOL    HW1 2897   1.513   0.156   2.928 -1.1612 -1.4567 -0.2735
  903SOL    HW2 2898   1.637   0.144   3.013 -0.9031  1.2817 -0.1715
  904SOL     OW 2899   1.088   4.404   3.201 -0.2109  0.5379 -0.2596
  904SOL    HW1 2900   1.077   4.310   3.188  0.2070  0.1884  1.6322
  904SOL    HW2 2901   1.021   4.428   3.265  0.6829  1.1928  0.4700
  905SOL     OW 2902   0.967   3.635   1.236 -0.5205 -0.1573 -0.4505
  905SOL    HW1 2903   0.945   3.583   1.158 -0.8910 -1.4265  0.4799
  905SOL    HW2 2904   0.950   3.577   1.310  0.0771  0.9388  0.5864
  906SOL     OW 2905   3.423   4.014   0.636 -0.6719  0.9843  0.1191
  906SOL    HW1 2906   3.434   4.108   0.652  0.7707  1.0086 -0.8764
  906SOL    HW2 2907   3.477   3.972   0.702  0.7489  0.9472 -1.0236
  907SOL     OW 2908   3.154   0.285   4.090 -0.2608 -0.0214  0.0168
  907SOL    HW1 2909   3.154   0.199   4.049  0.5919 -0.1833  0.3234
  907SOL    HW2 2910   3.129   0.346   4.020  0.8589 -0.3221 -0.6651
  908SOL     OW 2911   4.386   2.894   2.847 -0.3249 -0.0641  0.4483
  908SOL    HW1 2912   4.316   2.832   2.831  0.2320 -1.3795  2.7084
  908SOL    HW2 2913   4.384   2.909   2.941  1.9385  0.4668  0.4637
  909SOL     OW 2914   1.069   3.846   4.853  0.7542 -0.0676 -0.1292
  909SOL    HW1 2915   1.000   3.909   4.873 -0.0036 -0.5264 -1.1859
  909SOL    HW2 2916   1.106   3.878   4.771  0.1954 -1.1181 -0.8056
  910SOL     OW 2917   0.687   4.644   2.946 -0.5189  0.1416 -0.3624
  910SOL    HW1 2918   0.652   4.560   2.916  0.8551 -0.7362  0.4047
  910SOL    HW2 2919   0.610   4.690   2.981 -0.9384 -1.8555  1.5794
  911SOL     OW 2920   2.417   3.743   4.540  0.3271  0.7167  0.2288
  911SOL    HW1 2921   2.470   3.722   4.463 -0.5299 -0.2605 -0.1213
  911SOL    HW2 2922   2.479   3.781   4.602  1.1971  0.7149 -0.6165
  912SOL     OW 2923   1.446   2.100   4.704  0.2660  0.1537  0.0820
  912SOL    HW1 2924   1.516   2.120   4.766  0.4330  2.0229 -0.6478
  912SOL    HW2 2925   1.489   2.103   4.618 -0.7304  1.6963 -0.4090
  913SOL     OW 2926   3.954   0.635   3.800  0.5986 -0.0559  0.1367
  913SOL    HW1 2927   3.986   0.601   3.717  0.7841  0.5731 -0.0512
  913SOL    HW2 2928   3.918   0.558   3.845  1.0624 -0.5069 -0.2547
  914SOL     OW 2929   0.276   1.776   3.088 -0.0523 -0.1333 -0.1689
  914SOL    HW1 2930   0.294   1.866   3.064  2.2061 -0.7833 -1.2105
  914SOL    HW2 2931   0.183   1.764   3.069 -0.2482  1.7725 -0.6008
  915SOL     OW 2932   0.065   4.437   4.725  0.1570  0.5578  0.1760
  915SOL    HW1 2933  -0.031   4.442   4.726  0.1885  1.3644 -0.3447
  915SOL    HW2 2934   0.090   4.455   4.634  0.8500  1.5847  0.5445
  916SOL     OW 2935   0.266   2.942   2.905  0.2032  0.4761  0.8898
  916SOL    HW1 2936   0.342   2.906   2.950  0.3527 -0.1164  0.1848
  916SOL    HW2 2937   0.255   3.030   2.941  0.6411  0.2131  1.6822
  917SOL     OW 2938   1.062   2.109   2.022 -0.2242  1.2148 -0.4628
  917SOL    HW1 2939   1.009   2.106   1.942 -1.3413 -1.7196  0.2301
  917SOL    HW2 2940   1.004   2.145   2.088 -0.7456 -0.0928 -0.1621
  918SOL     OW 2941   1.533   3.637   4.063  0.1154 -0.2790  0.0917
  918SOL    HW1 2942   1.557   3.684   4.143  0.4742  1.0248 -0.7411
  918SOL    HW2 2943   1.437   3.638   4.062  0.1125  0.8598 -0.1213
  919SOL     OW 2944   1.263   2.824   4.630  0.5174  0.2339 -0.0069
  919SOL    HW1 2945   1.323   2.754   4.656  0.3351 -0.0597 -0.3675
  919SOL    HW2 2946   1.253   2.814   4.536 -0.6439 -0.1727  0.1408
  920SOL     OW 2947   1.457   2.779   3.933  0.1682 -0.1199 -0.1326
  920SOL    HW1 2948   1.460   2.862   3.885 -1.8078  0.2386  0.2790
  920SOL    HW2 2949   1.397   2.724   3.883 -1.0335 -0.1429  1.2716
  921SOL     OW 2950   2.835   4.645   0.172  0.4798 -0.5906 -0.1106
  921SOL    HW1 2951   2.782   4.707   0.222  3.0679  2.3666 -0.7088
  921SOL    HW2 2952   2.801   4.652   0.082  0.0683 -0.8603  0.0233
  922SOL     OW 2953   0.443   0.155   3.260 -0.3205  0.1721 -0.1500
  922SOL    HW1 2954   0.421   0.210   3.185 -0.1005 -1.0889 -1.1896
  922SOL    HW2 2955   0.390   0.076   3.248  0.0319 -0.2241  0.8042
  923SOL     OW 2956   1.469   3.963   0.994  0.2932 -0.0514 -0.0044
  923SOL    HW1 2957   1.524   3.888   0.968  0.8815 -0.0659  1.2226
  923SOL    HW2 2958   1.383   3.924   1.011  0.2160 -0.2205 -0.7364
  924SOL     OW 2959   2.981   4.697   4.411 -0.4911  0.1618  0.1716
  924SOL    HW1 2960   2.984   4.666   4.320  0.2434 -0.6153  0.4517
  924SOL    HW2 2961   3.072   4.711   4.435 -0.6432 -0.1494  0.9672
  925SOL     OW 2962   3.591   2.025   0.656  0.2663 -0.2907 -0.0356
  925SOL    HW1 2963   3.576   2.096   0.594 -1.7248 -1.1058 -0.5808
  925SOL    HW2 2964   3.675   1.988   0.630  1.4978  1.9809  0.4414
  926SOL     OW 2965   0.386   2.482   2.545 -0.0672  0.0489 -0.2429
  926SOL    HW1 2966   0.380   2.578   2.548  1.3300  0.1343  0.4594
  926SOL    HW2 2967   0.357   2.453   2.631 -1.6993 -0.2748 -0.8589
  927SOL     OW 2968   0.110   1.594   2.482  0.3034  0.3343 -0.1431
  927SOL    HW1 2969   0.023   1.596   2.442  0.0543 -1.2804  0.2719
  927SOL    HW2 2970   0.154   1.522   2.438  0.3321 -0.9132  1.8445
  928SOL     OW 2971   4.431   1.542   4.265  0.8342  0.1920 -0.1323
  928SOL    HW1 2972   4.487   1.614   4.235  0.5260  0.4996  0.0243
  928SOL    HW2 2973   4.400   1.501   4.184  0.5373  0.6061 -0.2314
  929SOL     OW 2974   1.150   1.796   3.650 -0.6630 -0.2973 -0.1075
  929SOL    HW1 2975   1.127   1.732   3.582 -0.3874 -0.9100  0.3658
  929SOL    HW2 2976   1.083   1.864   3.642  0.6085  0.7837 -2.4614
  930SOL     OW 2977   2.125   2.817   2.731 -0.7389  0.3674  0.2212
  930SOL    HW1 2978   2.215   2.845   2.749 -0.6132  0.3576 -0.3719
  930SOL    HW2 2979   2.073   2.856   2.802 -0.0617 -0.8772  1.4555
  931SOL     OW 2980   3.962   2.981   4.658 -0.0824 -0.3546  0.1290
  931SOL    HW1 2981   3.920   3.052   4.610  1.1458  1.0082  1.0083
  931SOL    HW2 2982   4.040   2.959   4.606  0.2388 -0.1503  0.5131
  932SOL     OW 2983   4.934   1.217   3.916 -0.1978  0.1900 -0.1210
  932SOL    HW1 2984   5.013   1.165   3.901 -0.2082  0.2158 -0.2697
  932SOL    HW2 2985   4.872   1.155   3.954  0.1976  0.3924  0.8667
  933SOL     OW 2986   3.882   1.753   2.255  0.0069  0.5659 -0.1209
  933SOL    HW1 2987   3.789   1.777   2.260 -0.3568 -0.9730  1.2562
  933SOL    HW2 2988   3.890   1.708   2.170 -0.1369  2.0173 -0.9370
  934SOL     OW 2989   0.959   4.709   2.589  0.0853 -0.2054 -0.1491
  934SOL    HW1 2990   0.978   4.783   2.647  0.6637 -1.1315  0.8840
  934SOL    HW2 2991   0.863   4.708   2.583  0.0473  0.2946  0.2735
  935SOL     OW 2992   3.817   4.189   1.520 -0.1148  0.3517  0.0640
  935SOL    HW1 2993   3.786   4.261   1.465  0.1682 -0.5130 -1.2697
  935SOL    HW2 2994   3.788   4.213   1.608 -1.9199  1.0470 -0.6578
  936SOL     OW 2995   0.354   1.158   3.540  0.2519 -0.4848  0.2316
  936SOL    HW1 2996   0.320   1.241   3.507  1.0265 -0.7390 -1.2532
  936SOL    HW2 2997   0.282   1.123   3.593 -0.9195  0.1046 -0.9034
  937SOL     OW 2998   1.891   1.717   1.443  0.2408 -0.2387 -0.3108
  937SOL    HW1 2999   1.899   1.805   1.481 -0.1980 -0.4085  0.1883
  937SOL    HW2 3000   1.966   1.669   1.475  0.4190 -0.0830 -0.4902
  938SOL     OW 3001   4.096   0.623   2.591 -0.3913  0.1016 -0.1583
  938SOL    HW1 3002   4.157   0.676   2.540  0.0542  0.7507  1.0163
  938SOL    HW2 3003   4.086   0.669   2.674 -0.9058 -1.0492  0.4545
  939SOL     OW 3004   0.197   3.641   0.063  0.4255  0.0416  0.0852
  939SOL    HW1 3005   0.122   3.626   0.122 -0.8755 -0.3049 -1.5716
  939SOL    HW2 3006   0.187   3.732   0.035  1.7096  0.5694  1.2486
  940SOL     OW 3007   2.315   2.226   0.632  0.1562 -0.4659 -0.2840
  940SOL    HW1 3008   2.380   2.157   0.621 -1.1343 -1.7515 -0.1751
  940SOL    HW2 3009   2.252   2.211   0.562  1.9830  3.2583 -3.0069
  941SOL     OW 3010   3.510   2.657   1.893  0.0504  0.0661  0.6070
  941SOL    HW1 3011   3.594   2.690   1.860  0.1158 -0.8771 -0.2183
  941SOL    HW2 3012   3.520   2.562   1.894 -1.9874 -0.3321 -2.4548
  942SOL     OW 3013   0.865   3.598   3.973 -0.8606  0.1365  0.3573
  942SOL    HW1 3014   0.830   3.519   4.013 -0.7858  0.4056  0.9742
  942SOL    HW2 3015   0.825   3.670   4.023 -0.1471  0.4640  0.4768
  943SOL     OW 3016   4.170   3.770   2.184 -0.2457  0.2289  0.0215
  943SOL    HW1 3017   4.141   3.832   2.251 -0.6814 -0.0851  0.1321
  943SOL    HW2 3018   4.264   3.759   2.200 -0.5928 -0.9499  1.5369
  944SOL     OW 3019   3.918   1.674   1.581  0.4967  0.1321 -0.5842
  944SOL    HW1 3020   3.854   1.699   1.647 -2.9736 -1.4396 -3.0380
  944SOL    HW2 3021   3.923   1.749   1.522  0.5006  0.0443 -0.6959
  945SOL     OW 3022   3.408   1.632   2.963  0.0664 -0.2330  0.1044
  945SOL    HW1 3023   3.405   1.537   2.979  0.3845 -0.4395 -0.9218
  945SOL    HW2 3024   3.317   1.658   2.954  0.0190 -0.7069 -0.9411
  946SOL     OW 3025   1.060   2.499   4.829  0.1383 -0.1184  0.1201
  946SOL    HW1 3026   1.077   2.486   4.736 -0.2659 -3.6671  0.4250
  946SOL    HW2 3027   1.131   2.453   4.873 -1.2071 -0.9410  1.5200
  947SOL     OW 3028   0.363   0.638   3.069 -0.4072 -0.3860  0.6900
  947SOL    HW1 3029   0.352   0.728   3.099  1.7691  0.9680 -2.0649
  947SOL    HW2 3030   0.411   0.595   3.139  3.1530  2.1858  0.0953
  948SOL     OW 3031   3.831   1.108   3.107  0.3706  0.2881  0.2430
  948SOL    HW1 3032   3.833   1.145   3.195  1.1732  1.6827 -0.3225
  948SOL    HW2 3033   3.797   1.179   3.052 -0.6348 -0.7357 -0.5003
  949SOL     OW 3034   0.151   1.510   3.194  0.1555  0.1793 -0.5653
  949SOL    HW1 3035   0.213   1.533   3.125 -0.3615 -0.1468 -1.1429
  949SOL    HW2 3036   0.192   1.542   3.275  0.4133  1.2477 -1.1063
  950SOL     OW 3037   0.132   4.523   4.473 -0.6441  0.6562 -0.1459
  950SOL    HW1 3038   0.221   4.505   4.441 -0.5097  1.4396 -0.2561
  950SOL    HW2 3039   0.082   4.541   4.394 -1.1011 -0.5667 -0.1417
  951SOL     OW 3040   2.130   1.489   3.754 -0.9243 -0.3912 -0.0293
  951SOL    HW1 3041   2.063   1.428   3.786  0.3985 -0.7964  2.1958
  951SOL    HW2 3042   2.210   1.461   3.798 -0.0484  2.3509  0.2654
  952SOL     OW 3043   3.822   4.902   4.790  0.5192  0.2469 -0.3588
  952SOL    HW1 3044   3.869   4.923   4.710 -0.7974  1.1470 -0.9346
  952SOL    HW2 3045   3.824   4.982   4.842 -0.4320  0.3321 -0.4349
  953SOL     OW 3046   1.709   3.574   2.157  0.2291  0.0562  0.0837
  953SOL    HW1 3047   1.696   3.537   2.070 -0.7022  0.8695 -0.1465
  953SOL    HW2 3048   1.622   3.572   2.198  0.4542  0.6060  0.6133
  954SOL     OW 3049   0.775   4.364   1.937  0.0333  0.3336  0.1309
  954SOL    HW1 3050   0.686   4.331   1.940  0.0698  0.2598  0.4035
  954SOL    HW2 3051   0.769   4.454   1.970  0.3703 -0.3419  2.1437
  955SOL     OW 3052   1.952   4.497   2.136  0.2647  0.1091  0.3032
  955SOL    HW1 3053   1.979   4.588   2.143  0.4256  0.1347 -0.4879
  955SOL    HW2 3054   2.008   4.450   2.198 -1.1377  0.7787  2.1613
  956SOL     OW 3055   4.562   1.781   2.622 -0.1930 -0.7180 -0.3691
  956SOL    HW1 3056   4.542   1.848   2.688 -0.3355  0.1784 -1.2878
  956SOL    HW2 3057   4.530   1.819   2.539  2.9408 -0.3048 -1.5322
  957SOL     OW 3058   4.243   0.039   1.053  0.5461 -0.7814 -0.2486
  957SOL    HW1 3059   4.338   0.045   1.059  0.5506 -1.4639  0.8495
  957SOL    HW2 3060   4.214   0.034   1.144 -0.7025  1.3252 -0.4747
  958SOL     OW 3061   4.565   2.128   0.938 -0.1298 -0.2099  0.2922
  958SOL    HW1 3062   4.622   2.182   0.883 -0.8627  0.1810 -0.1022
  958SOL    HW2 3063   4.520   2.190   0.995 -0.3004 -0.4992  0.4779
  959SOL     OW 3064   3.929   3.348   0.909  0.1410 -0.6699  0.8557
  959SOL    HW1 3065   3.952   3.440   0.923  1.1906 -1.1397  2.5778
  959SOL    HW2 3066   3.995   3.316   0.848 -0.1981 -0.3058  0.2907
  960SOL     OW 3067   3.473   0.830   3.851  0.0563 -0.1953  0.4538
  960SOL    HW1 3068   3.512   0.863   3.931  0.6791 -0.1440  0.1374
  960SOL    HW2 3069   3.496   0.894   3.784 -1.3328  0.2974  0.4170
  961SOL     OW 3070   0.241   0.826   0.833 -0.1668 -0.1205 -0.4164
  961SOL    HW1 3071   0.330   0.794   0.851 -0.2408  0.2199  0.6326
  961SOL    HW2 3072   0.189   0.794   0.906 -1.2715 -1.6240 -1.7837
  962SOL     OW 3073   2.083   4.346   2.338  0.0200 -0.2076  0.2925
  962SOL    HW1 3074   2.074   4.338   2.433 -1.0897 -0.0514  0.2175
  962SOL    HW2 3075   2.170   4.384   2.326  0.1564 -0.1764  1.2528
  963SOL     OW 3076   4.128   1.327   4.764 -0.5525 -0.2810  0.3284
  963SOL    HW1 3077   4.118   1.245   4.812 -0.2928 -0.7034 -0.3261
  963SOL    HW2 3078   4.052   1.330   4.705 -0.0190 -0.5715 -0.3899
  964SOL     OW 3079   3.661   2.879   3.732 -0.0786  0.0267 -0.6344
  964SOL    HW1 3080   3.698   2.819   3.797  0.7668  0.1256 -1.0126
  964SOL    HW2 3081   3.570   2.889   3.758  0.5072  0.9768  1.2608
  965SOL     OW 3082   2.794   1.112   0.983 -0.2295  0.2554  0.2240
  965SOL    HW1 3083   2.708   1.101   1.025 -0.1066 -1.4744  0.1168
  965SOL    HW2 3084   2.857   1.084   1.050  0.5398  3.8321  1.2208
  966SOL     OW 3085   1.409   0.318   0.656  0.1694 -0.1341 -0.5775
  966SOL    HW1 3086   1.444   0.347   0.740  0.1976  2.0943 -1.2835
  966SOL    HW2 3087   1.434   0.387   0.595 -0.9326 -1.0825 -2.1702
  967SOL     OW 3088   4.921   0.005   2.031 -0.5546 -0.2461  0.0405
  967SOL    HW1 3089   5.005   0.021   2.075 -1.0316 -0.0428  0.9172
  967SOL    HW2 3090   4.904  -0.089   2.045 -0.9306 -0.0841  0.7225
  968SOL     OW 3091   1.568   4.216   1.927 -0.1661 -0.0576 -0.4112
  968SOL    HW1 3092   1.557   4.237   2.020  0.9126 -0.6403 -0.1338
  968SOL    HW2 3093   1.629   4.282   1.895 -1.0470  0.5438 -0.8778
  969SOL     OW 3094   2.569   3.269   0.355  0.2833 -0.3009 -0.4212
  969SOL    HW1 3095   2.541   3.346   0.307 -0.9743 -1.6076 -1.8987
  969SOL    HW2 3096   2.547   3.288   0.446 -0.6210  0.8135 -0.8498
  970SOL     OW 3097   3.998   4.197   3.439  0.6114 -0.3500 -0.2797
  970SOL    HW1 3098   3.913   4.153   3.438 -0.2106  1.1601 -1.2655
  970SOL    HW2 3099   4.008   4.230   3.529 -1.5425  2.4549 -0.9395
  971SOL     OW 3100   0.476   2.105   1.926  0.5001 -0.0294 -0.1452
  971SOL    HW1 3101   0.531   2.075   1.999  0.3103 -0.4135 -0.1538
  971SOL    HW2 3102   0.407   2.157   1.968 -0.1426 -1.0161  0.0609
  972SOL     OW 3103   0.247   4.213   0.044  1.0321 -0.2647  0.1462
  972SOL    HW1 3104   0.277   4.296   0.006 -0.6891 -0.2925 -1.3994
  972SOL    HW2 3105   0.283   4.146  -0.014 -3.0929 -0.2461 -2.8624
  973SOL     OW 3106   0.750   3.227   0.606 -0.0212 -0.2180 -0.2128
  973SOL    HW1 3107   0.695   3.164   0.560  1.2983 -1.5372 -0.0680
  973SOL    HW2 3108   0.836   3.184   0.612  0.6542  1.1886  0.7742
  974SOL     OW 3109   0.487   1.040   0.974  0.0730 -0.1546  0.0613
  974SOL    HW1 3110   0.444   1.076   1.052 -0.6679 -0.5649 -0.1530
  974SOL    HW2 3111   0.466   1.101   0.904 -0.8055 -0.7574 -0.2061
  975SOL     OW 3112   0.732   3.873   1.191 -0.3828  0.0306 -0.6951
  975SOL    HW1 3113   0.697   3.787   1.167 -0.7298 -0.5130  1.4717
  975SOL    HW2 3114   0.819   3.854   1.226 -0.4385  0.5428 -0.2594
  976SOL     OW 3115   2.357   4.114   0.868  0.0717 -0.2383  0.1962
  976SOL    HW1 3116   2.379   4.043   0.929  0.5232 -2.0728 -1.9748
  976SOL    HW2 3117   2.440   4.157   0.850  0.2528 -0.8644 -0.4920
  977SOL     OW 3118   1.891   0.904   0.470  0.4400 -0.0216  0.7063
  977SOL    HW1 3119   1.851   0.991   0.469 -0.3434 -0.3666 -0.2884
  977SOL    HW2 3120   1.932   0.896   0.383 -0.0732 -0.8897  0.5335
  978SOL     OW 3121   1.601   4.934   0.331 -0.1820 -0.0774 -0.2136
  978SOL    HW1 3122   1.637   4.864   0.277 -0.3163 -0.5652  0.3179
  978SOL    HW2 3123   1.643   4.922   0.417 -1.0610 -0.2044  0.2025
  979SOL     OW 3124   4.895   0.696   0.175  0.4531 -0.0854  0.3530
  979SOL    HW1 3125   4.949   0.744   0.112  1.4857 -0.9246  0.5695
  979SOL    HW2 3126   4.917   0.604   0.161 -0.1726 -0.3728  1.1488
  980SOL     OW 3127   4.358   0.089   4.582  0.4309  0.1061  0.3884
  980SOL    HW1 3128   4.380   0.100   4.675  1.8989 -1.2067  0.2315
  980SOL    HW2 3129   4.303   0.165   4.562 -1.9833 -0.7820  2.9272
  981SOL     OW 3130   4.683   0.643   2.724  0.0796 -0.3016 -0.7989
  981SOL    HW1 3131   4.726   0.723   2.692 -1.8266  0.1110 -2.5279
  981SOL    HW2 3132   4.687   0.583   2.649 -2.5253 -0.1310 -1.1621
  982SOL     OW 3133   4.269   0.582   0.839 -0.0318  0.1921  0.0002
  982SOL    HW1 3134   4.202   0.603   0.904  0.6065 -0.4400  0.8719
  982SOL    HW2 3135   4.222   0.531   0.772 -0.8426  1.4406 -0.4266
  983SOL     OW 3136   0.651   1.447   3.038  0.0959 -0.1443 -0.6673
  983SOL    HW1 3137   0.571   1.438   3.090 -0.2830 -2.2319 -1.5112
  983SOL    HW2 3138   0.710   1.379   3.072  0.4956 -0.3803 -1.7728
  984SOL     OW 3139   0.069   3.723   2.278 -0.3471  0.2715 -0.3153
  984SOL    HW1 3140   0.042   3.719   2.187  0.7459  2.8757 -0.8499
  984SOL    HW2 3141   0.149   3.671   2.282 -0.9749 -0.7533 -0.5392
  985SOL     OW 3142   4.878   1.353   3.687  0.2503 -0.2962  1.0428
  985SOL    HW1 3143   4.908   1.280   3.741  1.4438 -0.3783  0.3026
  985SOL    HW2 3144   4.791   1.326   3.656  0.3026 -1.0042  1.4945
  986SOL     OW 3145   4.347   3.223   4.035  0.5079 -0.3138  0.1173
  986SOL    HW1 3146   4.389   3.180   3.960 -0.7966 -1.2922 -0.1058
  986SOL    HW2 3147   4.366   3.165   4.109  2.3046  0.9634  0.7062
  987SOL     OW 3148   4.616   0.293   1.867  0.3763  0.4569 -0.0001
  987SOL    HW1 3149   4.667   0.373   1.862  2.0763 -0.5552  0.5080
  987SOL    HW2 3150   4.679   0.222   1.856 -1.1254 -0.8446 -0.8520
  988SOL     OW 3151   4.673   0.336   4.561 -0.4391 -0.0840  0.0023
  988SOL    HW1 3152   4.635   0.312   4.477 -0.1845  2.3007 -0.8749
  988SOL    HW2 3153   4.603   0.381   4.608 -0.4342 -0.9746  0.8940
  989SOL     OW 3154   4.362   1.291   3.663  0.5697 -0.0451 -0.2345
  989SOL    HW1 3155   4.284   1.254   3.621  1.2420 -1.0994 -0.5925
  989SOL    HW2 3156   4.334   1.378   3.693 -0.4739 -0.0262 -1.1800
  990SOL     OW 3157   2.570   1.800   1.066 -0.4852  0.6039 -0.1590
  990SOL    HW1 3158   2.656   1.821   1.030 -0.6695  1.3884 -0.1672
  990SOL    HW2 3159   2.573   1.830   1.156 -0.1951 -0.9110  0.3525
  991SOL     OW 3160   0.376   2.881   2.300  0.4888 -0.0075 -0.0583
  991SOL    HW1 3161   0.378   2.862   2.206 -2.3695 -2.2084  0.2149
  991SOL    HW2 3162   0.411   2.802   2.341  0.5485  0.4455  0.7835
  992SOL     OW 3163   2.996   0.150   2.544  0.3488 -0.3645 -0.1147
  992SOL    HW1 3164   2.933   0.122   2.610  0.0282  1.3449  0.3692
  992SOL    HW2 3165   2.983   0.245   2.538  0.7368 -0.3941 -2.2504
  993SOL     OW 3166   3.544   0.145   0.848  0.0976  0.0972 -0.0575
  993SOL    HW1 3167   3.490   0.079   0.804  1.6392 -0.9017 -0.5448
  993SOL    HW2 3168   3.606   0.173   0.781  0.7092  0.6020  0.7065
  994SOL     OW 3169   4.341   3.110   0.985  0.4616  0.1712 -0.4999
  994SOL    HW1 3170   4.342   3.111   1.081  1.3916  0.5031 -0.5051
  994SOL    HW2 3171   4.390   3.032   0.961  0.6442  0.3472 -0.7058
  995SOL     OW 3172   1.287   0.369   2.286  0.1652  0.8644 -0.4278
  995SOL    HW1 3173   1.382   0.357   2.295  0.0580  0.2459 -0.0464
  995SOL    HW2 3174   1.271   0.360   2.192  0.4412  0.6235 -0.4548
  996SOL     OW 3175   4.785   3.976   3.827 -0.1851  0.0137 -0.4789
  996SOL    HW1 3176   4.843   3.911   3.789  0.0191 -0.0090 -0.1304
  996SOL    HW2 3177   4.808   4.058   3.783  0.6060  0.1489  0.1554
  997SOL     OW 3178   1.255   0.801   0.951 -0.2741 -0.5882  0.1414
  997SOL    HW1 3179   1.253   0.705   0.956 -0.3280 -0.6074 -0.2425
  997SOL    HW2 3180   1.322   0.827   1.014  0.2799 -0.9156 -0.3103
  998SOL     OW 3181   0.098   0.697   2.756  0.6303 -0.0617 -0.1665
  998SOL    HW1 3182   0.078   0.781   2.797  0.4391 -0.3314  0.3012
  998SOL    HW2 3183   0.058   0.703   2.669  1.0557  0.5222 -0.3233
  999SOL     OW 3184   4.533   4.452   3.970  0.3283 -0.6311 -0.6716
  999SOL    HW1 3185   4.573   4.367   3.952  0.0341 -1.0747  0.6837
  999SOL    HW2 3186   4.455   4.432   4.021  0.7073  0.4992  0.3991
 1000SOL     OW 3187   4.659   0.583   3.905  0.3325  0.7223 -0.2825
 1000SOL    HW1 3188   4.576   0.563   3.949  0.4830 -0.5600 -0.5555
 1000SOL    HW2 3189   4.724   0.531   3.951  1.0575  1.9140  0.0897
 1001SOL     OW 3190   4.414   0.530   3.998  0.3725  0.4420  0.1842
 1001SOL    HW1 3191   4.358   0.603   3.971 -1.4235 -0.6861  0.7087
 1001SOL    HW2 3192   4.396   0.519   4.091  3.1586  1.4183  0.9685
 1002SOL     OW 3193   4.124   4.089   2.958  0.5719  0.4873  0.1567
 1002SOL    HW1 3194   4.148   4.030   2.887  0.2714 -0.2071  0.6203
 1002SOL    HW2 3195   4.187   4.161   2.952 -0.0883  0.9705 -1.4480
 1003SOL     OW 3196   0.218   4.034   2.314 -0.5808  0.2233  0.1946
 1003SOL    HW1 3197   0.161   3.960   2.334 -1.6592  0.9904  0.0649
 1003SOL    HW2 3198   0.304   4.009   2.348 -1.2738 -0.4666  1.4847
 1004SOL     OW 3199   3.227   0.441   4.675  0.5948 -0.0273  0.6673
 1004SOL    HW1 3200   3.191   0.464   4.760  0.5078  0.7860  0.4166
 1004SOL    HW2 3201   3.174   0.490   4.612  2.4117  1.5987  0.3211
 1005SOL     OW 3202   3.813   0.745   2.476  0.5273  1.0907 -0.3011
 1005SOL    HW1 3203   3.841   0.707   2.393 -2.5535 -1.2395 -0.4689
 1005SOL    HW2 3204   3.893   0.778   2.516  2.3742  0.7328 -3.3850
 1006SOL     OW 3205   0.626   2.333   1.300 -0.2062  0.1416 -0.0986
 1006SOL    HW1 3206   0.689   2.264   1.281 -2.2314 -1.4229 -1.5455
 1006SOL    HW2 3207   0.559   2.291   1.353 -1.7677  0.7708 -1.4825
 1007SOL     OW 3208   1.287   3.380   1.425  0.1865 -0.0420 -0.5730
 1007SOL    HW1 3209   1.301   3.407   1.334  0.3456 -0.1792 -0.5880
 1007SOL    HW2 3210   1.199   3.413   1.446  0.3731  0.4864 -0.5961
 1008SOL     OW 3211   3.287   1.017   3.396  0.1352 -0.1648  0.0394
 1008SOL    HW1 3212   3.216   1.074   3.367 -1.0201 -1.1807  0.8236
 1008SOL    HW2 3213   3.249   0.964   3.465  2.2464  0.7765  2.0579
 1009SOL     OW 3214   1.636   2.575   3.518  0.3696  0.2013 -0.0886
 1009SOL    HW1 3215   1.675   2.562   3.604 -0.4064  1.9079  0.5767
 1009SOL    HW2 3216   1.694   2.638   3.475 -0.1498  0.6358 -0.1589
 1010SOL     OW 3217   1.552   2.222   2.826  0.1547  0.0332 -0.0929
 1010SOL    HW1 3218   1.530   2.189   2.913 -1.0445  2.0177  0.4256
 1010SOL    HW2 3219   1.620   2.287   2.842 -1.0613  1.4449 -0.3984
 1011SOL     OW 3220   0.830   3.835   0.838  0.0335  0.2487  0.2558
 1011SOL    HW1 3221   0.739   3.806   0.832  0.1979 -0.1215 -0.6908
 1011SOL    HW2 3222   0.825   3.931   0.831 -0.3029  0.2447  0.4410
 1012SOL     OW 3223   3.954   3.408   4.726 -0.9138 -0.0022 -0.0106
 1012SOL    HW1 3224   3.942   3.358   4.645 -0.6860  0.8373 -0.5798
 1012SOL    HW2 3225   3.895   3.482   4.717  0.9196  1.4862 -0.5915
 1013SOL     OW 3226   4.463   2.788   3.675 -0.0743 -0.0149 -0.0030
 1013SOL    HW1 3227   4.392   2.731   3.705  0.9354 -1.0944  0.4539
 1013SOL    HW2 3228   4.538   2.763   3.730  0.8589  0.5414 -0.9809
 1014SOL     OW 3229   1.473   4.570   1.996 -0.4995 -0.7992 -0.3945
 1014SOL    HW1 3230   1.555   4.567   2.044 -1.3012 -0.3015  1.0686
 1014SOL    HW2 3231   1.419   4.502   2.036 -1.3268 -0.1164 -0.3291
 1015SOL     OW 3232   1.616   3.437   2.754  0.0494  0.0961 -0.1192
 1015SOL    HW1 3233   1.641   3.345   2.768  1.1029  0.0971 -1.7787
 1015SOL    HW2 3234   1.697   3.481   2.732 -0.4953  1.4049  0.3860
 1016SOL     OW 3235   2.055   4.527   1.427 -0.0026 -0.2450  0.2795
 1016SOL    HW1 3236   2.040   4.433   1.434 -0.2909 -0.2381 -0.2351
 1016SOL    HW2 3237   1.968   4.566   1.435  0.0046 -0.0760 -0.4577
 1017SOL     OW 3238   2.570   1.173   3.170 -0.2943 -0.0626 -0.2426
 1017SOL    HW1 3239   2.565   1.246   3.109 -0.0149  0.1340 -0.0333
 1017SOL    HW2 3240   2.608   1.101   3.119 -2.3559 -0.6804 -1.0154
 1018SOL     OW 3241   4.628   0.003   2.794 -0.0049 -0.1943  0.0062
 1018SOL    HW1 3242   4.607   0.096   2.807  1.6557  0.3978 -1.0866
 1018SOL    HW2 3243   4.678  -0.021   2.872  0.2187  0.0670 -0.0524
 1019SOL     OW 3244   2.903   2.126   1.913 -0.3487  0.0608  0.0911
 1019SOL    HW1 3245   2.831   2.063   1.914 -0.6492  0.3759 -0.6224
 1019SOL    HW2 3246   2.980   2.076   1.938 -0.3995 -0.8286 -1.4233
 1020SOL     OW 3247   0.016   2.875   0.604 -0.2333  0.3521  0.9883
 1020SOL    HW1 3248   0.044   2.897   0.693  0.2375  2.5872  0.3458
 1020SOL    HW2 3249   0.088   2.904   0.548 -1.2590  0.6365 -0.2407
 1021SOL     OW 3250   0.872   3.197   3.179 -0.5075 -0.1484 -0.1049
 1021SOL    HW1 3251   0.864   3.126   3.243 -2.2912 -1.2905 -1.4910
 1021SOL    HW2 3252   0.784   3.233   3.170 -0.2777  0.1202 -1.7173
 1022SOL     OW 3253   1.871   1.524   1.220  0.5115 -0.6670 -0.4196
 1022SOL    HW1 3254   1.836   1.588   1.282 -0.1529 -2.1014  0.7390
 1022SOL    HW2 3255   1.964   1.516   1.243  1.2980  1.7681 -2.2992
 1023SOL     OW 3256   1.521   4.230   2.206 -0.6189 -0.2709  0.3996
 1023SOL    HW1 3257   1.440   4.279   2.189 -1.8636 -2.0101  1.0586
 1023SOL    HW2 3258   1.496   4.138   2.196  0.5201 -1.0367  3.3559
 1024SOL     OW 3259   4.244   2.332   0.811 -0.2690  0.3383  0.2479
 1024SOL    HW1 3260   4.292   2.295   0.736 -0.0102  0.2309  0.4674
 1024SOL    HW2 3261   4.300   2.314   0.886 -0.7595  0.0070  0.5404
 1025SOL     OW 3262   3.737   2.091   2.519 -0.4329  0.5387 -0.5002
 1025SOL    HW1 3263   3.724   2.058   2.608 -2.7826 -0.9892 -1.3108
 1025SOL    HW2 3264   3.827   2.122   2.518 -0.2488  0.3676  2.3200
 1026SOL     OW 3265   2.062   0.229   2.340  0.0803 -0.2797  0.4815
 1026SOL    HW1 3266   1.969   0.236   2.319  0.2526  0.5831 -0.0591
 1026SOL    HW2 3267   2.065   0.221   2.435 -0.5573 -0.5141  0.4823
 1027SOL     OW 3268   2.132   0.650   1.375 -0.4107 -0.6834  0.2238
 1027SOL    HW1 3269   2.144   0.555   1.380 -1.1790 -0.8845 -1.2795
 1027SOL    HW2 3270   2.132   0.670   1.281 -2.3675  0.5101  0.4144
 1028SOL     OW 3271   0.810   2.172   2.135  0.4359 -0.4175 -0.4523
 1028SOL    HW1 3272   0.750   2.103   2.107  0.9802 -0.9011 -0.4513
 1028SOL    HW2 3273   0.787   2.188   2.226  1.7097 -2.1395  0.2260
 1029SOL     OW 3274   0.473   2.126   0.752  0.8859 -0.2733 -0.1359
 1029SOL    HW1 3275   0.441   2.216   0.746 -1.2338 -0.9827 -0.0652
 1029SOL    HW2 3276   0.439   2.094   0.836  1.3771 -1.2518 -0.2920
 1030SOL     OW 3277   0.988   2.970   1.461 -0.2115 -0.2426 -0.2703
 1030SOL    HW1 3278   0.944   2.991   1.543 -1.2690  0.9828 -1.1039
 1030SOL    HW2 3279   1.078   3.002   1.473 -0.6622  0.9830  0.0418
 1031SOL     OW 3280   2.648   4.819   3.389  0.7213  0.1372  0.5281
 1031SOL    HW1 3281   2.580   4.812   3.455  0.4512 -0.2918  0.2025
 1031SOL    HW2 3282   2.616   4.769   3.315  1.9175 -1.1196  0.8118
 1032SOL     OW 3283   4.213   1.865   1.702  0.2077 -0.5720  0.0357
 1032SOL    HW1 3284   4.234   1.801   1.634 -2.8003 -1.9590  0.2351
 1032SOL    HW2 3285   4.158   1.816   1.764 -1.8889  2.0909  0.4170
 1033SOL     OW 3286   4.039   0.359   2.560  0.6298  0.7515 -0.6037
 1033SOL    HW1 3287   4.123   0.316   2.548  0.8025  1.0892 -0.6284
 1033SOL    HW2 3288   4.050   0.445   2.519  0.4149  0.9622 -0.2292
 1034SOL     OW 3289   0.948   1.585   2.458 -0.2948  0.2702 -0.0601
 1034SOL    HW1 3290   0.975   1.602   2.548  0.2816 -0.5680 -0.0544
 1034SOL    HW2 3291   1.020   1.533   2.422 -1.1527 -0.5961 -0.5733
 1035SOL     OW 3292   1.534   1.414   3.733 -0.4022  0.1829 -0.1359
 1035SOL    HW1 3293   1.518   1.507   3.720 -0.1004  0.2167 -0.2824
 1035SOL    HW2 3294   1.534   1.401   3.827 -0.7852  0.2721 -0.1260
 1036SOL     OW 3295   1.335   4.272   3.796 -0.8856 -0.0336 -0.4395
 1036SOL    HW1 3296   1.333   4.296   3.703  1.9833  3.1519  0.1231
 1036SOL    HW2 3297   1.425   4.240   3.811 -0.4723  1.8706  1.6465
 1037SOL     OW 3298   3.766   0.009   1.536  0.0381 -0.1245  0.6420
 1037SOL    HW1 3299   3.810   0.052   1.463 -1.1422  0.2849  0.1378
 1037SOL    HW2 3300   3.713   0.077   1.576 -1.8758 -1.0394 -0.1798
 1038SOL     OW 3301   1.998   2.818   2.167  0.2871  0.3589 -0.1751
 1038SOL    HW1 3302   2.010   2.841   2.259 -0.6106  1.5559 -0.3299
 1038SOL    HW2 3303   1.906   2.791   2.161  0.2367  0.6448 -0.7792
 1039SOL     OW 3304   0.355   2.404   4.461 -1.0605 -0.0893 -0.8493
 1039SOL    HW1 3305   0.431   2.416   4.404 -1.6114  0.7192 -1.4444
 1039SOL    HW2 3306   0.347   2.486   4.508 -2.1562  0.2259 -1.5472
 1040SOL     OW 3307   3.853   0.271   1.795  0.2586 -0.1707  0.0571
 1040SOL    HW1 3308   3.847   0.183   1.833  0.3633  0.0403  0.5771
 1040SOL    HW2 3309   3.766   0.287   1.760 -0.7726  0.7684  2.8237
 1041SOL     OW 3310   0.384   4.900   4.034 -0.3600  0.0712  0.1994
 1041SOL    HW1 3311   0.410   4.991   4.053 -1.3379  0.4561 -0.2962
 1041SOL    HW2 3312   0.397   4.855   4.118  0.7433  0.5142  0.2887
 1042SOL     OW 3313   1.822   0.582   1.117 -0.6771  0.2665  0.1350
 1042SOL    HW1 3314   1.802   0.489   1.132 -0.9466  0.4862  1.2052
 1042SOL    HW2 3315   1.845   0.616   1.203  0.3546  0.9894 -0.4063
 1043SOL     OW 3316   2.208   4.923   1.783  0.2410 -0.4652  0.0462
 1043SOL    HW1 3317   2.179   5.011   1.758  1.2083  0.1089  0.9090
 1043SOL    HW2 3318   2.221   4.879   1.699 -0.0581  0.2707 -0.4047
 1044SOL     OW 3319   3.983   2.187   2.900  0.0792  0.2146 -0.8436
 1044SOL    HW1 3320   3.998   2.116   2.837  0.1991  0.1623 -0.7577
 1044SOL    HW2 3321   3.911   2.237   2.863  0.5320  0.5289 -1.3243
 1045SOL     OW 3322   3.261   1.990   4.899  0.7453  0.1677  0.4085
 1045SOL    HW1 3323   3.206   1.912   4.907  1.5870 -0.7002 -1.5733
 1045SOL    HW2 3324   3.234   2.045   4.972 -0.7845 -1.4102  1.1301
 1046SOL     OW 3325   4.517   1.171   4.730  0.1282 -0.3184  0.4735
 1046SOL    HW1 3326   4.495   1.120   4.807 -0.5286  0.3337  0.7310
 1046SOL    HW2 3327   4.524   1.107   4.659  3.1387 -1.2796  1.4693
 1047SOL     OW 3328   0.634   0.164   1.861  0.0510  0.1738 -0.2821
 1047SOL    HW1 3329   0.693   0.190   1.932 -0.0288 -0.1379 -0.0966
 1047SOL    HW2 3330   0.562   0.118   1.906  0.6267 -1.1542 -0.6689
 1048SOL     OW 3331   0.147   4.306   3.086 -0.0886 -0.4155 -0.2722
 1048SOL    HW1 3332   0.233   4.346   3.098 -0.8276  1.2762 -0.3695
 1048SOL    HW2 3333   0.165   4.213   3.070  1.6795 -0.1565  0.1126
 1049SOL     OW 3334   4.263   2.417   1.450 -1.2712 -0.6991  0.7442
 1049SOL    HW1 3335   4.190   2.453   1.502 -1.9768  0.5037 -0.9674
 1049SOL    HW2 3336   4.220   2.370   1.379 -0.3282 -2.1464  1.1041
 1050SOL     OW 3337   3.969   3.089   2.619  0.4483 -0.1108 -0.1321
 1050SOL    HW1 3338   3.892   3.053   2.662  1.1391 -1.8545 -0.2765
 1050SOL    HW2 3339   4.043   3.057   2.671  1.1193  0.7937 -0.5042
 1051SOL     OW 3340   1.682   1.939   1.758  0.6561 -0.3409 -0.4801
 1051SOL    HW1 3341   1.684   1.945   1.662 -1.7874 -0.3417 -0.5940
 1051SOL    HW2 3342   1.639   1.855   1.776  2.1036 -0.8705  0.6581
 1052SOL     OW 3343   4.598   1.482   2.361  0.4771 -0.3909  0.1058
 1052SOL    HW1 3344   4.632   1.418   2.298  0.3506  0.8448 -1.2620
 1052SOL    HW2 3345   4.506   1.458   2.372  0.8789 -1.6016  1.1205
 1053SOL     OW 3346   0.926   3.799   3.626 -0.4536 -0.0411  0.6534
 1053SOL    HW1 3347   0.993   3.836   3.684  1.0156 -0.6561 -0.5823
 1053SOL    HW2 3348   0.943   3.838   3.541 -1.1195 -0.8760  0.1177
 1054SOL     OW 3349   4.422   2.325   1.056  0.1711  0.5875 -0.4942
 1054SOL    HW1 3350   4.396   2.291   1.142 -1.3506  2.2407 -0.2327
 1054SOL    HW2 3351   4.458   2.412   1.075  0.0176  0.8814 -1.5030
 1055SOL     OW 3352   4.710   0.829   4.200  0.1898 -0.4920 -0.0880
 1055SOL    HW1 3353   4.777   0.760   4.190  0.6282  0.0884 -1.4253
 1055SOL    HW2 3354   4.755   0.899   4.247  0.4159 -0.2591 -0.6425
 1056SOL     OW 3355   2.102   0.515   3.884  0.6241  0.3979  0.6562
 1056SOL    HW1 3356   2.182   0.470   3.857 -0.1036 -0.7111  0.2367
 1056SOL    HW2 3357   2.121   0.548   3.972  2.0121  1.4194  0.0059
 1057SOL     OW 3358   4.654   1.605   1.259  0.4688  0.0696 -0.2016
 1057SOL    HW1 3359   4.693   1.626   1.174 -0.6138 -3.1839 -1.6424
 1057SOL    HW2 3360   4.729   1.592   1.317  1.4073 -1.0640 -1.5886
 1058SOL     OW 3361   2.758   1.815   0.888 -0.5768 -1.1630 -0.2142
 1058SOL    HW1 3362   2.800   1.891   0.849  0.0161 -1.1793  0.3831
 1058SOL    HW2 3363   2.760   1.748   0.820 -0.3696 -0.9021 -0.4639
 1059SOL     OW 3364   4.932   3.580   2.702 -0.0802 -0.0042 -0.7559
 1059SOL    HW1 3365   4.850   3.594   2.750  0.4599  2.6271 -0.4165
 1059SOL    HW2 3366   4.963   3.495   2.730 -2.1519 -0.5829 -0.0715
 1060SOL     OW 3367   1.154   2.389   4.563  0.0022 -0.1705 -0.4437
 1060SOL    HW1 3368   1.233   2.424   4.605 -1.0947  1.1936  0.5941
 1060SOL    HW2 3369   1.156   2.425   4.474  0.8473 -0.6483 -0.6258
 1061SOL     OW 3370   0.238   4.131   1.203 -0.1568  0.2233 -0.0228
 1061SOL    HW1 3371   0.201   4.209   1.161  0.5902  0.6941  0.1766
 1061SOL    HW2 3372   0.331   4.151   1.212  0.3187 -1.2638 -1.2447
 1062SOL     OW 3373   2.589   1.330   0.206  0.3782 -0.1343  0.0543
 1062SOL    HW1 3374   2.565   1.281   0.284 -0.1870  0.8743  0.5421
 1062SOL    HW2 3375   2.540   1.289   0.135 -1.9359  1.0947  0.8285
 1063SOL     OW 3376   1.514   2.096   3.054  1.0482  0.0636 -0.0640
 1063SOL    HW1 3377   1.529   2.019   3.109  2.1605  0.4165  0.1582
 1063SOL    HW2 3378   1.419   2.103   3.048  0.8945 -0.1036  1.6481
 1064SOL     OW 3379   4.536   2.486   4.313 -0.0270 -0.0956 -0.1794
 1064SOL    HW1 3380   4.555   2.504   4.405 -2.3591 -0.6355  0.4849
 1064SOL    HW2 3381   4.560   2.393   4.302  2.9027  0.6377 -0.9774
 1065SOL     OW 3382   0.419   0.227   4.905  0.0659  0.5593  0.5197
 1065SOL    HW1 3383   0.509   0.216   4.936  0.3264  3.3311  0.9731
 1065SOL    HW2 3384   0.366   0.228   4.985  0.1351  2.6686  0.5883
 1066SOL     OW 3385   3.745   2.308   0.148 -0.1476  0.4791 -0.4596
 1066SOL    HW1 3386   3.776   2.398   0.149  3.6187 -0.6451  0.2948
 1066SOL    HW2 3387   3.783   2.268   0.226 -0.5527 -2.0889 -1.4579
 1067SOL     OW 3388   2.437   4.917   3.000  0.2676  0.3590  0.4556
 1067SOL    HW1 3389   2.496   4.844   2.981 -2.0044 -1.7250  0.8674
 1067SOL    HW2 3390   2.429   4.963   2.917  0.8101 -0.5867 -0.1429
 1068SOL     OW 3391   3.205   0.094   1.651 -0.1535 -0.1196  0.7533
 1068SOL    HW1 3392   3.224   0.184   1.678 -1.4597  0.0791  1.0814
 1068SOL    HW2 3393   3.208   0.095   1.556  1.1940 -0.0620  0.7750
 1069SOL     OW 3394   0.529   1.849   4.819 -0.3775 -0.4374 -0.1100
 1069SOL    HW1 3395   0.558   1.940   4.820  3.9636 -1.5468  1.9856
 1069SOL    HW2 3396   0.487   1.835   4.904  1.1761 -0.8621  0.6249
 1070SOL     OW 3397   1.822   0.003   4.253  0.6731  0.0951  0.0379
 1070SOL    HW1 3398   1.746  -0.056   4.249  0.5378  0.2447  0.3614
 1070SOL    HW2 3399   1.831   0.024   4.346  0.6888  0.6241 -0.0775
 1071SOL     OW 3400   1.906   0.346   0.078  0.5603 -0.2317 -0.0435
 1071SOL    HW1 3401   1.940   0.313  -0.005  2.1539  0.1717  0.4048
 1071SOL    HW2 3402   1.858   0.426   0.055 -0.1203 -0.8318 -0.7120
 1072SOL     OW 3403   1.106   0.898   0.051 -0.1574 -0.4400 -0.3692
 1072SOL    HW1 3404   1.107   0.846  -0.029  0.1902 -1.0172  0.0064
 1072SOL    HW2 3405   1.198   0.919   0.067 -0.2649  0.0252 -0.3434
 1073SOL     OW 3406   2.225   3.070   1.652 -0.3529  0.3473 -0.4362
 1073SOL    HW1 3407   2.134   3.099   1.653 -0.1836  0.9538  1.1072
 1073SOL    HW2 3408   2.244   3.051   1.561 -1.9569  0.4443 -0.8094
 1074SOL     OW 3409   3.697   2.452   1.648 -0.0188  0.2528 -0.1728
 1074SOL    HW1 3410   3.689   2.450   1.552 -1.0103  1.2984 -0.1319
 1074SOL    HW2 3411   3.608   2.464   1.679  0.2840 -0.2124  0.9045
 1075SOL     OW 3412   0.050   4.067   4.795  0.2639  0.0201  0.6530
 1075SOL    HW1 3413   0.046   4.142   4.854  0.5733 -0.4189  1.2442
 1075SOL    HW2 3414  -0.001   4.094   4.719  1.1708  1.1884  0.4362
 1076SOL     OW 3415   0.024   1.782   3.042 -0.2409 -0.6243  0.2084
 1076SOL    HW1 3416  -0.030   1.861   3.043 -0.7426 -0.9661  0.4278
 1076SOL    HW2 3417  -0.039   1.710   3.032  0.1427 -1.0501  0.8205
 1077SOL     OW 3418   2.389   3.362   4.864  0.0939  0.2770  0.5795
 1077SOL    HW1 3419   2.388   3.435   4.802  3.4945  0.1490  0.1642
 1077SOL    HW2 3420   2.343   3.395   4.941 -2.5416  1.1271 -1.2032
 1078SOL     OW 3421   1.031   3.345   4.492 -0.2191 -0.2355 -0.0029
 1078SOL    HW1 3422   0.992   3.316   4.574 -1.4489 -0.4088 -0.6286
 1078SOL    HW2 3423   1.118   3.307   4.491  0.0897  0.3674  1.5520
 1079SOL     OW 3424   1.088   2.131   4.473  0.6134  0.3215  0.0118
 1079SOL    HW1 3425   1.122   2.065   4.533  2.1992  1.0256 -0.0661
 1079SOL    HW2 3426   1.098   2.214   4.520  1.6023  0.8518 -1.0717
 1080SOL     OW 3427   2.896   0.745   1.733 -0.0662  1.0377 -0.3791
 1080SOL    HW1 3428   2.976   0.782   1.768 -0.4356  0.4609  1.1937
 1080SOL    HW2 3429   2.908   0.745   1.638  1.4426  1.7010 -0.2130
 1081SOL     OW 3430   0.467   4.645   2.507  0.0640  0.5335 -0.2590
 1081SOL    HW1 3431   0.417   4.583   2.453 -1.3181  0.6105  0.8977
 1081SOL    HW2 3432   0.457   4.612   2.596  1.1196  1.2267  0.1278
 1082SOL     OW 3433   1.562   1.086   0.260 -0.0524  0.6544  0.2999
 1082SOL    HW1 3434   1.637   1.145   0.260  0.0635  0.5089 -0.0482
 1082SOL    HW2 3435   1.503   1.123   0.326  0.1898  0.9378  0.3615
 1083SOL     OW 3436   4.067   2.787   4.255  0.1723 -0.3755  0.4069
 1083SOL    HW1 3437   4.076   2.692   4.245  0.5231 -0.2513 -0.5750
 1083SOL    HW2 3438   4.098   2.823   4.172 -1.5410  0.5208  0.0986
 1084SOL     OW 3439   4.428   3.837   1.331  0.2346  0.0708  0.1392
 1084SOL    HW1 3440   4.464   3.912   1.285 -0.7459  0.2267 -0.4055
 1084SOL    HW2 3441   4.347   3.869   1.370  0.2219 -0.4960  0.5923
 1085SOL     OW 3442   3.664   4.085   4.128  0.4397 -0.4184 -0.0201
 1085SOL    HW1 3443   3.724   4.089   4.053  0.3203  3.4498 -0.1387
 1085SOL    HW2 3444   3.591   4.142   4.103 -0.4861 -0.4773  2.3133
 1086SOL     OW 3445   2.263   3.956   2.594  0.5448 -0.1547 -0.3137
 1086SOL    HW1 3446   2.331   4.023   2.587  0.0960  0.4575  0.9264
 1086SOL    HW2 3447   2.301   3.879   2.551  2.2075  0.0377  0.7120
 1087SOL     OW 3448   4.206   4.670   3.892 -0.7831 -0.3337 -0.8309
 1087SOL    HW1 3449   4.250   4.697   3.811 -0.3136 -0.0909 -0.5032
 1087SOL    HW2 3450   4.277   4.637   3.947 -1.0051  0.0997 -0.2782
 1088SOL     OW 3451   3.860   0.726   1.670 -0.3475  0.2566 -0.1953
 1088SOL    HW1 3452   3.822   0.647   1.631 -0.0516  0.2327 -0.4444
 1088SOL    HW2 3453   3.880   0.702   1.760  0.7381 -0.3063 -0.5597
 1089SOL     OW 3454   2.340   2.313   0.931 -0.4172  0.1802 -0.2185
 1089SOL    HW1 3455   2.349   2.376   0.859  1.6183 -0.6100 -0.7308
 1089SOL    HW2 3456   2.327   2.229   0.887 -1.6655  0.0085  0.4301
 1090SOL     OW 3457   4.244   0.027   3.724  0.4896  0.2393  0.4614
 1090SOL    HW1 3458   4.272  -0.010   3.640 -0.5611 -0.7993  0.5455
 1090SOL    HW2 3459   4.317   0.009   3.783 -0.5543 -3.2465  0.9084
 1091SOL     OW 3460   3.014   2.973   2.073 -0.6738 -0.2912  0.5792
 1091SOL    HW1 3461   2.952   2.900   2.075 -0.7778 -0.1897  1.3603
 1091SOL    HW2 3462   3.098   2.934   2.099 -0.3798 -0.4451 -0.5530
 1092SOL     OW 3463   2.136   4.616   0.370 -0.1326  0.8835  0.7049
 1092SOL    HW1 3464   2.161   4.693   0.422  0.2172  0.4681  1.1623
 1092SOL    HW2 3465   2.218   4.587   0.329  0.4051 -1.0115  2.9136
 1093SOL     OW 3466   1.248   1.762   0.619  0.4543 -0.0978  0.2593
 1093SOL    HW1 3467   1.267   1.837   0.676  1.4457 -0.0111 -0.1765
 1093SOL    HW2 3468   1.196   1.798   0.548 -0.8859 -0.2231  1.1259
 1094SOL     OW 3469   1.956   3.971   4.396  0.0685 -0.3877 -0.5800
 1094SOL    HW1 3470   1.984   4.035   4.331 -0.5150  0.1550 -0.3140
 1094SOL    HW2 3471   1.973   3.886   4.355  1.3898 -0.0775 -0.7011
 1095SOL     OW 3472   1.206   1.258   3.776 -0.0895  0.3328  0.7199
 1095SOL    HW1 3473   1.141   1.327   3.766  1.1160  1.5336  0.8802
 1095SOL    HW2 3474   1.238   1.267   3.865  1.5511  0.9496  0.1163
 1096SOL     OW 3475   2.253   3.040   4.298  0.3371 -0.1237 -0.3255
 1096SOL    HW1 3476   2.248   2.966   4.358 -0.6195  0.6156  0.5481
 1096SOL    HW2 3477   2.167   3.081   4.303  0.9923  1.3342 -0.4101
 1097SOL     OW 3478   1.398   1.386   4.808 -0.1618  0.1739  0.5339
 1097SOL    HW1 3479   1.322   1.367   4.754  0.1690  0.7591 -0.1597
 1097SOL    HW2 3480   1.380   1.343   4.892 -1.1381  0.1157  0.3003
 1098SOL     OW 3481   0.682   2.847   1.104 -0.1810 -0.2270  0.0807
 1098SOL    HW1 3482   0.743   2.911   1.066 -0.7921  0.7323  0.6527
 1098SOL    HW2 3483   0.607   2.900   1.131 -0.7494 -1.2199  0.4779
 1099SOL     OW 3484   4.154   2.598   3.413  0.0886 -0.1407 -0.2050
 1099SOL    HW1 3485   4.085   2.642   3.463 -0.8592 -0.6839 -1.0094
 1099SOL    HW2 3486   4.188   2.666   3.354  0.6869  0.2928  0.6144
 1100SOL     OW 3487   1.927   3.940   4.781 -0.4557  0.5434 -0.3485
 1100SOL    HW1 3488   1.841   3.918   4.745 -0.3434 -0.0735 -0.2531
 1100SOL    HW2 3489   1.913   4.020   4.831 -0.8739  0.7072 -0.7231
 1101SOL     OW 3490   2.874   4.721   2.332 -0.2654  0.4837  0.3790
 1101SOL    HW1 3491   2.940   4.656   2.358 -1.6864 -1.4433 -0.6503
 1101SOL    HW2 3492   2.926   4.797   2.305  1.4943 -0.5160  0.7407
 1102SOL     OW 3493   4.585   1.524   2.669 -0.1163 -0.0386  0.6430
 1102SOL    HW1 3494   4.576   1.619   2.665 -2.1514 -0.2203 -0.5961
 1102SOL    HW2 3495   4.609   1.499   2.579  1.7653 -0.6332  1.2573
 1103SOL     OW 3496   1.075   3.783   0.592  0.1025 -0.1021 -0.1926
 1103SOL    HW1 3497   1.109   3.711   0.538  2.1101  0.6228  0.0427
 1103SOL    HW2 3498   1.040   3.739   0.670  1.5408 -0.8636  0.0762
 1104SOL     OW 3499   2.948   0.108   1.900  0.0454 -0.2215  0.9726
 1104SOL    HW1 3500   2.959   0.135   1.991  0.4442  0.9134  0.6118
 1104SOL    HW2 3501   2.997   0.174   1.850  2.4266 -2.4781  0.0906
 1105SOL     OW 3502   3.255   3.818   4.818 -0.9616  0.0577  0.1526
 1105SOL    HW1 3503   3.178   3.873   4.809 -0.5370  0.6306 -0.0565
 1105SOL    HW2 3504   3.301   3.852   4.894 -0.8935 -0.2593  0.2568
 1106SOL     OW 3505   0.421   0.055   2.572  0.1736  0.5858 -0.1395
 1106SOL    HW1 3506   0.350   0.015   2.522 -0.5945 -0.2460  1.5273
 1106SOL    HW2 3507   0.480   0.091   2.506 -0.9502 -0.1707 -1.6100
 1107SOL     OW 3508   1.541   0.950   4.823 -0.6354 -0.1787  0.2314
 1107SOL    HW1 3509   1.579   1.024   4.869  0.5654 -2.0948  2.5487
 1107SOL    HW2 3510   1.613   0.914   4.771 -1.6335  1.1601 -2.1980
 1108SOL     OW 3511   3.976   1.356   2.259  0.2379  0.6303  0.1162
 1108SOL    HW1 3512   3.980   1.356   2.163 -0.6362  0.6478  0.0741
 1108SOL    HW2 3513   4.013   1.271   2.284 -1.0959 -0.1035 -0.3230
 1109SOL     OW 3514   1.383   3.820   1.405 -0.3475 -0.4446  0.4685
 1109SOL    HW1 3515   1.419   3.821   1.494  0.5006  1.1351  0.1341
 1109SOL    HW2 3516   1.457   3.841   1.348 -1.0310 -0.7135 -0.5612
 1110SOL     OW 3517   4.686   4.764   4.432 -0.2355 -0.5353 -0.5525
 1110SOL    HW1 3518   4.615   4.828   4.426 -0.8328 -0.8721  2.0761
 1110SOL    HW2 3519   4.712   4.749   4.341 -1.0390  2.3372 -1.3652
 1111SOL     OW 3520   0.609   1.639   0.399  0.8652 -0.1311 -0.0921
 1111SOL    HW1 3521   0.550   1.611   0.469  1.0851  0.8990  0.5316
 1111SOL    HW2 3522   0.587   1.731   0.385  1.5711 -0.0349 -0.6213
 1112SOL     OW 3523   2.004   3.200   1.545  0.3722  1.1893  0.1116
 1112SOL    HW1 3524   1.935   3.174   1.483 -0.2352  0.5938  1.0062
 1112SOL    HW2 3525   2.057   3.263   1.497 -0.2926  1.0099 -0.8945
 1113SOL     OW 3526   2.197   2.458   1.157  0.2025 -0.4975 -0.3184
 1113SOL    HW1 3527   2.239   2.457   1.071  0.7421 -1.3091 -0.0610
 1113SOL    HW2 3528   2.179   2.550   1.174 -1.4088 -0.4369 -2.0123
 1114SOL     OW 3529   0.985   4.632   0.709 -0.0472 -0.4426  0.1518
 1114SOL    HW1 3530   1.077   4.634   0.681 -0.6409  1.7466 -2.0499
 1114SOL    HW2 3531   0.982   4.690   0.785  0.5184 -1.1425  0.7109
 1115SOL     OW 3532   3.839   3.915   4.774  0.3985  0.3650  0.4674
 1115SOL    HW1 3533   3.868   4.006   4.767 -0.2074  0.4906 -0.5998
 1115SOL    HW2 3534   3.748   3.921   4.802 -0.0202  0.1462 -0.7871
 1116SOL     OW 3535   1.041   0.490   1.065 -0.4638  0.4079 -0.1212
 1116SOL    HW1 3536   0.962   0.478   1.011  0.7017 -2.0326 -1.4180
 1116SOL    HW2 3537   1.110   0.505   1.001  0.8951 -2.1260  0.6449
 1117SOL     OW 3538   1.597   2.733   4.863 -0.4720 -0.0517  0.6956
 1117SOL    HW1 3539   1.539   2.659   4.881  0.4307 -1.4757 -1.7407
 1117SOL    HW2 3540   1.551   2.809   4.900 -1.7700 -1.6827  2.6448
 1118SOL     OW 3541   3.993   1.194   4.451  0.3538  0.8043  0.0066
 1118SOL    HW1 3542   3.969   1.264   4.512  1.1724  0.9133  0.2097
 1118SOL    HW2 3543   4.087   1.203   4.439  0.5812 -0.6221  0.4890
 1119SOL     OW 3544   0.480   4.327   1.921  0.4418 -0.3401  0.6499
 1119SOL    HW1 3545   0.439   4.241   1.919 -3.2774  1.2706  0.5808
 1119SOL    HW2 3546   0.468   4.362   1.833  0.7170  0.7562  1.0239
 1120SOL     OW 3547   3.595   1.352   3.087  0.4394  0.8333 -0.0853
 1120SOL    HW1 3548   3.651   1.396   3.151  1.1115 -0.2620  0.0929
 1120SOL    HW2 3549   3.648   1.348   3.007  0.2347  0.7113 -0.2152
 1121SOL     OW 3550   2.215   1.866   2.531 -0.5787 -0.2401  0.0575
 1121SOL    HW1 3551   2.269   1.815   2.471  0.6963  0.6116  0.4205
 1121SOL    HW2 3552   2.170   1.929   2.475  0.8286  0.7448 -0.0276
 1122SOL     OW 3553   4.359   2.691   4.392  0.2744  0.0955  0.2091
 1122SOL    HW1 3554   4.442   2.739   4.390  0.6802 -0.5963  0.1072
 1122SOL    HW2 3555   4.379   2.608   4.349 -0.9451  0.6682 -1.5912
 1123SOL     OW 3556   4.620   4.426   3.663  0.5009  0.1180  0.6509
 1123SOL    HW1 3557   4.526   4.433   3.651  0.3979  2.0473  2.0770
 1123SOL    HW2 3558   4.636   4.333   3.676 -0.8666 -0.5230 -1.7606
 1124SOL     OW 3559   1.794   3.598   2.660  0.1092  0.3125  0.0870
 1124SOL    HW1 3560   1.885   3.600   2.688  0.2934  0.1490 -0.4863
 1124SOL    HW2 3561   1.798   3.602   2.565 -0.4402 -0.6284  0.0051
 1125SOL     OW 3562   3.074   4.540   2.413 -0.3275  0.2378  0.0350
 1125SOL    HW1 3563   3.115   4.588   2.485  1.0050 -1.8070  0.7230
 1125SOL    HW2 3564   3.147   4.509   2.359 -1.2020 -0.0383 -1.0331
 1126SOL     OW 3565   2.419   3.812   1.921  0.5326 -0.2806  0.6876
 1126SOL    HW1 3566   2.513   3.805   1.903  0.1762 -2.4522 -0.6081
 1126SOL    HW2 3567   2.411   3.891   1.975  2.8565  1.0094 -0.7120
 1127SOL     OW 3568   0.945   2.406   1.964 -0.7456 -0.0441 -0.2835
 1127SOL    HW1 3569   0.859   2.366   1.978 -1.2138  1.2565  0.7844
 1127SOL    HW2 3570   0.992   2.391   2.046  0.1580 -0.9459 -0.9393
 1128SOL     OW 3571   0.380   0.742   2.468  0.0559  0.0991 -0.2680
 1128SOL    HW1 3572   0.320   0.759   2.395  0.7628  2.8298 -0.3324
 1128SOL    HW2 3573   0.355   0.807   2.534  1.5603 -0.1248  0.5538
 1129SOL     OW 3574   0.714   3.346   1.661 -0.1776 -0.0786  0.0960
 1129SOL    HW1 3575   0.772   3.410   1.621 -1.4423  1.5138  0.6569
 1129SOL    HW2 3576   0.627   3.367   1.625 -1.1495  0.5962  2.5528
 1130SOL     OW 3577   0.219   3.277   2.309  0.1965 -0.6629  0.2766
 1130SOL    HW1 3578   0.278   3.252   2.238 -0.3398 -0.8666 -0.1036
 1130SOL    HW2 3579   0.160   3.342   2.270  2.3186  2.2072  1.5454
 1131SOL     OW 3580   0.358   2.379   2.839  0.2792 -0.1064  0.5158
 1131SOL    HW1 3581   0.303   2.304   2.819 -1.8776  1.1270  1.5413
 1131SOL    HW2 3582   0.316   2.421   2.914  0.3916  3.1157 -1.0715
 1132SOL     OW 3583   3.160   0.749   1.409  0.2365 -0.1559 -0.2139
 1132SOL    HW1 3584   3.074   0.707   1.417  0.3060 -0.3404 -0.4092
 1132SOL    HW2 3585   3.141   0.843   1.406  0.2309  0.0117  2.5660
 1133SOL     OW 3586   1.838   2.486   1.109  0.1035  0.3964  0.0642
 1133SOL    HW1 3587   1.887   2.538   1.046  0.7484  0.7636  0.8396
 1133SOL    HW2 3588   1.856   2.528   1.193  0.4460 -0.9163  0.6778
 1134SOL     OW 3589   1.986   3.590   1.103 -0.2085 -0.1311 -0.0516
 1134SOL    HW1 3590   1.913   3.648   1.085 -0.1317 -0.0129  0.0150
 1134SOL    HW2 3591   1.990   3.584   1.199 -0.2660 -0.3098 -0.0596
 1135SOL     OW 3592   1.266   2.776   3.624 -0.1198  0.3910 -0.3447
 1135SOL    HW1 3593   1.312   2.793   3.541 -1.8586  1.8806 -1.0807
 1135SOL    HW2 3594   1.186   2.828   3.617 -1.6844 -1.7074  1.0905
 1136SOL     OW 3595   3.161   2.586   3.417 -0.5214 -0.2080  0.2769
 1136SOL    HW1 3596   3.132   2.505   3.376 -0.1468  0.1490 -0.7203
 1136SOL    HW2 3597   3.225   2.623   3.356 -0.7880  0.9039  0.6361
 1137SOL     OW 3598   3.767   1.579   0.549  0.4043 -0.0679 -0.0508
 1137SOL    HW1 3599   3.780   1.607   0.458 -0.0800  0.2040 -0.0406
 1137SOL    HW2 3600   3.834   1.628   0.598 -1.2281  2.1105  0.1405
 1138SOL     OW 3601   0.280   4.820   1.472  0.1092  0.3224 -0.6123
 1138SOL    HW1 3602   0.347   4.777   1.524  0.1629 -0.3487 -1.2246
 1138SOL    HW2 3603   0.315   4.820   1.383 -0.9158 -0.4814 -1.0249
 1139SOL     OW 3604   3.119   0.895   0.439  0.2804 -0.0049  0.1485
 1139SOL    HW1 3605   3.167   0.924   0.516 -1.0690  1.8663  0.3456
 1139SOL    HW2 3606   3.089   0.975   0.397 -1.7596 -1.0459 -0.5168
 1140SOL     OW 3607   0.986   0.288   1.322  0.1830  0.5333  0.4659
 1140SOL    HW1 3608   0.952   0.347   1.390 -0.5629  0.2434  0.3566
 1140SOL    HW2 3609   0.998   0.344   1.246  0.7500  0.8036  0.7448
 1141SOL     OW 3610   4.778   0.494   1.866  0.1068  0.1372  0.1035
 1141SOL    HW1 3611   4.865   0.532   1.851 -0.1006  0.1783 -1.0974
 1141SOL    HW2 3612   4.728   0.564   1.908  0.1275  0.7676 -0.8751
 1142SOL     OW 3613   2.204   3.346   1.400 -0.3478  0.2461 -0.2517
 1142SOL    HW1 3614   2.266   3.358   1.328  1.1419  0.0597  0.9369
 1142SOL    HW2 3615   2.258   3.349   1.479 -1.9377  0.6029  0.8909
 1143SOL     OW 3616   0.648   1.418   3.852  0.0893  0.8844 -0.7599
 1143SOL    HW1 3617   0.590   1.441   3.779 -0.0945  0.5503 -0.7237
 1143SOL    HW2 3618   0.588   1.405   3.926  0.3332  1.8738 -0.3829
 1144SOL     OW 3619   3.434   3.797   4.581 -0.1061  0.0330 -0.0586
 1144SOL    HW1 3620   3.445   3.892   4.583 -0.6058  0.1177  2.8823
 1144SOL    HW2 3621   3.361   3.780   4.640  1.1868 -2.2992  0.9954
 1145SOL     OW 3622   0.354   0.886   2.048 -0.3643  0.2864 -0.2250
 1145SOL    HW1 3623   0.354   0.884   1.952 -0.9816  2.0610 -0.3052
 1145SOL    HW2 3624   0.264   0.868   2.073 -0.4559  0.9633 -0.0438
 1146SOL     OW 3625   0.507   3.004   2.523  0.3435 -0.1121 -0.0525
 1146SOL    HW1 3626   0.601   3.018   2.520  0.9902 -3.5402 -0.0385
 1146SOL    HW2 3627   0.477   3.024   2.434  1.3827 -0.5791 -0.5198
 1147SOL     OW 3628   4.055   4.140   4.776 -0.4332 -0.2332  0.2662
 1147SOL    HW1 3629   4.135   4.100   4.809 -0.7958 -2.9908 -1.8850
 1147SOL    HW2 3630   4.076   4.165   4.685 -1.5368  0.5423  0.2021
 1148SOL     OW 3631   4.207   0.013   2.718  0.1458 -0.1107  0.1072
 1148SOL    HW1 3632   4.273  -0.057   2.719  1.9440  1.4570  2.0183
 1148SOL    HW2 3633   4.257   0.093   2.700 -1.3475  1.0585  0.8734
 1149SOL     OW 3634   4.934   2.194   2.188  0.2640  0.3658  0.5852
 1149SOL    HW1 3635   5.025   2.209   2.213  1.0888 -1.5407 -0.9556
 1149SOL    HW2 3636   4.912   2.110   2.229 -1.1116  1.1558  1.5660
 1150SOL     OW 3637   0.217   0.226   3.797 -0.2191 -0.1941 -0.1419
 1150SOL    HW1 3638   0.257   0.178   3.870  0.6413  0.3394 -0.2556
 1150SOL    HW2 3639   0.146   0.169   3.768 -0.3365 -0.5911  0.8678
 1151SOL     OW 3640   1.739   0.762   3.731 -0.0425 -0.4818  0.5018
 1151SOL    HW1 3641   1.828   0.731   3.714  0.2062 -0.3233  1.4592
 1151SOL    HW2 3642   1.717   0.726   3.817 -0.7228 -0.1314  0.4821
 1152SOL     OW 3643   2.788   2.829   4.402  0.1148  0.2141  0.4965
 1152SOL    HW1 3644   2.874   2.787   4.409  0.6065  0.9017 -0.8591
 1152SOL    HW2 3645   2.738   2.795   4.475  1.0663 -1.3451  0.4688
 1153SOL     OW 3646   4.780   2.523   4.136 -0.7513  0.2551 -0.1917
 1153SOL    HW1 3647   4.770   2.440   4.088 -0.0467 -0.1098  0.2679
 1153SOL    HW2 3648   4.734   2.508   4.219 -0.6361  0.3258 -0.1146
 1154SOL     OW 3649   3.256   1.524   0.507  0.0199  0.8193 -0.4875
 1154SOL    HW1 3650   3.334   1.470   0.496  0.8017  1.7310  0.2811
 1154SOL    HW2 3651   3.205   1.479   0.574  1.3631  1.6846  1.2311
 1155SOL     OW 3652   3.049   3.884   3.260 -0.0364 -0.4207  0.0891
 1155SOL    HW1 3653   3.069   3.976   3.244 -1.5377 -0.1864 -0.6267
 1155SOL    HW2 3654   2.968   3.868   3.210 -1.0837 -1.5211  2.0288
 1156SOL     OW 3655   3.314   2.813   1.755 -0.3000  0.1439 -0.0662
 1156SOL    HW1 3656   3.360   2.747   1.806  1.8297 -0.9655 -3.1637
 1156SOL    HW2 3657   3.360   2.895   1.774 -0.7070  0.1262  1.0959
 1157SOL     OW 3658   4.903   3.599   3.140  0.2346  0.3739  0.3901
 1157SOL    HW1 3659   4.851   3.520   3.155  0.0393  0.2626 -0.7719
 1157SOL    HW2 3660   4.931   3.626   3.227  0.0199 -0.7838  0.8410
 1158SOL     OW 3661   2.596   0.030   4.273  0.0609  0.1770  0.0715
 1158SOL    HW1 3662   2.617  -0.033   4.204  0.2519  0.6244 -0.2816
 1158SOL    HW2 3663   2.606   0.115   4.232  0.4230  0.4548  0.7249
 1159SOL     OW 3664   1.091   4.162   3.448 -0.1302  0.5351  0.6112
 1159SOL    HW1 3665   1.029   4.136   3.516  0.6690 -1.5970  0.6009
 1159SOL    HW2 3666   1.158   4.212   3.494  1.0728 -1.9379  1.7204
 1160SOL     OW 3667   3.046   4.819   0.371  0.0492 -0.2617  0.4814
 1160SOL    HW1 3668   3.031   4.894   0.314 -0.8768  0.8428  2.1210
 1160SOL    HW2 3669   2.961   4.775   0.377  0.5620 -1.4504 -0.4011
 1161SOL     OW 3670   1.385   3.926   3.935  0.0612 -0.1688  0.1708
 1161SOL    HW1 3671   1.460   3.977   3.966  0.4308 -0.7100  0.1760
 1161SOL    HW2 3672   1.411   3.835   3.947  0.6389 -0.4484 -2.5820
 1162SOL     OW 3673   1.190   2.840   2.857 -0.2924  0.0840 -0.1053
 1162SOL    HW1 3674   1.196   2.896   2.934 -1.2720  1.5073 -1.0404
 1162SOL    HW2 3675   1.101   2.805   2.859  0.5371 -2.2342  0.9353
 1163SOL     OW 3676   0.550   4.904   2.215 -0.4250 -0.2761 -0.0021
 1163SOL    HW1 3677   0.561   4.964   2.288  0.0347 -0.4016  0.0291
 1163SOL    HW2 3678   0.547   4.961   2.138 -0.5859 -0.1698  0.0824
 1164SOL     OW 3679   2.724   0.225   0.832 -0.6674  0.1227 -0.5189
 1164SOL    HW1 3680   2.769   0.278   0.766  0.7109 -0.5053 -0.1081
 1164SOL    HW2 3681   2.764   0.250   0.915 -0.1413 -1.3920 -0.2923
 1165SOL     OW 3682   0.118   1.081   2.642 -0.6500  0.0994  0.3256
 1165SOL    HW1 3683   0.135   1.174   2.635 -0.7791  0.1774  0.9766
 1165SOL    HW2 3684   0.204   1.040   2.634 -0.7255  0.1940 -1.1354
 1166SOL     OW 3685   0.753   1.699   3.184 -0.2121  0.4548 -0.1904
 1166SOL    HW1 3686   0.678   1.692   3.126 -0.0904 -0.7242 -0.2330
 1166SOL    HW2 3687   0.753   1.616   3.233  1.4052  0.1468 -0.6440
 1167SOL     OW 3688   2.728   3.359   0.120  0.0445  0.5679 -0.2676
 1167SOL    HW1 3689   2.770   3.412   0.052  1.0780  0.6045  0.3806
 1167SOL    HW2 3690   2.703   3.422   0.187 -0.6353  0.4847 -0.4360
 1168SOL     OW 3691   4.138   0.012   0.804  0.0995 -0.2942  0.7035
 1168SOL    HW1 3692   4.163   0.007   0.896 -0.1200 -0.5700  0.7496
 1168SOL    HW2 3693   4.193  -0.055   0.762  0.7805  0.3834  0.5033
 1169SOL     OW 3694   3.245   3.573   0.083 -0.8249  0.3036 -0.4898
 1169SOL    HW1 3695   3.303   3.544   0.154 -2.5249 -0.4740  0.6514
 1169SOL    HW2 3696   3.288   3.651   0.048  0.1039  0.7078  1.3917
 1170SOL     OW 3697   2.785   1.550   4.422 -0.1800  0.5248 -0.2465
 1170SOL    HW1 3698   2.792   1.646   4.414  0.3648  0.6511  1.3382
 1170SOL    HW2 3699   2.869   1.518   4.391 -1.0544  0.3623 -2.6824
 1171SOL     OW 3700   0.474   2.273   3.205  0.3102 -0.0231 -0.0286
 1171SOL    HW1 3701   0.553   2.242   3.161 -0.0151 -0.3843 -0.3745
 1171SOL    HW2 3702   0.463   2.213   3.279 -0.7199 -1.2391 -1.1110
 1172SOL     OW 3703   1.099   1.203   4.236 -0.2773 -0.2005 -0.0766
 1172SOL    HW1 3704   1.004   1.205   4.243 -0.3790  1.0326 -1.2664
 1172SOL    HW2 3705   1.124   1.116   4.267 -1.6944 -0.2217  1.1059
 1173SOL     OW 3706   0.736   3.345   3.492 -0.5570 -0.7498  0.3914
 1173SOL    HW1 3707   0.795   3.366   3.420 -1.2286 -2.3800 -0.6883
 1173SOL    HW2 3708   0.769   3.398   3.566  1.8858 -1.1371 -0.3177
 1174SOL     OW 3709   4.081   1.632   3.117 -0.1702 -1.0830  0.1493
 1174SOL    HW1 3710   4.075   1.722   3.085  0.0704 -1.1916 -0.2022
 1174SOL    HW2 3711   4.175   1.618   3.132 -0.2819 -0.9880  1.0409
 1175SOL     OW 3712   4.532   3.088   0.052 -0.0924  0.2313  0.2165
 1175SOL    HW1 3713   4.461   3.148   0.031 -0.1477  0.5389  1.1965
 1175SOL    HW2 3714   4.567   3.060  -0.032 -1.4074  0.0306 -0.2887
 1176SOL     OW 3715   0.954   3.302   4.744 -0.3176 -0.3863 -0.4418
 1176SOL    HW1 3716   0.939   3.213   4.775  0.1036 -0.1609  0.4199
 1176SOL    HW2 3717   0.958   3.355   4.823 -1.5100  0.5617 -0.9834
 1177SOL     OW 3718   0.301   1.870   1.779  0.8993 -0.1904 -0.0584
 1177SOL    HW1 3719   0.370   1.929   1.810  0.2968  1.1256 -1.1156
 1177SOL    HW2 3720   0.314   1.790   1.828  0.0089  1.7156  3.6198
 1178SOL     OW 3721   4.225   3.612   1.794 -0.0557  0.0270 -0.2505
 1178SOL    HW1 3722   4.279   3.651   1.725  1.1711  0.0434  0.6669
 1178SOL    HW2 3723   4.275   3.535   1.822 -0.5918 -0.0484  0.5225
 1179SOL     OW 3724   0.893   0.381   3.611  0.1764  0.6814  0.3470
 1179SOL    HW1 3725   0.935   0.397   3.695 -1.8733  0.2144  1.5338
 1179SOL    HW2 3726   0.965   0.359   3.551  1.5879 -0.0682  2.2274
 1180SOL     OW 3727   1.041   0.171   3.228  0.1346 -0.0350  0.0731
 1180SOL    HW1 3728   0.996   0.119   3.294  0.9807 -1.3279 -0.3396
 1180SOL    HW2 3729   0.970   0.208   3.174 -0.4736 -2.2103 -0.7081
 1181SOL     OW 3730   4.055   3.890   4.382  0.0948 -0.0885 -0.2386
 1181SOL    HW1 3731   3.972   3.849   4.406  1.2675 -1.8002  1.2026
 1181SOL    HW2 3732   4.052   3.976   4.424 -1.1019  0.0454 -0.5612
 1182SOL     OW 3733   3.626   2.967   1.436 -0.2846 -0.1204 -0.1749
 1182SOL    HW1 3734   3.610   2.885   1.390 -1.9488 -0.8482  1.5630
 1182SOL    HW2 3735   3.544   3.016   1.426  0.2504  0.8134 -0.1259
 1183SOL     OW 3736   4.378   1.707   1.195 -0.3971  0.4058  0.1495
 1183SOL    HW1 3737   4.454   1.658   1.163  0.9972  1.7387  1.2701
 1183SOL    HW2 3738   4.412   1.759   1.268 -2.6253  0.2639  1.3844
 1184SOL     OW 3739   1.996   1.127   0.851 -0.3191 -0.4412  0.0984
 1184SOL    HW1 3740   2.079   1.083   0.869 -0.8444 -1.0295  1.2212
 1184SOL    HW2 3741   1.984   1.186   0.926  0.6686  2.1774 -1.6608
 1185SOL     OW 3742   1.469   0.698   2.081 -0.1948 -0.7237 -0.8313
 1185SOL    HW1 3743   1.385   0.734   2.110 -0.2993 -0.2250 -1.6889
 1185SOL    HW2 3744   1.533   0.734   2.142 -0.5809 -0.9334 -0.3015
 1186SOL     OW 3745   3.414   4.184   4.080  0.1286 -0.2416  0.4622
 1186SOL    HW1 3746   3.342   4.182   4.017  1.3507 -0.5947 -0.9747
 1186SOL    HW2 3747   3.384   4.129   4.152 -1.8458  1.2283  0.8619
 1187SOL     OW 3748   3.882   1.606   2.861 -0.2508 -0.1879  0.4074
 1187SOL    HW1 3749   3.913   1.600   2.952  1.1312  1.5905  0.1248
 1187SOL    HW2 3750   3.802   1.658   2.867  0.1766  0.4667  0.5675
 1188SOL     OW 3751   4.030   3.804   4.072  0.2528 -0.1203  0.8036
 1188SOL    HW1 3752   4.108   3.751   4.060 -1.5669 -2.5336 -1.3128
 1188SOL    HW2 3753   3.973   3.752   4.129 -1.3452 -0.2902 -0.8380
 1189SOL     OW 3754   1.292   0.501   1.957 -0.1940 -0.2494 -0.1708
 1189SOL    HW1 3755   1.212   0.539   1.921 -1.5692 -1.6871  1.2230
 1189SOL    HW2 3756   1.353   0.574   1.963 -1.6094  1.0172 -0.6556
 1190SOL     OW 3757   2.761   2.023   1.577 -0.1426  0.2979 -0.0684
 1190SOL    HW1 3758   2.781   1.996   1.667  0.0015 -0.0704 -0.2110
 1190SOL    HW2 3759   2.843   2.010   1.529 -0.3166  0.1634 -0.3317
 1191SOL     OW 3760   2.890   0.121   4.804  1.2121 -0.6717  0.0196
 1191SOL    HW1 3761   2.796   0.140   4.804  1.5558  1.2605  0.8627
 1191SOL    HW2 3762   2.916   0.132   4.713  0.3776 -2.9253 -0.5752
 1192SOL     OW 3763   0.733   0.728   3.389 -0.2900  0.1198 -0.0837
 1192SOL    HW1 3764   0.792   0.739   3.464 -2.4944 -1.1503  1.9819
 1192SOL    HW2 3765   0.781   0.766   3.315  1.5968  2.4184  2.1165
 1193SOL     OW 3766   0.657   3.381   3.120 -0.1075  0.4552  0.1618
 1193SOL    HW1 3767   0.608   3.340   3.048 -1.8403  4.2912 -1.1186
 1193SOL    HW2 3768   0.744   3.398   3.083 -0.0869 -0.0435 -0.0323
 1194SOL     OW 3769   3.712   2.005   4.153 -0.2918 -0.5690 -0.3891
 1194SOL    HW1 3770   3.721   1.910   4.153 -0.5960 -0.6024  0.4589
 1194SOL    HW2 3771   3.631   2.022   4.201 -0.3028  0.1131 -0.6348
 1195SOL     OW 3772   1.702   1.148   3.041 -0.3081  0.0921  0.3370
 1195SOL    HW1 3773   1.724   1.068   3.090 -2.0347  0.7318  2.3346
 1195SOL    HW2 3774   1.763   1.149   2.968  0.1756 -2.7389  0.5725
 1196SOL     OW 3775   2.466   0.872   2.318  0.4500 -0.5653 -0.3097
 1196SOL    HW1 3776   2.403   0.825   2.373  0.5444 -1.1488 -0.6873
 1196SOL    HW2 3777   2.496   0.806   2.255  0.5172  0.0275 -0.9096
 1197SOL     OW 3778   3.138   1.792   3.877  0.1709 -0.2255 -0.2209
 1197SOL    HW1 3779   3.101   1.871   3.838  1.3781 -0.2692 -1.5221
 1197SOL    HW2 3780   3.205   1.764   3.815  1.0125 -1.2537  1.1106
 1198SOL     OW 3781   1.678   0.111   0.970  0.5545  0.3224  0.6537
 1198SOL    HW1 3782   1.641   0.139   0.886  1.4282 -1.2729 -0.3166
 1198SOL    HW2 3783   1.632   0.029   0.990  1.1236  0.1279  1.1836
 1199SOL     OW 3784   0.368   3.253   3.587  0.1689 -0.2320  0.1178
 1199SOL    HW1 3785   0.419   3.322   3.631 -0.2966  0.0135  0.2776
 1199SOL    HW2 3786   0.370   3.180   3.648  0.1312 -0.1382  0.2334
 1200SOL     OW 3787   0.225   2.854   1.263 -0.5775  0.3717 -0.3897
 1200SOL    HW1 3788   0.149   2.890   1.307 -0.3056  0.0047  0.3986
 1200SOL    HW2 3789   0.298   2.871   1.323 -0.0098  0.8347 -1.1838
 1201SOL     OW 3790   3.229   4.658   4.516  0.4005  0.1814  0.0970
 1201SOL    HW1 3791   3.324   4.648   4.525  0.1649 -2.0114  0.7493
 1201SOL    HW2 3792   3.192   4.594   4.577 -1.5738  2.6423  1.6892
 1202SOL     OW 3793   3.505   0.792   4.842  0.0877 -0.3066 -0.0909
 1202SOL    HW1 3794   3.547   0.706   4.847  1.6588  0.4856  2.7052
 1202SOL    HW2 3795   3.423   0.781   4.889 -0.4886 -0.6253 -1.1412
 1203SOL     OW 3796   0.078   3.316   2.775  0.1498  0.4843 -0.3559
 1203SOL    HW1 3797   0.148   3.285   2.716  0.0481  1.5484 -1.0640
 1203SOL    HW2 3798   0.015   3.245   2.776  0.2107  0.3976 -1.4651
 1204SOL     OW 3799   2.417   2.885   3.934 -0.5357  0.0020  0.7648
 1204SOL    HW1 3800   2.458   2.966   3.963 -0.7837  0.5650 -0.3953
 1204SOL    HW2 3801   2.487   2.839   3.886 -0.3959 -0.4724  1.4166
 1205SOL     OW 3802   0.560   2.696   4.609 -0.0112 -0.2586 -0.3055
 1205SOL    HW1 3803   0.647   2.656   4.618  0.5651  0.6415 -1.5479
 1205SOL    HW2 3804   0.546   2.702   4.514 -1.1643  0.1771 -0.1213
 1206SOL     OW 3805   4.875   1.661   4.526  0.0226  0.2345 -0.4886
 1206SOL    HW1 3806   4.882   1.576   4.571 -0.5725  0.4490  0.0312
 1206SOL    HW2 3807   4.835   1.719   4.591  1.5071  1.2298 -0.4290
 1207SOL     OW 3808   4.000   1.663   3.469 -0.4302  0.2780  0.3964
 1207SOL    HW1 3809   4.003   1.735   3.406  1.3941 -0.5720 -0.5626
 1207SOL    HW2 3810   4.048   1.696   3.545  0.8327 -0.0467 -0.2280
 1208SOL     OW 3811   2.529   4.475   2.911  0.1920 -0.4826  0.3563
 1208SOL    HW1 3812   2.571   4.402   2.956  0.2133 -0.2175  0.7790
 1208SOL    HW2 3813   2.588   4.549   2.927 -0.0682 -0.2712  0.3370
 1209SOL     OW 3814   3.811   0.836   3.688  0.1557 -0.3217  0.1688
 1209SOL    HW1 3815   3.844   0.754   3.725  0.5244 -0.0792  0.3798
 1209SOL    HW2 3816   3.819   0.824   3.593 -0.4014 -0.7789  0.1695
 1210SOL     OW 3817   0.121   4.421   3.896 -0.3039 -0.1562 -0.0682
 1210SOL    HW1 3818   0.100   4.380   3.980 -1.3740  1.6167  0.5747
 1210SOL    HW2 3819   0.136   4.513   3.917  2.2348 -0.1788 -1.4315
 1211SOL     OW 3820   2.157   1.513   0.514 -0.6858 -0.6983  0.0273
 1211SOL    HW1 3821   2.251   1.499   0.522 -0.4350  1.6158  2.8419
 1211SOL    HW2 3822   2.118   1.430   0.543  0.5263 -0.8053  1.4752
 1212SOL     OW 3823   4.112   1.071   2.302  0.6132  0.5601 -0.1955
 1212SOL    HW1 3824   4.068   1.040   2.381 -1.6790 -0.2370 -1.6865
 1212SOL    HW2 3825   4.074   1.019   2.231 -0.2461  3.7764 -2.3249
 1213SOL     OW 3826   2.539   3.072   4.536  0.3587 -0.2499  0.4196
 1213SOL    HW1 3827   2.475   3.008   4.566  0.6884 -0.4737  0.6470
 1213SOL    HW2 3828   2.586   3.098   4.615  1.3188 -0.9313  0.0949
 1214SOL     OW 3829   4.347   4.439   3.587 -0.3497 -0.0482 -0.0643
 1214SOL    HW1 3830   4.315   4.391   3.510  1.3919 -0.1295 -0.7785
 1214SOL    HW2 3831   4.279   4.504   3.604 -1.4570 -0.9712 -0.7741
 1215SOL     OW 3832   4.296   1.253   1.268 -0.3773 -0.2149 -0.4159
 1215SOL    HW1 3833   4.301   1.256   1.363 -0.5737 -0.5389 -0.3952
 1215SOL    HW2 3834   4.260   1.339   1.243 -1.6376 -0.6369 -0.1055
 1216SOL     OW 3835   4.787   2.279   4.002 -0.3312  0.7037 -0.2501
 1216SOL    HW1 3836   4.859   2.243   3.951  1.1689  1.2962  1.3675
 1216SOL    HW2 3837   4.780   2.222   4.078 -1.0800  1.0876 -0.0230
 1217SOL     OW 3838   0.291   0.695   3.738  0.0561  0.2117  0.2174
 1217SOL    HW1 3839   0.209   0.719   3.781 -1.7632  0.5403 -3.1044
 1217SOL    HW2 3840   0.340   0.777   3.733 -0.5260  0.5549  0.0368
 1218SOL     OW 3841   4.484   0.053   3.489  0.0541  0.0053 -0.1621
 1218SOL    HW1 3842   4.480   0.140   3.530 -0.3844 -0.1897  0.2179
 1218SOL    HW2 3843   4.530   0.067   3.406 -0.3524  0.6640 -0.2771
 1219SOL     OW 3844   4.380   4.158   0.684  0.4289  0.2291 -0.0386
 1219SOL    HW1 3845   4.474   4.165   0.670  0.4496  1.9777  0.7162
 1219SOL    HW2 3846   4.370   4.142   0.778 -0.0301 -0.4768 -0.1947
 1220SOL     OW 3847   3.726   0.643   3.008  0.3976 -0.0268 -0.2387
 1220SOL    HW1 3848   3.639   0.616   2.977  0.4259 -1.2235  0.6105
 1220SOL    HW2 3849   3.736   0.733   2.977 -0.3134 -0.5196 -2.0469
 1221SOL     OW 3850   4.666   0.472   2.995  0.0085  0.1636  0.3190
 1221SOL    HW1 3851   4.726   0.464   3.068  0.3260 -1.3616 -0.0724
 1221SOL    HW2 3852   4.700   0.546   2.944  0.5407  0.4034  1.0109
 1222SOL     OW 3853   3.606   2.793   3.461 -0.7694  0.1018  0.3329
 1222SOL    HW1 3854   3.546   2.864   3.485 -0.1137  0.8047 -0.0739
 1222SOL    HW2 3855   3.604   2.734   3.537 -0.3594  1.2089  1.2489
 1223SOL     OW 3856   0.432   4.016   1.942 -0.1466  0.2480 -0.1148
 1223SOL    HW1 3857   0.521   4.023   1.907 -0.1680 -0.1022 -0.2474
 1223SOL    HW2 3858   0.443   3.968   2.024 -0.5854 -3.1621 -1.8729
 1224SOL     OW 3859   4.790   1.594   2.955  0.2841  0.3471  0.4736
 1224SOL    HW1 3860   4.712   1.583   3.010  0.4337 -1.2288  0.4076
 1224SOL    HW2 3861   4.759   1.583   2.866  0.5395 -0.0463  0.4320
 1225SOL     OW 3862   4.334   1.190   1.537 -0.2307  0.1901 -0.4979
 1225SOL    HW1 3863   4.430   1.187   1.535 -0.2562 -0.4800 -2.4191
 1225SOL    HW2 3864   4.309   1.107   1.577 -0.0203 -1.0195 -2.7578
 1226SOL     OW 3865   4.622   2.846   2.099  0.1170  0.1163  0.0937
 1226SOL    HW1 3866   4.636   2.812   2.010  0.2653 -0.1552  0.2182
 1226SOL    HW2 3867   4.527   2.847   2.109  0.1057 -1.4064  0.5034
 1227SOL     OW 3868   1.055   0.562   4.351  0.4406  0.0255 -0.3129
 1227SOL    HW1 3869   1.039   0.473   4.382  1.4784  0.4683  1.6377
 1227SOL    HW2 3870   1.139   0.557   4.305  0.6311  0.0493  0.0324
 1228SOL     OW 3871   1.434   1.959   1.011  0.7754  0.1860 -0.1699
 1228SOL    HW1 3872   1.380   1.946   0.934 -0.4018 -0.5716  0.7574
 1228SOL    HW2 3873   1.403   2.042   1.048 -0.6235 -0.8170  1.0109
 1229SOL     OW 3874   0.406   3.322   0.300  0.4087  0.3742  0.7027
 1229SOL    HW1 3875   0.315   3.293   0.285  0.4642  1.2517 -1.7724
 1229SOL    HW2 3876   0.454   3.240   0.316 -0.5344 -0.2756  0.3316
 1230SOL     OW 3877   3.755   0.607   3.430 -0.2368 -0.5586 -0.0128
 1230SOL    HW1 3878   3.769   0.531   3.488 -0.0069 -1.5306 -1.3037
 1230SOL    HW2 3879   3.828   0.604   3.369  0.0814  1.0647  0.2601
 1231SOL     OW 3880   1.270   1.245   4.038  0.4765 -0.4891 -0.8927
 1231SOL    HW1 3881   1.343   1.246   4.099 -1.1408 -1.9690  1.1987
 1231SOL    HW2 3882   1.192   1.246   4.093 -1.2157  2.4442 -3.0233
 1232SOL     OW 3883   1.645   1.299   2.705  0.1247 -0.6607  0.2859
 1232SOL    HW1 3884   1.682   1.369   2.651 -1.5154 -0.1975 -0.3055
 1232SOL    HW2 3885   1.624   1.341   2.788  1.0398 -0.9564  0.6722
 1233SOL     OW 3886   0.563   4.068   1.290 -0.3654 -0.1497 -0.4167
 1233SOL    HW1 3887   0.622   3.996   1.270 -1.6203 -1.1028 -0.8783
 1233SOL    HW2 3888   0.564   4.122   1.211 -1.4499 -1.1646 -1.1808
 1234SOL     OW 3889   1.578   1.545   0.933 -0.4295 -0.6497 -0.4443
 1234SOL    HW1 3890   1.589   1.640   0.932 -0.6922 -0.5896  0.8755
 1234SOL    HW2 3891   1.643   1.513   0.871 -0.9119  0.4372 -1.5423
 1235SOL     OW 3892   3.135   0.812   1.832  0.1127  0.1346 -0.6902
 1235SOL    HW1 3893   3.139   0.906   1.849 -1.0595 -0.0330  0.6488
 1235SOL    HW2 3894   3.200   0.774   1.891 -1.0626 -0.0786  0.5117
 1236SOL     OW 3895   2.542   0.133   0.625  0.0396 -0.3118  0.0971
 1236SOL    HW1 3896   2.546   0.192   0.550  2.0819 -1.4643 -0.8138
 1236SOL    HW2 3897   2.597   0.174   0.692  0.6180 -0.6412 -0.1600
 1237SOL     OW 3898   4.040   4.756   0.146 -0.2478 -1.1170 -0.1923
 1237SOL    HW1 3899   4.090   4.735   0.068  0.9848  1.9743 -0.3745
 1237SOL    HW2 3900   4.092   4.721   0.218  0.7710 -0.4075 -0.5585
 1238SOL     OW 3901   4.862   3.152   1.152  0.0112 -0.5477 -0.2404
 1238SOL    HW1 3902   4.837   3.156   1.060 -1.1504 -1.1262  0.0331
 1238SOL    HW2 3903   4.835   3.236   1.189  0.3519 -0.3711 -0.3820
 1239SOL     OW 3904   4.067   4.304   3.685  0.2081 -0.1177 -0.4272
 1239SOL    HW1 3905   4.149   4.317   3.733 -0.7756 -0.5989  1.4773
 1239SOL    HW2 3906   3.998   4.324   3.748 -1.2433  3.0725 -2.7589
 1240SOL     OW 3907   1.424   1.083   4.213 -0.0603  0.0850  0.4993
 1240SOL    HW1 3908   1.382   1.000   4.191  0.4880 -0.3661  1.1144
 1240SOL    HW2 3909   1.509   1.080   4.170  0.8582 -0.6337  2.2801
 1241SOL     OW 3910   4.535   2.902   1.117  0.1962 -0.3385 -0.0017
 1241SOL    HW1 3911   4.543   2.978   1.175  0.6259 -0.9797  0.8017
 1241SOL    HW2 3912   4.625   2.873   1.103 -0.0402 -1.6850  1.0584
 1242SOL     OW 3913   4.500   3.152   0.410 -0.2786  0.1580  0.2047
 1242SOL    HW1 3914   4.581   3.194   0.380  0.1847  0.2433  1.5028
 1242SOL    HW2 3915   4.431   3.214   0.387 -0.0859 -0.1915 -1.4845
 1243SOL     OW 3916   0.020   2.859   3.234  0.3042 -0.2618 -0.5740
 1243SOL    HW1 3917  -0.032   2.879   3.312  1.6823  0.0785  0.2963
 1243SOL    HW2 3918  -0.005   2.926   3.171  1.1899  1.2416  0.5842
 1244SOL     OW 3919   4.081   0.661   2.079  0.4559  0.9287  0.5969
 1244SOL    HW1 3920   4.143   0.598   2.041 -0.3428  0.7535 -0.4853
 1244SOL    HW2 3921   4.098   0.658   2.173 -0.6369 -2.1616  0.8211
 1245SOL     OW 3922   2.680   2.544   1.395 -0.0537 -0.5587 -0.4846
 1245SOL    HW1 3923   2.745   2.604   1.431  0.7196 -1.3493 -0.5158
 1245SOL    HW2 3924   2.730   2.466   1.371 -1.0856 -1.3936 -0.0400
 1246SOL     OW 3925   2.768   1.797   4.210 -0.2749 -0.2460 -0.3466
 1246SOL    HW1 3926   2.725   1.820   4.293 -0.0833  1.7739 -0.7597
 1246SOL    HW2 3927   2.843   1.856   4.204  0.3360 -1.0945 -1.4673
 1247SOL     OW 3928   0.554   4.173   4.132 -0.1711 -0.2092  0.8988
 1247SOL    HW1 3929   0.534   4.107   4.065  0.0542 -0.8829  1.4878
 1247SOL    HW2 3930   0.643   4.202   4.111 -1.1126  1.6865 -0.8064
 1248SOL     OW 3931   3.459   3.419   4.708 -0.5470  0.3591 -0.0314
 1248SOL    HW1 3932   3.496   3.369   4.635  1.6037  1.7786 -0.0245
 1248SOL    HW2 3933   3.485   3.370   4.786 -0.5771  0.2059 -0.1169
 1249SOL     OW 3934   0.223   0.541   4.057 -0.5897  0.9352 -0.2392
 1249SOL    HW1 3935   0.207   0.461   4.108  2.3303 -0.6860 -1.6248
 1249SOL    HW2 3936   0.170   0.529   3.978  0.0292  0.2020 -0.5586
 1250SOL     OW 3937   4.420   4.635   3.223 -0.1874  0.8891 -0.0059
 1250SOL    HW1 3938   4.444   4.557   3.173 -0.0751  1.3626 -0.6960
 1250SOL    HW2 3939   4.489   4.642   3.289 -0.4963  0.0967  0.4178
 1251SOL     OW 3940   0.263   4.529   2.322 -0.3352 -0.3004  0.3551
 1251SOL    HW1 3941   0.346   4.487   2.298  0.0431  0.0459  1.0293
 1251SOL    HW2 3942   0.257   4.605   2.263 -1.0155 -1.2633 -0.8591
 1252SOL     OW 3943   2.226   2.987   0.168 -0.1247 -0.0032  0.0024
 1252SOL    HW1 3944   2.297   2.988   0.104  0.8352  1.5765  1.0305
 1252SOL    HW2 3945   2.202   3.079   0.180 -0.3672 -0.2490  1.7658
 1253SOL     OW 3946   1.157   1.561   0.112 -0.3733  0.1339  0.2222
 1253SOL    HW1 3947   1.106   1.637   0.140  0.6915  1.8560 -2.2190
 1253SOL    HW2 3948   1.109   1.525   0.038 -0.3535 -1.0168  0.7417
 1254SOL     OW 3949   3.115   4.275   4.186 -0.1189  0.1710 -0.1665
 1254SOL    HW1 3950   3.054   4.201   4.194  0.3253 -0.1393  0.3976
 1254SOL    HW2 3951   3.111   4.299   4.094 -1.8288  0.7797  0.0227
 1255SOL     OW 3952   0.142   2.585   3.249 -0.3307  0.4506  0.1912
 1255SOL    HW1 3953   0.129   2.595   3.343 -2.1691  0.8173 -0.0735
 1255SOL    HW2 3954   0.081   2.646   3.209  0.1841  0.0652 -1.2627
 1256SOL     OW 3955   1.084   0.585   0.168 -0.1075  0.0920 -0.3550
 1256SOL    HW1 3956   1.174   0.576   0.200  0.2328 -0.1745 -1.3741
 1256SOL    HW2 3957   1.065   0.679   0.176 -0.3600 -0.0770  1.4605
 1257SOL     OW 3958   1.535   0.245   1.808  0.1529 -0.3584 -0.4515
 1257SOL    HW1 3959   1.498   0.301   1.740  0.3697  0.1438 -0.1672
 1257SOL    HW2 3960   1.601   0.301   1.851  0.8755 -1.0624 -0.6210
 1258SOL     OW 3961   2.582   0.426   2.921 -0.1591  0.2439  0.1194
 1258SOL    HW1 3962   2.512   0.430   2.857 -0.4812  2.0399  0.5455
 1258SOL    HW2 3963   2.541   0.450   3.004  0.7897  0.5998  0.5069
 1259SOL     OW 3964   1.964   2.137   2.560  0.0327 -0.2595 -0.6306
 1259SOL    HW1 3965   1.909   2.213   2.541 -1.0882 -0.7818  0.4317
 1259SOL    HW2 3966   2.038   2.174   2.609  0.8983  0.5034 -2.4096
 1260SOL     OW 3967   3.759   4.806   2.408 -0.2518 -0.0135  0.4166
 1260SOL    HW1 3968   3.798   4.892   2.425  1.5237 -0.6076 -0.3906
 1260SOL    HW2 3969   3.748   4.768   2.495  0.6910  0.3203  0.6973
 1261SOL     OW 3970   3.528   1.717   0.513 -0.3480  0.3933 -0.1033
 1261SOL    HW1 3971   3.503   1.712   0.420  0.6388 -0.3595 -0.3556
 1261SOL    HW2 3972   3.608   1.665   0.518 -0.8934 -0.3511  1.3600
 1262SOL     OW 3973   0.433   1.243   1.903 -0.1292  0.3180 -0.3360
 1262SOL    HW1 3974   0.422   1.296   1.982  1.0632 -2.7466  2.0837
 1262SOL    HW2 3975   0.517   1.272   1.866  0.9715 -0.4494  1.4709
 1263SOL     OW 3976   2.083   4.145   3.287 -0.2034 -0.0409  0.2534
 1263SOL    HW1 3977   2.008   4.100   3.249 -0.1816  0.0408  0.1131
 1263SOL    HW2 3978   2.056   4.237   3.292 -0.5656 -0.1942  1.3188
 1264SOL     OW 3979   2.357   1.126   0.836 -0.2943 -0.5695  0.3080
 1264SOL    HW1 3980   2.341   1.217   0.862 -0.9251 -0.9951  1.5161
 1264SOL    HW2 3981   2.369   1.080   0.919  2.2410 -1.2277 -0.3645
 1265SOL     OW 3982   3.590   0.718   1.334 -0.2108 -0.0538 -0.5893
 1265SOL    HW1 3983   3.495   0.728   1.327 -0.6208 -2.0253  1.3674
 1265SOL    HW2 3984   3.607   0.628   1.307  0.5928 -0.9255  2.4622
 1266SOL     OW 3985   0.504   4.440   2.225 -0.3820  0.3083 -0.1683
 1266SOL    HW1 3986   0.492   4.408   2.135  0.5452  3.2254 -1.4618
 1266SOL    HW2 3987   0.564   4.514   2.216 -0.4744  0.8728  2.8604
 1267SOL     OW 3988   0.265   0.335   3.036  0.5260 -0.2215 -0.4145
 1267SOL    HW1 3989   0.315   0.293   2.966  0.3815  0.1704 -0.7603
 1267SOL    HW2 3990   0.245   0.422   3.001 -2.3028 -1.0817 -1.2044
 1268SOL     OW 3991   2.954   3.963   3.886 -0.1477  0.6485 -0.3601
 1268SOL    HW1 3992   2.955   3.920   3.972  3.4734  1.5493  0.2174
 1268SOL    HW2 3993   2.940   3.892   3.824  0.2887 -0.5177  0.8252
 1269SOL     OW 3994   1.240   2.607   0.188 -0.2763  0.2189 -0.0024
 1269SOL    HW1 3995   1.156   2.563   0.179 -0.1844  0.2026 -0.8020
 1269SOL    HW2 3996   1.296   2.542   0.232 -0.6920  0.2633  0.6154
 1270SOL     OW 3997   1.641   1.051   4.053  0.2162  1.1353 -0.0498
 1270SOL    HW1 3998   1.717   0.994   4.058  0.1036  1.0531  0.9875
 1270SOL    HW2 3999   1.642   1.085   3.964  1.3486  0.9731 -0.1118
 1271SOL     OW 4000   2.193   0.862   3.627 -0.0138 -0.0198  0.2166
 1271SOL    HW1 4001   2.159   0.941   3.668 -2.8459 -0.9788 -0.0589
 1271SOL    HW2 4002   2.242   0.818   3.697  0.2744  1.1931  0.8071
 1272SOL     OW 4003   4.335   1.762   4.028 -0.0705  0.5615 -0.1230
 1272SOL    HW1 4004   4.412   1.766   3.971  0.1372 -1.4295 -0.0568
 1272SOL    HW2 4005   4.300   1.674   4.014 -0.7490  0.4760  1.8688
 1273SOL     OW 4006   4.722   4.048   3.438  0.4700 -0.2345  0.2593
 1273SOL    HW1 4007   4.689   4.134   3.411 -2.7822 -1.5558 -0.4654
 1273SOL    HW2 4008   4.760   4.011   3.358 -2.2158 -1.1029 -0.7592
 1274SOL     OW 4009   2.049   4.408   3.241 -0.0288  0.4348  0.0881
 1274SOL    HW1 4010   2.058   4.481   3.303  1.5223 -0.4388  0.9501
 1274SOL    HW2 4011   2.116   4.425   3.175 -0.3839  0.3550 -0.2896
 1275SOL     OW 4012   1.828   0.744   2.065  0.5197 -0.2386 -0.1746
 1275SOL    HW1 4013   1.879   0.789   1.997  1.2732  0.1896  0.6447
 1275SOL    HW2 4014   1.879   0.758   2.145 -2.5434  3.2648  1.4787
 1276SOL     OW 4015   0.328   1.438   3.419  0.1056  0.0078 -0.2581
 1276SOL    HW1 4016   0.238   1.410   3.406  0.2867 -0.8202  0.1962
 1276SOL    HW2 4017   0.321   1.518   3.471 -0.3349 -0.7485  0.8921
 1277SOL     OW 4018   1.290   0.614   3.994 -0.1530  0.3418  0.4921
 1277SOL    HW1 4019   1.367   0.561   3.974  0.7833  0.8893  2.3423
 1277SOL    HW2 4020   1.230   0.554   4.039 -0.2220  0.2395  0.2641
 1278SOL     OW 4021   4.088   2.616   1.981  0.5781  0.1141 -0.1180
 1278SOL    HW1 4022   4.036   2.569   2.047  0.2712  2.1956  1.2163
 1278SOL    HW2 4023   4.033   2.690   1.957  1.8311  0.8667 -0.7067
 1279SOL     OW 4024   0.148   4.738   4.633  0.3020 -0.3082 -0.0639
 1279SOL    HW1 4025   0.137   4.653   4.592  1.9663 -0.8628  0.5687
 1279SOL    HW2 4026   0.145   4.720   4.727  0.1144  0.4173  0.0749
 1280SOL     OW 4027   0.213   2.818   4.145  0.4724 -0.0919 -0.1889
 1280SOL    HW1 4028   0.258   2.847   4.225  0.0169 -2.1163  0.8799
 1280SOL    HW2 4029   0.147   2.756   4.176 -0.3106 -0.2744 -2.0906
 1281SOL     OW 4030   3.441   3.338   1.353 -0.3369  0.3432  0.1025
 1281SOL    HW1 4031   3.443   3.315   1.260 -1.8620  1.6422 -0.3140
 1281SOL    HW2 4032   3.519   3.391   1.366 -0.5454  0.8650 -0.6765
 1282SOL     OW 4033   2.463   4.363   4.282  0.5004 -0.1681 -0.5134
 1282SOL    HW1 4034   2.384   4.388   4.330  1.1389 -0.7758  0.8874
 1282SOL    HW2 4035   2.464   4.422   4.206 -1.6631 -0.6057 -0.9556
 1283SOL     OW 4036   2.406   0.929   4.708  0.6593 -0.3763 -0.4907
 1283SOL    HW1 4037   2.382   0.997   4.645 -0.5140  0.8793  1.2073
 1283SOL    HW2 4038   2.477   0.968   4.759 -1.3283  0.4771  1.7836
 1284SOL     OW 4039   4.458   1.502   3.296 -0.0013  0.6502 -0.2145
 1284SOL    HW1 4040   4.507   1.513   3.215 -0.6797 -0.1086 -0.7400
 1284SOL    HW2 4041   4.524   1.507   3.365  0.8127 -0.2714 -0.8998
 1285SOL     OW 4042   4.331   0.031   2.381  0.1030  0.0256  0.1066
 1285SOL    HW1 4043   4.398  -0.033   2.407 -0.0377 -0.3104 -0.3420
 1285SOL    HW2 4044   4.249  -0.008   2.412 -0.0514 -0.3155 -0.7192
 1286SOL     OW 4045   3.688   2.394   1.386 -0.1444  0.4995 -0.4892
 1286SOL    HW1 4046   3.715   2.303   1.371  0.5312  0.8091 -1.2646
 1286SOL    HW2 4047   3.594   2.395   1.371 -0.2283 -0.1546 -0.0448
 1287SOL     OW 4048   3.872   4.868   2.145 -0.1131 -0.0961 -0.5213
 1287SOL    HW1 4049   3.856   4.837   2.234 -4.1363  1.2632 -0.5965
 1287SOL    HW2 4050   3.885   4.962   2.155  0.0204 -0.0236 -1.3376
 1288SOL     OW 4051   0.995   1.523   4.869  0.2700 -0.3413 -0.4450
 1288SOL    HW1 4052   0.955   1.449   4.824  0.3481  1.0112 -2.8991
 1288SOL    HW2 4053   0.922   1.578   4.896  0.1873 -1.4019  1.7311
 1289SOL     OW 4054   1.922   4.083   1.002 -0.4285 -0.3185  0.2552
 1289SOL    HW1 4055   1.973   4.113   1.078 -0.2637 -0.4983  0.2176
 1289SOL    HW2 4056   1.872   4.160   0.975  0.4616  0.1182 -0.2269
 1290SOL     OW 4057   0.770   3.692   0.159  0.1413  0.1733  0.6271
 1290SOL    HW1 4058   0.679   3.713   0.136 -0.5533  1.0670  3.7074
 1290SOL    HW2 4059   0.763   3.619   0.221  1.5340  0.3122  0.9780
 1291SOL     OW 4060   2.746   2.936   3.286 -0.3666 -0.0961  0.3750
 1291SOL    HW1 4061   2.654   2.913   3.289 -1.2152  2.9918  1.5042
 1291SOL    HW2 4062   2.756   2.988   3.207 -0.2438  1.7389  1.5434
 1292SOL     OW 4063   1.928   0.434   3.483  0.0458 -0.0312 -0.1895
 1292SOL    HW1 4064   1.951   0.495   3.553 -1.0149 -1.3665  1.3754
 1292SOL    HW2 4065   1.990   0.362   3.492  1.6219  0.9118 -2.3449
 1293SOL     OW 4066   4.081   0.392   1.651  0.2762  0.1144 -0.2423
 1293SOL    HW1 4067   4.008   0.350   1.697 -0.1669 -2.1549 -2.7683
 1293SOL    HW2 4068   4.159   0.355   1.691 -0.0626 -0.6056 -0.2245
 1294SOL     OW 4069   3.434   3.192   0.871  0.1160 -0.8728  0.2373
 1294SOL    HW1 4070   3.459   3.278   0.907 -1.8600 -0.1422  0.0099
 1294SOL    HW2 4071   3.483   3.186   0.789  1.0696 -0.4439  0.7519
 1295SOL     OW 4072   1.654   3.931   3.239 -0.4516  0.1703  0.2354
 1295SOL    HW1 4073   1.641   3.930   3.333 -0.5924 -1.1144  0.2237
 1295SOL    HW2 4074   1.599   4.003   3.207  2.1472  2.8948  1.4185
 1296SOL     OW 4075   0.566   3.002   0.482 -0.3119  0.5249  0.0052
 1296SOL    HW1 4076   0.532   3.013   0.393 -0.1952 -0.0404 -0.1109
 1296SOL    HW2 4077   0.496   2.959   0.530 -0.0154 -0.0438 -0.0640
 1297SOL     OW 4078   1.602   2.844   2.851 -0.3749 -0.9377  0.1605
 1297SOL    HW1 4079   1.575   2.766   2.899 -1.8606 -0.3825  0.2836
 1297SOL    HW2 4080   1.542   2.848   2.776 -0.5099  0.2305  0.3119
 1298SOL     OW 4081   3.715   3.037   3.281 -0.6157  0.1497  0.0142
 1298SOL    HW1 4082   3.668   2.968   3.328 -1.7027  0.7828 -0.1200
 1298SOL    HW2 4083   3.647   3.098   3.252  0.2686  1.0169 -0.3149
 1299SOL     OW 4084   1.305   4.232   1.327 -0.3486  0.5225  0.7029
 1299SOL    HW1 4085   1.316   4.247   1.234  0.8895  0.7818  0.8763
 1299SOL    HW2 4086   1.388   4.193   1.355 -0.7311  0.3837  1.6775
 1300SOL     OW 4087   0.036   1.615   1.949  0.0135 -0.0354  0.1146
 1300SOL    HW1 4088   0.047   1.600   2.043 -0.2134 -1.2616 -0.0404
 1300SOL    HW2 4089   0.029   1.711   1.941 -1.0554  0.0364  1.4637
 1301SOL     OW 4090   4.921   0.105   3.725  0.0683 -0.0911  0.2055
 1301SOL    HW1 4091   4.909   0.023   3.773  1.3896 -0.2802  0.2498
 1301SOL    HW2 4092   4.860   0.166   3.766 -0.0708 -0.7297  0.9709
 1302SOL     OW 4093   2.326   0.499   4.192 -0.3600  0.0041  0.0282
 1302SOL    HW1 4094   2.326   0.483   4.286 -1.9379  2.4165  0.5200
 1302SOL    HW2 4095   2.417   0.489   4.166  0.3296  0.5590  2.0590
 1303SOL     OW 4096   4.315   3.547   0.460 -0.4142  0.0328  0.5940
 1303SOL    HW1 4097   4.367   3.557   0.539 -0.0438 -2.3765  0.7478
 1303SOL    HW2 4098   4.238   3.498   0.487 -0.8249  0.1362 -0.3370
 1304SOL     OW 4099   1.546   0.456   4.938  0.3821 -0.2180 -0.1716
 1304SOL    HW1 4100   1.579   0.368   4.919  1.2169  0.2874 -1.1738
 1304SOL    HW2 4101   1.463   0.441   4.983  1.4446 -1.5345  1.5174
 1305SOL     OW 4102   3.323   0.597   1.266  0.3373 -0.0289 -0.1192
 1305SOL    HW1 4103   3.256   0.640   1.319 -0.2347 -0.6399 -0.3341
 1305SOL    HW2 4104   3.331   0.652   1.188  0.4086  0.2865  0.1088
 1306SOL     OW 4105   1.192   4.734   0.919  0.0851  0.1922 -0.2160
 1306SOL    HW1 4106   1.284   4.757   0.909 -0.1482  1.6758  0.7588
 1306SOL    HW2 4107   1.152   4.810   0.960 -1.4322 -0.7321  0.1160
 1307SOL     OW 4108   3.795   4.231   2.540  0.4980 -0.2222  0.0891
 1307SOL    HW1 4109   3.861   4.186   2.487 -0.4420 -0.7238 -0.6945
 1307SOL    HW2 4110   3.712   4.213   2.495 -0.3146 -0.4945  1.6338
 1308SOL     OW 4111   2.368   2.848   3.588 -0.2061  0.3487  0.1787
 1308SOL    HW1 4112   2.367   2.781   3.656 -1.0056 -0.5980 -0.7308
 1308SOL    HW2 4113   2.459   2.850   3.557  0.4302  1.5709  1.9746
 1309SOL     OW 4114   2.846   3.891   2.337  0.2836 -0.2145 -0.5601
 1309SOL    HW1 4115   2.823   3.976   2.375 -1.6618 -1.6914  1.9439
 1309SOL    HW2 4116   2.903   3.851   2.403 -0.9149 -1.8057 -0.4417
 1310SOL     OW 4117   0.548   3.907   2.182 -0.4575 -0.7111 -0.0541
 1310SOL    HW1 4118   0.644   3.907   2.183 -0.4110 -1.9098  2.0390
 1310SOL    HW2 4119   0.523   3.926   2.273 -2.1517 -1.7022 -0.2694
 1311SOL     OW 4120   4.690   4.430   2.839  0.3154 -0.4891 -0.9005
 1311SOL    HW1 4121   4.666   4.375   2.914 -1.1783  1.0055 -0.2050
 1311SOL    HW2 4122   4.785   4.439   2.846  0.1853 -0.0195  1.1324
 1312SOL     OW 4123   0.725   2.594   3.117  0.0530  0.2521  0.0792
 1312SOL    HW1 4124   0.765   2.678   3.094 -0.0989 -0.1915 -2.0425
 1312SOL    HW2 4125   0.631   2.611   3.113  0.0160 -0.1259 -0.9103
 1313SOL     OW 4126   2.461   4.657   2.418  0.6610 -0.1101  0.6624
 1313SOL    HW1 4127   2.387   4.714   2.438 -0.6796 -1.7686  0.6236
 1313SOL    HW2 4128   2.538   4.715   2.422 -0.5825  1.5888  0.9963
 1314SOL     OW 4129   2.225   1.971   0.208 -0.2330  0.1193 -0.0744
 1314SOL    HW1 4130   2.177   1.895   0.239  0.6958 -0.2429  0.5021
 1314SOL    HW2 4131   2.245   1.951   0.116 -1.9762  0.6919 -0.6155
 1315SOL     OW 4132   3.027   3.005   1.793 -1.0022  0.0785  0.0858
 1315SOL    HW1 4133   3.030   2.910   1.797  1.6893  0.0975  2.9477
 1315SOL    HW2 4134   3.049   3.033   1.882 -2.3798  3.3987 -0.4824
 1316SOL     OW 4135   4.399   2.894   0.787 -0.5856  0.0407 -0.4000
 1316SOL    HW1 4136   4.391   2.802   0.762  0.8263 -0.2331  0.0526
 1316SOL    HW2 4137   4.476   2.925   0.738  0.1016  0.4412  0.8974
 1317SOL     OW 4138   0.781   3.796   2.997 -0.1727  0.4740 -0.4785
 1317SOL    HW1 4139   0.782   3.792   3.093 -1.3167 -1.1047 -0.4772
 1317SOL    HW2 4140   0.873   3.796   2.971  0.1719 -1.3991  0.5949
 1318SOL     OW 4141   0.548   1.448   0.814 -0.2461 -0.0384  0.1893
 1318SOL    HW1 4142   0.637   1.478   0.796  0.7022 -1.7779  1.6521
 1318SOL    HW2 4143   0.514   1.511   0.878  1.1878 -1.1450  2.1458
 1319SOL     OW 4144   4.116   2.273   1.989  0.4688 -0.6526  0.1707
 1319SOL    HW1 4145   4.075   2.302   1.908 -1.8760  0.9678  1.8258
 1319SOL    HW2 4146   4.167   2.196   1.963 -0.1088 -0.1607 -2.8175
 1320SOL     OW 4147   1.619   4.011   2.721 -0.4551 -0.1653  0.5790
 1320SOL    HW1 4148   1.672   4.066   2.663 -0.8938 -0.5362 -0.1954
 1320SOL    HW2 4149   1.682   3.977   2.785  0.5157 -1.4483 -0.9470
 1321SOL     OW 4150   3.313   4.853   2.235 -0.1699 -0.1981  0.3003
 1321SOL    HW1 4151   3.336   4.932   2.283 -0.3987  0.5609 -0.8193
 1321SOL    HW2 4152   3.375   4.849   2.162 -0.2060 -1.0114  0.3001
 1322SOL     OW 4153   4.712   4.650   0.279 -0.3482 -0.3546 -0.2041
 1322SOL    HW1 4154   4.768   4.615   0.209 -1.1969 -1.2075 -0.4905
 1322SOL    HW2 4155   4.632   4.678   0.234 -0.1187  0.9513  0.1829
 1323SOL     OW 4156   3.701   4.348   0.295  0.1780  0.2255 -0.3706
 1323SOL    HW1 4157   3.696   4.409   0.221  1.8744  0.5550 -0.2575
 1323SOL    HW2 4158   3.688   4.403   0.372 -0.9879 -0.0189 -0.3822
 1324SOL     OW 4159   0.570   3.655   3.141 -0.5383 -0.0430 -0.2438
 1324SOL    HW1 4160   0.619   3.574   3.128  0.0558  0.1184  0.8732
 1324SOL    HW2 4161   0.498   3.631   3.199  0.1165  0.3712  0.7752
 1325SOL     OW 4162   1.335   2.311   3.184  0.5042  0.1166  0.1483
 1325SOL    HW1 4163   1.364   2.389   3.231  1.0822 -1.0233  1.7423
 1325SOL    HW2 4164   1.415   2.260   3.169  0.1341 -0.1933 -0.8438
 1326SOL     OW 4165   2.512   4.729   0.935 -0.1062  0.6269 -0.0752
 1326SOL    HW1 4166   2.497   4.637   0.912  0.3379  1.0623 -2.2790
 1326SOL    HW2 4167   2.599   4.730   0.974 -0.5111  0.0085  0.9202
 1327SOL     OW 4168   2.837   4.297   1.302 -0.7693  0.6679 -0.0429
 1327SOL    HW1 4169   2.834   4.268   1.211  0.6076  0.5024 -0.0618
 1327SOL    HW2 4170   2.821   4.217   1.352  0.6790  0.2834 -0.1343
 1328SOL     OW 4171   4.409   4.322   4.492 -0.3838  0.6594  0.2540
 1328SOL    HW1 4172   4.427   4.313   4.586 -1.2187  0.6407  0.4150
 1328SOL    HW2 4173   4.483   4.373   4.459  0.6394 -0.4922  0.6627
 1329SOL     OW 4174   1.573   4.644   1.759 -0.0938  0.0917 -0.0604
 1329SOL    HW1 4175   1.567   4.739   1.749  0.9006  0.3586  1.5825
 1329SOL    HW2 4176   1.550   4.628   1.851 -1.4538 -1.4041 -0.6094
 1330SOL     OW 4177   2.007   0.059   4.046  0.1480 -0.2301 -0.2583
 1330SOL    HW1 4178   2.062   0.117   4.098 -2.3607  1.4716  0.6507
 1330SOL    HW2 4179   1.938   0.032   4.105 -1.4576 -0.1993 -2.0265
 1331SOL     OW 4180   2.806   1.634   0.685 -0.0441 -0.2042 -0.3168
 1331SOL    HW1 4181   2.767   1.644   0.598  0.7027 -0.2615 -0.6666
 1331SOL    HW2 4182   2.763   1.556   0.721 -0.7775  0.1519 -0.3906
 1332SOL     OW 4183   0.610   2.416   4.752 -0.1806  0.0815 -0.4174
 1332SOL    HW1 4184   0.565   2.396   4.670  0.7076 -0.8741 -0.6996
 1332SOL    HW2 4185   0.679   2.350   4.758 -1.5281 -1.2884  2.1512
 1333SOL     OW 4186   4.370   1.460   2.827 -0.0736 -0.5995 -0.1860
 1333SOL    HW1 4187   4.424   1.468   2.749  1.3885 -1.1867  0.7123
 1333SOL    HW2 4188   4.307   1.531   2.821  2.4142  1.7905 -0.0705
 1334SOL     OW 4189   3.725   2.348   0.631  0.0090  0.7370  0.8294
 1334SOL    HW1 4190   3.764   2.288   0.567 -0.5082  0.2669  0.9511
 1334SOL    HW2 4191   3.786   2.421   0.635  0.4778  0.3746  0.4282
 1335SOL     OW 4192   0.384   2.629   3.976 -0.1300 -0.5553 -0.4410
 1335SOL    HW1 4193   0.432   2.705   3.945  1.7406 -0.8569  1.4671
 1335SOL    HW2 4194   0.325   2.664   4.043 -0.9358 -0.5238 -1.1393
 1336SOL     OW 4195   0.380   4.418   3.134  0.3657 -0.0800 -0.7716
 1336SOL    HW1 4196   0.462   4.371   3.146  0.7372  0.8029  0.3966
 1336SOL    HW2 4197   0.381   4.485   3.203 -1.7759 -0.6872 -0.0851
 1337SOL     OW 4198   4.860   4.609   1.305 -0.5857  0.0717 -0.3725
 1337SOL    HW1 4199   4.909   4.587   1.384 -0.1194  1.2861 -0.3067
 1337SOL    HW2 4200   4.836   4.524   1.267  2.6072 -0.6473 -1.0510
 1338SOL     OW 4201   1.170   3.420   0.554 -0.0136 -0.2460 -0.0150
 1338SOL    HW1 4202   1.258   3.406   0.588  1.0754  0.8810 -2.1148
 1338SOL    HW2 4203   1.183   3.470   0.473 -2.4365 -1.7002 -1.4492
 1339SOL     OW 4204   4.010   3.269   0.016  0.6465 -0.2169 -0.1154
 1339SOL    HW1 4205   3.963   3.185   0.019 -1.8296  1.0780 -0.3455
 1339SOL    HW2 4206   3.979   3.311  -0.064  0.6257  1.5702  0.7945
 1340SOL     OW 4207   1.438   0.101   0.119  0.0024 -0.5572  0.0733
 1340SOL    HW1 4208   1.489   0.067   0.193  0.7442 -0.5433 -0.4254
 1340SOL    HW2 4209   1.353   0.056   0.126 -0.1221 -0.1790  1.2187
 1341SOL     OW 4210   0.918   1.446   1.439  0.3625  0.0557 -0.5774
 1341SOL    HW1 4211   0.937   1.362   1.481  0.3358  1.2438  2.0613
 1341SOL    HW2 4212   0.981   1.507   1.478 -0.3928  1.4943 -1.5036
 1342SOL     OW 4213   2.711   4.288   3.293  0.4248 -0.1566 -0.2088
 1342SOL    HW1 4214   2.696   4.309   3.201 -0.9051  0.6804  0.1675
 1342SOL    HW2 4215   2.806   4.280   3.301  0.6017  0.4720 -1.4953
 1343SOL     OW 4216   0.104   0.608   1.854  0.1256 -0.5172 -0.3105
 1343SOL    HW1 4217   0.194   0.575   1.857  0.4324  0.3871  0.8812
 1343SOL    HW2 4218   0.097   0.668   1.928 -1.2061  0.0949 -0.8944
 1344SOL     OW 4219   4.657   3.827   4.921  0.3680  0.1196  0.3052
 1344SOL    HW1 4220   4.699   3.741   4.919  0.9809  0.4217 -0.5160
 1344SOL    HW2 4221   4.563   3.808   4.919  0.4921 -0.5318  0.5226
 1345SOL     OW 4222   2.972   3.179   4.890 -0.2788 -0.0226  0.2847
 1345SOL    HW1 4223   2.948   3.119   4.819  2.2738 -0.4604 -0.3062
 1345SOL    HW2 4224   2.984   3.264   4.846  1.2858 -0.2899  0.1251
 1346SOL     OW 4225   0.869   2.210   0.330 -0.1479 -1.1170  0.2879
 1346SOL    HW1 4226   0.878   2.246   0.242 -0.4476 -2.2459 -0.2237
 1346SOL    HW2 4227   0.958   2.188   0.356  0.4182  2.2302  1.6440
 1347SOL     OW 4228   0.962   4.853   3.653 -0.1826 -0.4287  0.0971
 1347SOL    HW1 4229   1.031   4.801   3.614 -0.5014 -2.2130  1.7357
 1347SOL    HW2 4230   0.996   4.878   3.739 -0.5975  0.8659 -0.0944
 1348SOL     OW 4231   3.986   4.738   1.936 -0.0890 -0.2202  0.0397
 1348SOL    HW1 4232   4.081   4.730   1.938 -0.0448 -0.5401 -1.7315
 1348SOL    HW2 4233   3.964   4.788   2.014  1.4876 -0.4851  0.6849
 1349SOL     OW 4234   0.149   1.222   0.974 -0.3991 -0.5405  0.6549
 1349SOL    HW1 4235   0.132   1.311   0.944  3.6021  0.3436  0.4877
 1349SOL    HW2 4236   0.125   1.167   0.899 -0.8420  0.6167 -0.0730
 1350SOL     OW 4237   4.182   0.043   1.740  0.1986  0.2715 -0.0593
 1350SOL    HW1 4238   4.230  -0.039   1.729 -0.3196 -0.0825  0.2607
 1350SOL    HW2 4239   4.094   0.016   1.764  0.0166  0.9259  0.0292
 1351SOL     OW 4240   1.324   4.317   3.504  0.4043 -0.4658 -0.1221
 1351SOL    HW1 4241   1.401   4.267   3.479  0.5247 -0.9064  1.0943
 1351SOL    HW2 4242   1.313   4.380   3.433  1.2971 -1.0407 -0.7922
 1352SOL     OW 4243   4.822   4.469   0.453 -0.1639  0.3032 -0.4886
 1352SOL    HW1 4244   4.804   4.450   0.545 -0.5759  1.0220 -0.4189
 1352SOL    HW2 4245   4.763   4.541   0.430 -0.7550 -0.4980 -1.5902
 1353SOL     OW 4246   4.392   1.055   0.279  0.0394 -0.0546 -0.4580
 1353SOL    HW1 4247   4.373   1.146   0.302 -0.1554 -0.0777 -0.5189
 1353SOL    HW2 4248   4.382   1.007   0.361 -1.3320 -0.2379 -0.7058
 1354SOL     OW 4249   4.835   3.154   2.721 -0.0456 -0.7954 -0.4780
 1354SOL    HW1 4250   4.786   3.085   2.765 -1.1447 -1.1141 -2.1287
 1354SOL    HW2 4251   4.859   3.118   2.636  1.2522  0.1090 -0.5333
 1355SOL     OW 4252   0.096   2.907   2.352 -0.3487  0.2981 -0.2978
 1355SOL    HW1 4253   0.062   2.892   2.264  1.6363 -1.2448 -0.8975
 1355SOL    HW2 4254   0.186   2.937   2.338 -0.3665  1.1476  1.2122
 1356SOL     OW 4255   0.431   1.201   0.745 -0.3577  0.2528 -0.3454
 1356SOL    HW1 4256   0.387   1.218   0.662  0.7082  0.2401 -0.9402
 1356SOL    HW2 4257   0.487   1.277   0.759 -0.5133  0.2438  0.3574
 1357SOL     OW 4258   2.593   0.594   4.580 -0.2693  0.4258 -0.0496
 1357SOL    HW1 4259   2.600   0.527   4.648  0.0882 -0.3511 -0.8187
 1357SOL    HW2 4260   2.663   0.572   4.518 -1.7721 -0.0683 -1.6633
 1358SOL     OW 4261   0.651   3.542   2.157  0.2748 -0.1143  0.2613
 1358SOL    HW1 4262   0.726   3.594   2.186  0.6823 -0.1903 -0.6258
 1358SOL    HW2 4263   0.690   3.466   2.114 -0.3180 -0.9712  1.1975
 1359SOL     OW 4264   3.995   0.171   3.656  0.5032  0.7558  0.2495
 1359SOL    HW1 4265   4.008   0.139   3.567  0.1041  2.8423 -0.6269
 1359SOL    HW2 4266   4.072   0.140   3.705  0.5673 -0.6850 -0.7185
 1360SOL     OW 4267   0.942   0.985   1.734 -0.3467 -0.4538 -0.2478
 1360SOL    HW1 4268   1.013   0.927   1.708 -1.3047 -2.2930  0.9832
 1360SOL    HW2 4269   0.869   0.961   1.675 -0.3722  0.4276 -0.5833
 1361SOL     OW 4270   4.694   1.763   4.746 -0.4101  0.1429  0.5857
 1361SOL    HW1 4271   4.615   1.727   4.786 -0.9064 -0.3763 -0.8088
 1361SOL    HW2 4272   4.684   1.858   4.753 -0.7818  0.0660  1.1130
 1362SOL     OW 4273   1.117   1.815   1.880  0.0664  0.2402 -0.0848
 1362SOL    HW1 4274   1.146   1.830   1.970  1.5953 -0.5563 -0.4226
 1362SOL    HW2 4275   1.075   1.729   1.883 -1.8249  1.1256  0.2741
 1363SOL     OW 4276   4.664   4.063   4.797 -0.8537 -0.1312  0.4411
 1363SOL    HW1 4277   4.713   4.121   4.855 -0.0627 -0.3840  0.0285
 1363SOL    HW2 4278   4.687   3.975   4.826  2.5905 -0.4337 -2.5948
 1364SOL     OW 4279   1.146   1.505   4.253  0.4139  0.3372 -0.2507
 1364SOL    HW1 4280   1.218   1.513   4.316 -0.8822  0.5201  1.2828
 1364SOL    HW2 4281   1.121   1.413   4.257  0.4222  0.3172 -0.6234
 1365SOL     OW 4282   3.382   4.292   2.702  0.2343 -0.0041 -0.8230
 1365SOL    HW1 4283   3.402   4.384   2.683 -1.4335 -0.0007 -2.8366
 1365SOL    HW2 4284   3.308   4.271   2.645 -0.6320 -2.0898  0.9443
 1366SOL     OW 4285   1.159   4.555   1.100 -0.1562 -0.3033  0.4038
 1366SOL    HW1 4286   1.163   4.613   1.024 -0.2853 -0.6824  0.1027
 1366SOL    HW2 4287   1.184   4.469   1.065  0.6438 -0.3098  0.9688
 1367SOL     OW 4288   3.287   3.013   0.677 -0.3348 -0.0015  0.2117
 1367SOL    HW1 4289   3.336   3.014   0.759 -0.5308 -3.0098  0.4669
 1367SOL    HW2 4290   3.223   2.943   0.687 -0.7480 -0.0931 -2.3013
 1368SOL     OW 4291   2.146   1.754   0.803  0.3662  0.5261 -0.0167
 1368SOL    HW1 4292   2.105   1.668   0.816 -1.5576  1.4306  0.3712
 1368SOL    HW2 4293   2.230   1.748   0.848 -0.3897 -0.6820  1.3311
 1369SOL     OW 4294   0.563   2.689   0.296 -0.7268  0.0060 -0.1606
 1369SOL    HW1 4295   0.530   2.622   0.355 -0.2201 -0.7943 -0.7630
 1369SOL    HW2 4296   0.484   2.723   0.252 -0.9671 -0.3553 -0.0148
 1370SOL     OW 4297   0.539   1.526   4.353  0.1003 -0.5341 -0.1534
 1370SOL    HW1 4298   0.477   1.598   4.344  0.9055  0.2803  0.5284
 1370SOL    HW2 4299   0.489   1.456   4.395 -0.7370 -0.4370 -0.9752
 1371SOL     OW 4300   0.711   1.023   1.990 -0.6168  0.0072  0.8562
 1371SOL    HW1 4301   0.767   1.100   1.986 -0.0448 -0.4582 -0.3980
 1371SOL    HW2 4302   0.637   1.051   2.045 -0.8004  1.6924 -0.1687
 1372SOL     OW 4303   3.571   1.129   3.509  0.0881 -0.5127  0.2800
 1372SOL    HW1 4304   3.586   1.121   3.603  1.4594  1.0281  0.2283
 1372SOL    HW2 4305   3.569   1.038   3.477 -1.5273 -1.1207  1.9097
 1373SOL     OW 4306   1.949   0.391   2.664 -0.0901 -0.2942 -0.5558
 1373SOL    HW1 4307   1.866   0.378   2.710  0.9338  2.1001  2.2791
 1373SOL    HW2 4308   1.988   0.303   2.660 -1.7722 -1.1074  0.0140
 1374SOL     OW 4309   3.445   3.543   2.878  0.1158  0.6063 -0.5258
 1374SOL    HW1 4310   3.410   3.622   2.919  0.3418  0.5809 -0.2780
 1374SOL    HW2 4311   3.510   3.575   2.815  0.4463  0.6094 -0.1910
 1375SOL     OW 4312   1.006   3.541   2.674 -0.2622 -0.0016  0.0766
 1375SOL    HW1 4313   1.074   3.578   2.618 -0.5759 -0.0179 -0.3224
 1375SOL    HW2 4314   1.053   3.483   2.734  0.0376 -0.2597 -0.4059
 1376SOL     OW 4315   2.134   1.367   1.733 -0.5345  0.0339 -0.2839
 1376SOL    HW1 4316   2.124   1.383   1.827  2.2006  0.2160  0.0451
 1376SOL    HW2 4317   2.118   1.453   1.693 -2.1562 -0.1363 -0.0874
 1377SOL     OW 4318   1.764   3.930   3.773  0.4864  0.5333  0.6121
 1377SOL    HW1 4319   1.811   3.945   3.855 -1.1973  0.0551  1.7354
 1377SOL    HW2 4320   1.710   3.852   3.791 -0.9882  1.2616 -0.4521
 1378SOL     OW 4321   2.130   2.980   0.457  0.4343  0.2671 -0.0417
 1378SOL    HW1 4322   2.139   2.886   0.443 -0.9285  0.1438 -0.2115
 1378SOL    HW2 4323   2.149   3.019   0.372 -0.5980  0.0177 -0.4024
 1379SOL     OW 4324   2.481   1.143   0.437  0.0684 -0.2334 -0.4180
 1379SOL    HW1 4325   2.518   1.165   0.523  0.9802 -1.0226 -0.5850
 1379SOL    HW2 4326   2.389   1.126   0.454  0.2011 -0.1863  0.3793
 1380SOL     OW 4327   0.645   3.020   4.787  0.4987 -0.2227 -0.6514
 1380SOL    HW1 4328   0.587   2.946   4.803 -1.2041  0.8061 -1.7289
 1380SOL    HW2 4329   0.710   3.015   4.857  0.2112 -2.4867 -0.4742
 1381SOL     OW 4330   4.336   0.523   4.255 -0.1844  0.0700  0.4798
 1381SOL    HW1 4331   4.241   0.536   4.264 -0.0772  0.1405  1.6831
 1381SOL    HW2 4332   4.375   0.604   4.286  0.2652  0.6755 -1.5308
 1382SOL     OW 4333   2.079   4.241   3.813  0.0108 -0.7929  0.5728
 1382SOL    HW1 4334   2.046   4.223   3.725 -0.3288 -0.1546  0.5646
 1382SOL    HW2 4335   2.084   4.336   3.818  1.4007 -0.8530  0.7504
 1383SOL     OW 4336   1.621   4.587   4.667  0.1099  0.3480 -0.3625
 1383SOL    HW1 4337   1.655   4.527   4.734  2.0692  0.6334 -1.0226
 1383SOL    HW2 4338   1.619   4.534   4.587 -0.1813  0.5852 -0.5124
 1384SOL     OW 4339   4.595   1.369   0.279 -0.2574 -0.2304  0.4939
 1384SOL    HW1 4340   4.634   1.282   0.268 -0.7108 -0.2523 -1.3203
 1384SOL    HW2 4341   4.507   1.351   0.312  0.2443 -0.3333  1.8419
 1385SOL     OW 4342   1.043   4.374   2.648 -0.6855 -0.0699 -0.4823
 1385SOL    HW1 4343   1.005   4.405   2.730 -1.8307  2.5860 -1.8862
 1385SOL    HW2 4344   1.099   4.446   2.619 -0.9021 -0.6117 -2.3782
 1386SOL     OW 4345   0.294   4.783   0.794 -0.0736  0.4576 -0.2244
 1386SOL    HW1 4346   0.249   4.849   0.847 -0.7426  0.0848 -0.3271
 1386SOL    HW2 4347   0.225   4.740   0.744  0.3055 -0.6013  0.1356
 1387SOL     OW 4348   3.966   2.379   2.709 -0.0908  0.1429  0.2471
 1387SOL    HW1 4349   4.030   2.359   2.777  0.1678  0.4634  0.1042
 1387SOL    HW2 4350   4.009   2.446   2.656  0.0868 -0.7582 -0.7816
 1388SOL     OW 4351   4.306   0.124   2.109  0.1538 -0.1628  0.1856
 1388SOL    HW1 4352   4.357   0.200   2.083 -0.6219  0.5528  0.7000
 1388SOL    HW2 4353   4.331   0.107   2.200 -1.9391  1.4689  1.1622
 1389SOL     OW 4354   0.946   0.344   2.507 -0.1033 -0.5767 -0.5809
 1389SOL    HW1 4355   0.984   0.256   2.515  0.9362 -0.0340  0.7325
 1389SOL    HW2 4356   1.021   0.403   2.502 -0.7873  0.2243 -1.9801
 1390SOL     OW 4357   2.663   3.000   0.768 -0.1435  0.6208 -0.5727
 1390SOL    HW1 4358   2.736   2.979   0.825 -1.2504  1.3884  1.1926
 1390SOL    HW2 4359   2.641   2.917   0.725  0.3144 -0.1196  0.5952
 1391SOL     OW 4360   3.239   1.523   2.628 -0.6553  0.2805 -0.6369
 1391SOL    HW1 4361   3.163   1.469   2.611 -0.4921 -0.1752  0.0131
 1391SOL    HW2 4362   3.216   1.573   2.707  0.0129 -0.4620  0.0437
 1392SOL     OW 4363   2.330   3.919   3.577 -0.0742  0.4448  0.1829
 1392SOL    HW1 4364   2.330   3.938   3.483  1.6753 -0.0124  0.0533
 1392SOL    HW2 4365   2.285   3.835   3.584  0.8528 -0.1360 -0.4307
 1393SOL     OW 4366   3.547   1.263   1.676 -0.3123 -0.0512  0.7027
 1393SOL    HW1 4367   3.622   1.231   1.726 -1.8158 -1.0915  2.4531
 1393SOL    HW2 4368   3.538   1.202   1.604  1.2394  0.8249 -0.2843
 1394SOL     OW 4369   4.572   2.585   1.112  0.6389 -0.0584  0.3841
 1394SOL    HW1 4370   4.608   2.591   1.023 -0.2880  1.7956  0.0910
 1394SOL    HW2 4371   4.643   2.616   1.168  0.5915  0.5438  0.1129
 1395SOL     OW 4372   0.363   3.692   0.776  0.6356 -0.3272 -0.7845
 1395SOL    HW1 4373   0.412   3.618   0.741 -0.6760 -1.3030 -0.6121
 1395SOL    HW2 4374   0.271   3.664   0.774  0.1641  1.0696 -0.1820
 1396SOL     OW 4375   4.459   1.173   1.079 -0.2640  0.1870  0.1725
 1396SOL    HW1 4376   4.408   1.182   0.998 -0.9693 -0.4596  0.5336
 1396SOL    HW2 4377   4.398   1.196   1.149  0.3624  0.8115  0.5239
 1397SOL     OW 4378   2.116   1.083   3.841  0.2973  0.0981 -0.0656
 1397SOL    HW1 4379   2.108   1.138   3.919  0.3973  0.4996 -0.3363
 1397SOL    HW2 4380   2.143   0.998   3.875  1.3388  0.5405  0.2551
 1398SOL     OW 4381   1.214   1.896   2.112  0.2445  0.2349  0.2428
 1398SOL    HW1 4382   1.298   1.920   2.072  0.8903 -1.8413  0.2551
 1398SOL    HW2 4383   1.162   1.977   2.108  2.7498  2.0736  1.6935
 1399SOL     OW 4384   3.155   2.834   1.501  0.4027  0.4246  0.4567
 1399SOL    HW1 4385   3.204   2.839   1.583  0.2262  2.5609  0.4804
 1399SOL    HW2 4386   3.196   2.899   1.445 -1.2194  0.9493 -0.1678
 1400SOL     OW 4387   3.793   0.944   4.866 -0.1424  0.2683 -0.4686
 1400SOL    HW1 4388   3.724   0.938   4.801  0.7499 -1.7351 -1.3216
 1400SOL    HW2 4389   3.751   0.984   4.942 -3.5225 -4.3040  0.5476
 1401SOL     OW 4390   3.297   4.689   0.236 -0.7174  0.2881 -0.1451
 1401SOL    HW1 4391   3.242   4.759   0.269  1.7163  2.2851  0.0191
 1401SOL    HW2 4392   3.386   4.724   0.242  0.5750 -2.6087 -0.6550
 1402SOL     OW 4393   1.902   3.430   0.305  0.4174 -0.0985  0.0221
 1402SOL    HW1 4394   1.890   3.482   0.226  0.0739 -2.6705 -1.7483
 1402SOL    HW2 4395   1.824   3.448   0.357 -0.6214 -0.2515 -1.4158
 1403SOL     OW 4396   4.248   3.969   2.756  0.1436 -0.3118 -0.0964
 1403SOL    HW1 4397   4.293   3.891   2.725  2.2225  0.3637  1.0396
 1403SOL    HW2 4398   4.266   4.035   2.688 -2.4731 -0.9757 -1.5855
 1404SOL     OW 4399   2.408   3.239   1.790 -0.1283 -0.2470  0.1820
 1404SOL    HW1 4400   2.330   3.184   1.791  0.7023 -1.4387  0.7333
 1404SOL    HW2 4401   2.419   3.266   1.881 -0.0190  0.1130  0.0625
 1405SOL     OW 4402   0.537   0.759   4.532 -0.3559  0.0652 -0.3825
 1405SOL    HW1 4403   0.556   0.720   4.446 -0.5039 -0.5622 -0.1377
 1405SOL    HW2 4404   0.615   0.741   4.584 -1.0680 -1.4368  0.2505
 1406SOL     OW 4405   1.664   0.013   0.618 -0.3153  0.6712 -0.1525
 1406SOL    HW1 4406   1.591   0.009   0.679  0.0097 -0.0246  0.2025
 1406SOL    HW2 4407   1.707   0.096   0.637 -0.1142  0.3801  0.6857
 1407SOL     OW 4408   3.953   3.839   1.005  0.0963 -0.6657  0.4343
 1407SOL    HW1 4409   3.966   3.745   1.011  1.7961 -0.3933  2.1863
 1407SOL    HW2 4410   3.965   3.871   1.095  1.7349  1.4450 -0.4378
 1408SOL     OW 4411   4.479   3.402   0.847 -0.4506 -0.2687  0.1191
 1408SOL    HW1 4412   4.500   3.314   0.814 -2.1183 -0.5042 -0.3988
 1408SOL    HW2 4413   4.403   3.389   0.903  0.8249  0.5119  2.1158
 1409SOL     OW 4414   1.518   2.350   4.207  0.5446  0.3686  0.3534
 1409SOL    HW1 4415   1.498   2.298   4.285 -1.2903 -1.5831 -1.2959
 1409SOL    HW2 4416   1.433   2.365   4.166  1.5571  0.1157 -1.9984
 1410SOL     OW 4417   2.481   3.204   3.334 -0.1189 -0.1959 -0.3624
 1410SOL    HW1 4418   2.502   3.111   3.341  1.6703  0.1895  0.1026
 1410SOL    HW2 4419   2.548   3.247   3.388 -2.5968  1.2045  1.8619
 1411SOL     OW 4420   2.221   3.721   1.003  0.6007  0.2984 -0.0343
 1411SOL    HW1 4421   2.262   3.738   1.088  0.5099 -1.6248  0.4254
 1411SOL    HW2 4422   2.138   3.679   1.024 -0.2383  1.3751 -1.0604
 1412SOL     OW 4423   4.432   2.914   3.397 -0.7681  0.6781  0.4196
 1412SOL    HW1 4424   4.379   2.858   3.340  0.3065  0.4178 -0.3477
 1412SOL    HW2 4425   4.469   2.855   3.462 -0.6958  0.7133  0.4103
 1413SOL     OW 4426   0.912   0.168   2.840  0.1826  0.0781 -0.6609
 1413SOL    HW1 4427   0.901   0.245   2.895  0.2009  0.3123 -0.9862
 1413SOL    HW2 4428   0.837   0.169   2.781 -0.6256 -0.9707  0.3042
 1414SOL     OW 4429   2.595   3.036   1.974  0.2232 -0.9383 -0.6188
 1414SOL    HW1 4430   2.682   3.072   1.988 -0.0826 -0.3472 -0.2429
 1414SOL    HW2 4431   2.541   3.110   1.946 -0.3275 -1.1498 -0.1597
 1415SOL     OW 4432   1.426   4.256   4.633  0.1304  0.0453  0.0318
 1415SOL    HW1 4433   1.397   4.337   4.674  1.6436  0.3482  0.5684
 1415SOL    HW2 4434   1.512   4.240   4.670  0.4185 -1.1086 -1.0663
 1416SOL     OW 4435   4.023   3.527   3.507  0.1378  0.1462  0.1509
 1416SOL    HW1 4436   3.999   3.503   3.597  0.5639 -1.7858 -0.2039
 1416SOL    HW2 4437   4.118   3.520   3.505  0.0831 -0.4982 -0.6177
 1417SOL     OW 4438   4.278   1.150   0.871  0.2848 -0.0641 -0.5867
 1417SOL    HW1 4439   4.195   1.195   0.855  0.0389  0.4708  1.7445
 1417SOL    HW2 4440   4.264   1.061   0.839 -0.1608  0.7581 -2.8044
 1418SOL     OW 4441   0.586   0.168   2.394 -0.0733 -0.1217  0.2360
 1418SOL    HW1 4442   0.527   0.243   2.397 -0.2870 -0.2849  0.0906
 1418SOL    HW2 4443   0.653   0.188   2.460 -1.1729 -0.6840  1.5801
 1419SOL     OW 4444   4.705   1.745   0.960  0.1732 -0.4649 -0.2184
 1419SOL    HW1 4445   4.790   1.763   0.921  0.0448 -1.8452 -1.2228
 1419SOL    HW2 4446   4.643   1.762   0.889 -0.2588 -0.8574  0.0605
 1420SOL     OW 4447   2.035   2.001   3.347  0.2523  0.2536 -0.6357
 1420SOL    HW1 4448   2.032   2.040   3.260  0.7180  0.2969 -0.6384
 1420SOL    HW2 4449   2.026   1.907   3.333 -0.6883  0.3385 -0.6452
 1421SOL     OW 4450   2.420   0.487   2.679 -0.4010  0.2659 -0.3814
 1421SOL    HW1 4451   2.424   0.583   2.674 -0.7539  0.2556 -1.0286
 1421SOL    HW2 4452   2.331   0.469   2.710 -0.3908  0.1427 -0.4253
 1422SOL     OW 4453   2.317   4.411   1.526  0.0430 -0.3841 -0.0569
 1422SOL    HW1 4454   2.317   4.331   1.474  0.0059 -1.4123  1.4623
 1422SOL    HW2 4455   2.224   4.434   1.534 -0.0362 -0.9280  0.5955
 1423SOL     OW 4456   4.271   3.027   1.256 -0.3426  0.1020 -0.0207
 1423SOL    HW1 4457   4.243   3.025   1.348 -1.6170 -0.3034 -0.3998
 1423SOL    HW2 4458   4.332   2.954   1.249 -2.0397 -1.3822 -0.0124
 1424SOL     OW 4459   2.026   3.262   3.912 -0.5483  0.3028  0.3853
 1424SOL    HW1 4460   2.054   3.247   3.822 -2.4432 -1.9819  0.0848
 1424SOL    HW2 4461   1.956   3.327   3.905 -0.5475  0.2850  0.2237
 1425SOL     OW 4462   0.621   1.178   3.595  0.3583 -0.3184 -0.0608
 1425SOL    HW1 4463   0.527   1.163   3.586  0.2843 -0.0444  0.2175
 1425SOL    HW2 4464   0.655   1.097   3.634  0.6396 -1.3983 -2.3883
 1426SOL     OW 4465   1.072   4.379   3.679  0.0184 -0.1722  0.0798
 1426SOL    HW1 4466   1.073   4.285   3.698 -2.5923 -0.7128 -1.7977
 1426SOL    HW2 4467   1.160   4.399   3.648  0.7606 -1.8569  0.9548
 1427SOL     OW 4468   1.247   0.195   3.923 -0.2128 -0.0747 -0.3454
 1427SOL    HW1 4469   1.203   0.216   4.005  0.7833  0.0458  0.1648
 1427SOL    HW2 4470   1.239   0.274   3.870 -0.3230  0.0567 -0.1316
 1428SOL     OW 4471   3.650   1.499   3.718  0.1180  0.1444 -0.1090
 1428SOL    HW1 4472   3.612   1.418   3.752  1.0012  0.2944  1.3445
 1428SOL    HW2 4473   3.651   1.488   3.623 -0.1525 -1.3709  0.0469
 1429SOL     OW 4474   2.386   0.792   1.273 -0.1967  0.0029  0.1568
 1429SOL    HW1 4475   2.406   0.840   1.353  1.1551 -0.4454  0.1170
 1429SOL    HW2 4476   2.291   0.785   1.272 -0.3194  1.2237  1.0022
 1430SOL     OW 4477   4.422   2.955   0.252  0.1073 -0.0196  0.2057
 1430SOL    HW1 4478   4.455   3.001   0.175  0.7355 -2.2362 -0.9478
 1430SOL    HW2 4479   4.428   3.019   0.323 -1.9442  2.6519 -1.7978
 1431SOL     OW 4480   3.891   1.400   4.589 -0.0240  0.7308 -0.1184
 1431SOL    HW1 4481   3.800   1.377   4.566 -0.2863  2.0691 -0.4992
 1431SOL    HW2 4482   3.891   1.495   4.594  0.9107  0.6846  1.8758
 1432SOL     OW 4483   3.016   3.006   4.040  0.1733 -0.1348 -0.2947
 1432SOL    HW1 4484   2.948   3.073   4.049 -0.0861 -0.6563  2.5084
 1432SOL    HW2 4485   2.968   2.927   4.018  0.1420 -0.0151 -0.6592
 1433SOL     OW 4486   0.365   0.621   1.547  0.1775 -0.4557  0.3271
 1433SOL    HW1 4487   0.322   0.536   1.557 -1.0260  0.0712 -0.1407
 1433SOL    HW2 4488   0.393   0.623   1.455  0.1149 -0.3065  0.3112
 1434SOL     OW 4489   2.927   1.222   2.340  0.4253  0.8617 -0.1940
 1434SOL    HW1 4490   3.007   1.229   2.287  0.6093 -0.7994 -0.1942
 1434SOL    HW2 4491   2.856   1.225   2.276  0.5564  0.9002 -0.3378
 1435SOL     OW 4492   3.771   1.343   2.866  0.1313  0.3846  0.3999
 1435SOL    HW1 4493   3.797   1.432   2.846  1.3213  0.0569  0.4123
 1435SOL    HW2 4494   3.742   1.307   2.781  2.4775 -0.1180 -0.2607
 1436SOL     OW 4495   3.309   2.185   0.736  0.0590  0.0986  0.0433
 1436SOL    HW1 4496   3.370   2.180   0.810 -0.6227  3.5442  1.0102
 1436SOL    HW2 4497   3.359   2.227   0.667  0.3684 -2.1823 -1.2376
 1437SOL     OW 4498   4.404   1.272   2.556  0.1064  0.0326  0.5504
 1437SOL    HW1 4499   4.335   1.259   2.621 -0.7012  0.9357 -0.0825
 1437SOL    HW2 4500   4.363   1.327   2.489  1.2879  0.1412 -0.1140
 1438SOL     OW 4501   1.470   1.006   4.494  0.2303 -0.0077  0.4726
 1438SOL    HW1 4502   1.447   1.053   4.414  0.1770  0.0823  0.5423
 1438SOL    HW2 4503   1.388   0.966   4.523  0.2477 -0.0321  0.4892
 1439SOL     OW 4504   3.023   0.503   4.378 -0.0228 -0.0195 -0.5501
 1439SOL    HW1 4505   3.023   0.551   4.460 -0.5235 -0.2451 -0.4121
 1439SOL    HW2 4506   2.943   0.450   4.381 -0.5630  0.7077 -1.6102
 1440SOL     OW 4507   1.236   3.179   0.889 -0.2722 -0.2603 -0.4028
 1440SOL    HW1 4508   1.328   3.203   0.883 -0.0750 -0.7995  0.2176
 1440SOL    HW2 4509   1.229   3.099   0.837  0.2742 -1.8806  1.8548
 1441SOL     OW 4510   4.328   2.216   4.685  0.8770  0.7540 -0.0154
 1441SOL    HW1 4511   4.379   2.212   4.767 -0.0579 -0.5038  0.5411
 1441SOL    HW2 4512   4.249   2.265   4.709  1.8533  2.9376 -0.9448
 1442SOL     OW 4513   1.290   2.328   4.874  0.4218  0.9205  1.0444
 1442SOL    HW1 4514   1.341   2.269   4.929  0.6845  1.4668  1.4013
 1442SOL    HW2 4515   1.287   2.285   4.788  2.0331  1.1674  0.8362
 1443SOL     OW 4516   3.136   4.898   0.849  0.4131  0.2973  0.0252
 1443SOL    HW1 4517   3.063   4.909   0.910 -0.3637  0.8166 -0.9682
 1443SOL    HW2 4518   3.195   4.836   0.893 -0.7724 -0.3883  0.7043
 1444SOL     OW 4519   2.465   0.890   1.789  0.3815  0.3416  0.0999
 1444SOL    HW1 4520   2.414   0.932   1.719 -1.1416 -0.3020  0.7697
 1444SOL    HW2 4521   2.523   0.829   1.743 -1.8523 -1.4176 -0.6103
 1445SOL     OW 4522   0.780   3.468   0.335  0.1594  0.3640  0.1455
 1445SOL    HW1 4523   0.844   3.476   0.405 -0.6240 -1.6179  1.1651
 1445SOL    HW2 4524   0.797   3.382   0.296 -1.6820 -0.1105  0.2895
 1446SOL     OW 4525   2.913   4.850   3.757  0.4216  0.0512 -0.4405
 1446SOL    HW1 4526   2.921   4.755   3.759  0.8415  0.0878 -0.3370
 1446SOL    HW2 4527   2.980   4.879   3.696  0.3535  0.2884 -0.4057
 1447SOL     OW 4528   2.379   4.763   0.006  0.2358  0.8768  0.1741
 1447SOL    HW1 4529   2.453   4.781   0.063 -1.1337  1.0223  1.9880
 1447SOL    HW2 4530   2.331   4.693   0.050  0.2496 -0.4995 -1.8917
 1448SOL     OW 4531   3.599   2.398   1.933  0.4270  0.3818 -0.1072
 1448SOL    HW1 4532   3.577   2.342   1.858  0.1636  1.5212 -0.8952
 1448SOL    HW2 4533   3.570   2.348   2.009  0.7906 -0.8438 -0.7446
 1449SOL     OW 4534   2.308   1.395   0.929  0.4904 -0.2272  0.4019
 1449SOL    HW1 4535   2.244   1.403   0.999 -0.4720 -0.5556 -0.4084
 1449SOL    HW2 4536   2.380   1.453   0.955 -0.8806  1.5039  0.5506
 1450SOL     OW 4537   3.098   2.370   0.709  0.4748 -0.4946 -0.1160
 1450SOL    HW1 4538   3.026   2.349   0.649 -0.5790  0.7390  0.6732
 1450SOL    HW2 4539   3.143   2.286   0.723 -1.1329 -1.4103 -0.1889
 1451SOL     OW 4540   4.421   1.705   0.350  0.0620  0.4209 -0.0324
 1451SOL    HW1 4541   4.414   1.646   0.274 -0.0864  0.0035  0.3055
 1451SOL    HW2 4542   4.515   1.713   0.364  0.0974 -1.5299  1.2931
 1452SOL     OW 4543   4.496   4.549   0.888 -0.1156 -0.4024 -0.3920
 1452SOL    HW1 4544   4.513   4.531   0.795  0.9668 -2.6004  0.1699
 1452SOL    HW2 4545   4.403   4.572   0.891 -0.2685 -0.6988 -1.9673
 1453SOL     OW 4546   3.749   1.782   1.762  0.4581 -0.1575 -0.2365
 1453SOL    HW1 4547   3.729   1.755   1.852  1.5410 -0.5593 -0.1026
 1453SOL    HW2 4548   3.793   1.866   1.772 -0.2637  0.2566 -0.4647
 1454SOL     OW 4549   2.948   1.219   0.754  0.2002 -0.1734 -0.0106
 1454SOL    HW1 4550   2.901   1.225   0.838  2.2471 -1.1459  1.2676
 1454SOL    HW2 4551   2.980   1.308   0.739  0.6675 -0.1988  0.7670
 1455SOL     OW 4552   0.827   4.795   1.995  0.6706  0.3660  0.0428
 1455SOL    HW1 4553   0.800   4.797   1.903 -1.0123  0.2972  0.5133
 1455SOL    HW2 4554   0.881   4.873   2.005 -0.2998  1.1527 -0.6710
 1456SOL     OW 4555   3.523   4.484   3.743 -0.0676 -0.6516 -0.1243
 1456SOL    HW1 4556   3.509   4.461   3.835  1.0234 -1.8267 -0.2268
 1456SOL    HW2 4557   3.580   4.414   3.709 -0.0695  0.0154 -1.5679
 1457SOL     OW 4558   3.557   1.670   3.309  0.3912 -0.6071 -0.1033
 1457SOL    HW1 4559   3.604   1.727   3.371 -0.3341 -0.8981  0.7255
 1457SOL    HW2 4560   3.503   1.730   3.258 -1.1187 -0.6048  1.4242
 1458SOL     OW 4561   2.206   2.706   1.284  0.1300  0.0042 -0.2381
 1458SOL    HW1 4562   2.302   2.711   1.286  0.2185  1.2455 -3.1831
 1458SOL    HW2 4563   2.177   2.788   1.323  0.3473  0.6838 -1.4752
 1459SOL     OW 4564   0.064   0.237   4.465 -0.3385  0.0252 -0.4768
 1459SOL    HW1 4565   0.106   0.281   4.539  0.3002 -1.2276 -0.0651
 1459SOL    HW2 4566  -0.027   0.267   4.467 -0.2880  0.1449  0.7233
 1460SOL     OW 4567   0.108   0.709   3.263  0.4407  0.4612 -0.0819
 1460SOL    HW1 4568   0.179   0.765   3.294 -0.3617  1.7107 -0.4203
 1460SOL    HW2 4569   0.031   0.767   3.262 -0.5654 -0.8396  0.2077
 1461SOL     OW 4570   1.496   3.116   1.591  0.3362 -0.2522 -0.2759
 1461SOL    HW1 4571   1.544   3.033   1.594 -1.6301 -1.4808 -1.0561
 1461SOL    HW2 4572   1.477   3.137   1.682  2.0930  0.1633  0.0381
 1462SOL     OW 4573   4.672   4.774   3.666 -0.2743  0.2734 -0.4939
 1462SOL    HW1 4574   4.618   4.730   3.732  0.0794 -1.4282 -1.2794
 1462SOL    HW2 4575   4.759   4.779   3.707  0.5674 -2.9185 -1.5552
 1463SOL     OW 4576   3.074   4.499   1.164  0.0658  0.1890  0.1139
 1463SOL    HW1 4577   3.020   4.547   1.101  1.1661  0.1170 -0.9127
 1463SOL    HW2 4578   3.027   4.508   1.247 -1.5241  0.1177 -0.7428
 1464SOL     OW 4579   4.596   2.345   0.392  0.4502  0.4776 -0.8787
 1464SOL    HW1 4580   4.656   2.419   0.404  0.2169  0.5323  0.0864
 1464SOL    HW2 4581   4.621   2.282   0.459 -0.3415  0.3533 -0.6847
 1465SOL     OW 4582   2.162   4.516   1.176  0.1126  0.4247  0.0326
 1465SOL    HW1 4583   2.107   4.539   1.251  1.6719  0.1518  1.2986
 1465SOL    HW2 4584   2.106   4.533   1.100 -1.2541  1.4347  1.2036
 1466SOL     OW 4585   1.656   2.286   0.350 -0.2709 -0.1575  0.0522
 1466SOL    HW1 4586   1.636   2.365   0.399  0.8549  0.6425 -0.7206
 1466SOL    HW2 4587   1.574   2.237   0.348 -1.0820  1.1637  0.2237
 1467SOL     OW 4588   2.444   4.674   0.268 -0.0381  0.3560  0.1680
 1467SOL    HW1 4589   2.396   4.740   0.317 -0.3751  0.9290 -0.9051
 1467SOL    HW2 4590   2.512   4.643   0.329  0.1312  1.6909  0.6883
 1468SOL     OW 4591   4.829   3.681   4.155 -0.1655 -0.2889  0.2251
 1468SOL    HW1 4592   4.747   3.728   4.139 -0.5095 -1.5177 -2.0557
 1468SOL    HW2 4593   4.802   3.603   4.204 -0.0305  0.3103  1.2839
 1469SOL     OW 4594   3.991   2.220   2.463  0.0989 -0.1333  0.1942
 1469SOL    HW1 4595   3.993   2.272   2.544  0.4060  2.5553 -1.4048
 1469SOL    HW2 4596   4.071   2.244   2.417 -0.1699 -1.4424 -1.0321
 1470SOL     OW 4597   4.376   1.075   3.871  0.3487  0.2187 -0.0983
 1470SOL    HW1 4598   4.312   1.069   3.942  1.1533 -1.7262  0.5606
 1470SOL    HW2 4599   4.337   1.135   3.808 -2.1573 -0.9238  0.2309
 1471SOL     OW 4600   2.220   4.351   0.730 -0.3935  0.2145 -0.1245
 1471SOL    HW1 4601   2.288   4.413   0.702 -0.8885  1.9630  2.2914
 1471SOL    HW2 4602   2.267   4.268   0.743  0.6364  0.5249 -1.5635
 1472SOL     OW 4603   1.642   4.619   2.485  0.6908 -0.5001  0.3904
 1472SOL    HW1 4604   1.566   4.667   2.453  1.8756  2.7113  1.9059
 1472SOL    HW2 4605   1.606   4.545   2.533 -1.2543 -1.3926 -2.1899
 1473SOL     OW 4606   3.885   4.473   4.390 -0.2486  0.0888 -0.5234
 1473SOL    HW1 4607   3.847   4.419   4.459 -0.1128 -0.4942 -0.8972
 1473SOL    HW2 4608   3.980   4.459   4.399 -0.1219  1.3076  0.2232
 1474SOL     OW 4609   4.512   3.553   2.065 -0.3116 -0.7778  0.3026
 1474SOL    HW1 4610   4.575   3.622   2.044 -2.0734  0.2627 -1.9041
 1474SOL    HW2 4611   4.458   3.591   2.135 -0.0115 -0.7485  0.5227
 1475SOL     OW 4612   1.078   4.323   2.945 -0.0788 -0.2140 -0.2111
 1475SOL    HW1 4613   1.077   4.374   3.026  1.6735 -1.0499  0.3971
 1475SOL    HW2 4614   0.990   4.287   2.938 -0.6347  0.9120  0.6153
 1476SOL     OW 4615   4.792   2.707   2.816 -0.3462  0.0113  0.3290
 1476SOL    HW1 4616   4.764   2.780   2.871  0.5564 -0.2435  1.1643
 1476SOL    HW2 4617   4.809   2.746   2.730 -1.3422  0.4939  0.3336
 1477SOL     OW 4618   4.168   4.552   2.445 -0.1267 -0.5818  0.2868
 1477SOL    HW1 4619   4.171   4.555   2.349  0.6142 -0.1445  0.3230
 1477SOL    HW2 4620   4.170   4.644   2.472 -1.9023 -0.6202  0.6938
 1478SOL     OW 4621   1.767   4.427   3.145  0.3498  0.1295  0.1719
 1478SOL    HW1 4622   1.772   4.431   3.050  0.7264 -0.4302  0.1658
 1478SOL    HW2 4623   1.858   4.426   3.175  0.2345  0.3057  0.5357
 1479SOL     OW 4624   0.527   4.006   3.927  0.2073 -0.0434 -0.7250
 1479SOL    HW1 4625   0.592   3.967   3.869  0.9326 -2.6588  1.6382
 1479SOL    HW2 4626   0.447   3.954   3.912  0.1256 -0.1020 -0.1103
 1480SOL     OW 4627   0.302   4.772   2.165 -0.2052  0.1134  0.0914
 1480SOL    HW1 4628   0.390   4.804   2.184 -1.5096  3.0298  1.9076
 1480SOL    HW2 4629   0.294   4.779   2.069  1.0362  1.3457  0.0441
 1481SOL     OW 4630   4.575   0.780   1.322  0.0827 -0.1614  0.3368
 1481SOL    HW1 4631   4.619   0.774   1.406  0.5263  1.0362  0.2094
 1481SOL    HW2 4632   4.490   0.819   1.342 -0.5509 -1.5289  0.4453
 1482SOL     OW 4633   0.876   0.026   1.323  0.5520 -0.0177 -0.0033
 1482SOL    HW1 4634   0.930  -0.052   1.336 -0.7527 -0.7871  1.0873
 1482SOL    HW2 4635   0.934   0.099   1.344  1.4756 -0.7494  0.0658
 1483SOL     OW 4636   0.332   4.180   0.663  0.0218  0.3042  0.2428
 1483SOL    HW1 4637   0.415   4.177   0.616  0.1787  0.2849  0.5194
 1483SOL    HW2 4638   0.355   4.208   0.752  0.0243 -1.9084  0.9909
 1484SOL     OW 4639   2.655   0.143   1.643  0.2763 -0.1014  0.0822
 1484SOL    HW1 4640   2.748   0.155   1.624 -0.1072 -0.8763 -2.8096
 1484SOL    HW2 4641   2.651   0.060   1.691  1.1738  0.8093  1.8116
 1485SOL     OW 4642   3.135   4.581   4.815  0.6397 -0.4546 -0.8229
 1485SOL    HW1 4643   3.087   4.655   4.777  1.6493  0.4271 -0.4456
 1485SOL    HW2 4644   3.068   4.515   4.833 -0.3595  0.5682 -0.7071
 1486SOL     OW 4645   1.844   2.633   1.358  0.6349 -0.0100 -0.3120
 1486SOL    HW1 4646   1.850   2.666   1.448 -0.0445 -1.5749  0.3397
 1486SOL    HW2 4647   1.810   2.708   1.308  2.3861  1.3456  0.4138
 1487SOL     OW 4648   4.652   4.241   0.790 -0.1343 -0.3850 -0.3256
 1487SOL    HW1 4649   4.637   4.275   0.879 -0.1913  2.2075 -1.2283
 1487SOL    HW2 4650   4.736   4.196   0.795  0.6711  1.1555  0.7109
 1488SOL     OW 4651   4.857   3.245   4.822 -0.3528 -0.0707 -0.2083
 1488SOL    HW1 4652   4.894   3.332   4.841 -0.2551 -0.4861  1.7605
 1488SOL    HW2 4653   4.909   3.211   4.750  1.9033  0.1523  1.2175
 1489SOL     OW 4654   3.383   4.136   0.930 -0.8292  0.0266 -0.4729
 1489SOL    HW1 4655   3.409   4.214   0.881 -2.0459  1.5451  1.2089
 1489SOL    HW2 4656   3.361   4.167   1.017 -0.8879 -2.2851  0.4200
 1490SOL     OW 4657   3.814   1.720   0.297 -0.1222  0.1549  0.3451
 1490SOL    HW1 4658   3.778   1.797   0.253 -1.4611 -0.4082  0.4224
 1490SOL    HW2 4659   3.907   1.722   0.275 -0.3978  1.0022 -0.8507
 1491SOL     OW 4660   1.410   1.325   0.894 -0.6743 -0.0959  0.3392
 1491SOL    HW1 4661   1.441   1.270   0.966  3.2146  0.3207 -0.7504
 1491SOL    HW2 4662   1.448   1.412   0.912 -0.2617  0.2208 -1.7108
 1492SOL     OW 4663   4.525   0.557   0.924 -0.2128  0.3770  0.2192
 1492SOL    HW1 4664   4.440   0.599   0.906 -0.6965 -1.2752 -1.7044
 1492SOL    HW2 4665   4.513   0.466   0.898  1.4769 -0.4881  2.1732
 1493SOL     OW 4666   0.797   4.005   4.919 -0.0468 -0.5100 -0.0004
 1493SOL    HW1 4667   0.739   3.942   4.876  0.6294 -1.9512  1.1006
 1493SOL    HW2 4668   0.766   4.008   5.009  0.2675  0.3625  0.0884
 1494SOL     OW 4669   4.382   2.334   1.790 -0.0570  0.4094  0.1829
 1494SOL    HW1 4670   4.346   2.411   1.834 -0.4175 -0.1036  0.8271
 1494SOL    HW2 4671   4.310   2.302   1.736 -0.9869 -1.1654  2.1949
 1495SOL     OW 4672   2.285   2.144   1.491 -0.3087  0.3204 -0.4264
 1495SOL    HW1 4673   2.244   2.075   1.438 -0.4637 -0.1758  0.3156
 1495SOL    HW2 4674   2.332   2.198   1.428  0.3108 -0.8136 -0.9640
 1496SOL     OW 4675   3.892   1.465   0.236  0.5515 -0.4087  0.3152
 1496SOL    HW1 4676   3.843   1.424   0.165 -0.9812 -1.0671  1.6787
 1496SOL    HW2 4677   3.881   1.559   0.222  0.7758 -0.5139 -0.6338
 1497SOL     OW 4678   2.283   0.106   4.296  0.3710  0.7249  0.5957
 1497SOL    HW1 4679   2.343   0.177   4.276  0.6946  0.4231  0.4947
 1497SOL    HW2 4680   2.331   0.026   4.274 -0.3743  0.5100 -0.2900
 1498SOL     OW 4681   0.784   4.419   1.616 -0.2970  0.7719 -0.1595
 1498SOL    HW1 4682   0.727   4.482   1.574 -0.9904  0.6948  0.6433
 1498SOL    HW2 4683   0.749   4.333   1.592 -0.3881  0.7206  0.1469
 1499SOL     OW 4684   4.601   4.632   3.457  0.5346 -0.5962  0.7162
 1499SOL    HW1 4685   4.574   4.573   3.528 -0.7609 -0.5396  0.2931
 1499SOL    HW2 4686   4.622   4.714   3.502 -2.0495  0.0337  0.9443
 1500SOL     OW 4687   3.457   1.862   1.240 -0.1798 -0.5342 -0.6143
 1500SOL    HW1 4688   3.503   1.857   1.323  0.7383  0.2642 -1.0597
 1500SOL    HW2 4689   3.456   1.955   1.218 -2.3039 -0.4778 -0.4696
 1501SOL     OW 4690   4.734   1.584   3.435 -0.1993  0.2514  0.6094
 1501SOL    HW1 4691   4.753   1.491   3.426 -0.8046  0.2139 -0.4296
 1501SOL    HW2 4692   4.805   1.618   3.490  0.4637 -0.6680  0.3444
 1502SOL     OW 4693   4.331   3.706   0.943 -0.1052  0.3509  0.1441
 1502SOL    HW1 4694   4.333   3.633   1.005 -0.5338  0.0809 -0.1567
 1502SOL    HW2 4695   4.423   3.718   0.917 -0.4201 -3.8651 -4.2135
 1503SOL     OW 4696   1.103   0.494   0.439  0.0519 -0.1136 -0.5887
 1503SOL    HW1 4697   1.179   0.438   0.428 -1.1599 -1.8313 -0.7339
 1503SOL    HW2 4698   1.050   0.477   0.361 -0.8792  0.3473 -0.0773
 1504SOL     OW 4699   1.622   3.235   2.179 -0.3202 -0.7159 -0.2066
 1504SOL    HW1 4700   1.540   3.264   2.138  0.0342 -1.0376 -1.1671
 1504SOL    HW2 4701   1.690   3.283   2.131 -0.0001  0.8882  1.7139
 1505SOL     OW 4702   2.623   3.896   2.980 -0.7649 -0.6091 -0.6401
 1505SOL    HW1 4703   2.570   3.836   2.927 -1.8294 -0.8328  0.6268
 1505SOL    HW2 4704   2.574   3.978   2.981 -0.7010 -0.5731 -0.0963
 1506SOL     OW 4705   0.265   3.163   3.045  0.0602 -0.0106 -0.3037
 1506SOL    HW1 4706   0.210   3.231   3.084  1.4018  1.4904 -0.9195
 1506SOL    HW2 4707   0.344   3.209   3.017  0.0794 -1.3867 -2.8179
 1507SOL     OW 4708   3.902   4.673   3.941  0.6057  0.2455 -0.1104
 1507SOL    HW1 4709   3.861   4.594   3.976  0.6044  0.3965  0.2326
 1507SOL    HW2 4710   3.995   4.651   3.933  0.8976  0.7293  1.5356
 1508SOL     OW 4711   3.630   0.840   3.414  0.0869 -0.1901  0.4181
 1508SOL    HW1 4712   3.681   0.764   3.444  0.8892  0.0206 -0.3597
 1508SOL    HW2 4713   3.600   0.816   3.327  1.3145  0.7965 -0.3185
 1509SOL     OW 4714   1.592   1.523   3.985  0.0414 -0.0826  0.1418
 1509SOL    HW1 4715   1.653   1.587   3.947 -0.4025  0.6875  0.6868
 1509SOL    HW2 4716   1.522   1.577   4.022 -1.0291 -0.9615 -0.5825
 1510SOL     OW 4717   3.353   3.786   2.972  0.4178  0.0915 -0.3266
 1510SOL    HW1 4718   3.433   3.837   2.976  0.5839 -0.2293  1.0309
 1510SOL    HW2 4719   3.283   3.850   2.977  0.6193  0.2822  0.1773
 1511SOL     OW 4720   1.446   2.331   3.912  0.5596  0.0996  0.1869
 1511SOL    HW1 4721   1.424   2.352   3.822  1.0562  1.9444  0.4521
 1511SOL    HW2 4722   1.377   2.371   3.964  0.4935 -0.6025  0.6564
 1512SOL     OW 4723   3.756   4.740   0.046 -0.3947 -0.0948  0.3806
 1512SOL    HW1 4724   3.829   4.750   0.106  0.2268  0.9456 -0.5142
 1512SOL    HW2 4725   3.784   4.784  -0.034 -1.7955 -0.1233 -0.1573
 1513SOL     OW 4726   4.906   0.636   4.187 -0.1387  0.4598  0.2284
 1513SOL    HW1 4727   4.864   0.551   4.171 -0.4942 -0.1089  3.5020
 1513SOL    HW2 4728   5.000   0.618   4.179 -0.2530  0.0659 -0.2900
 1514SOL     OW 4729   4.370   2.434   0.547 -0.3046 -0.2102 -0.3870
 1514SOL    HW1 4730   4.455   2.429   0.503 -0.1074  0.1606 -0.0567
 1514SOL    HW2 4731   4.347   2.343   0.565 -0.2029 -0.3425 -0.8995
 1515SOL     OW 4732   3.380   0.723   1.969  0.0405 -0.2816 -0.3709
 1515SOL    HW1 4733   3.376   0.628   1.953 -0.8704  0.0518 -2.5368
 1515SOL    HW2 4734   3.468   0.738   2.003 -0.1801 -2.0156  1.1579
 1516SOL     OW 4735   1.631   4.091   3.946  0.0256  0.3706 -0.5439
 1516SOL    HW1 4736   1.707   4.055   3.992 -0.3520 -2.4162 -1.8900
 1516SOL    HW2 4737   1.665   4.122   3.862 -0.4387 -2.6201 -1.9675
 1517SOL     OW 4738   2.034   3.626   2.793 -0.3517  0.2145 -0.3786
 1517SOL    HW1 4739   1.976   3.699   2.816  0.1412  0.6165 -0.3950
 1517SOL    HW2 4740   2.096   3.621   2.866  2.7568  3.0560 -2.4967
 1518SOL     OW 4741   4.463   1.216   0.678 -0.0434 -0.2480  0.1797
 1518SOL    HW1 4742   4.412   1.289   0.643 -0.9987 -1.1346 -0.3246
 1518SOL    HW2 4743   4.406   1.176   0.744  0.7065 -0.1882  0.8764
 1519SOL     OW 4744   3.318   2.006   4.602  0.8497  0.1126  0.0067
 1519SOL    HW1 4745   3.324   2.016   4.697  0.9985 -0.0649  0.0179
 1519SOL    HW2 4746   3.375   1.932   4.583 -1.1901 -1.5602  0.0816
 1520SOL     OW 4747   1.949   2.863   0.707 -0.2191  0.3601  0.1583
 1520SOL    HW1 4748   1.990   2.856   0.621  1.3716  0.5685  0.8767
 1520SOL    HW2 4749   1.994   2.936   0.750 -1.8744  1.1214  0.7136
 1521SOL     OW 4750   1.779   4.110   4.564  0.5438  0.0266 -0.4893
 1521SOL    HW1 4751   1.727   4.105   4.483  2.0960 -3.0230 -1.4360
 1521SOL    HW2 4752   1.855   4.054   4.548  2.9445  2.3073  1.7382
 1522SOL     OW 4753   3.180   4.056   1.382  0.3752 -0.1130  0.0834
 1522SOL    HW1 4754   3.206   4.135   1.429  0.9310 -0.3395  0.1595
 1522SOL    HW2 4755   3.201   4.075   1.290 -2.6468  1.1713 -0.4706
 1523SOL     OW 4756   0.778   0.645   4.696 -0.3490 -0.0334  0.0978
 1523SOL    HW1 4757   0.768   0.570   4.638 -1.4398  0.5914 -0.5487
 1523SOL    HW2 4758   0.746   0.614   4.781 -0.9722 -0.2610 -0.2106
 1524SOL     OW 4759   0.414   0.105   2.019  0.1270 -0.7071 -0.0076
 1524SOL    HW1 4760   0.372   0.174   1.967 -0.0354  0.5389  1.6574
 1524SOL    HW2 4761   0.367   0.025   1.996 -2.7941  0.4968  1.2273
 1525SOL     OW 4762   3.387   1.244   4.636  0.0189 -0.3458  0.0616
 1525SOL    HW1 4763   3.452   1.191   4.682  1.1824  1.3471  0.4618
 1525SOL    HW2 4764   3.308   1.189   4.634  1.2874 -2.2522  0.0155
 1526SOL     OW 4765   4.904   3.428   3.805 -0.2275 -0.3212 -0.1862
 1526SOL    HW1 4766   4.937   3.369   3.737  1.3035  0.9359 -0.5835
 1526SOL    HW2 4767   4.856   3.495   3.756 -0.1260 -0.0612  0.0708
 1527SOL     OW 4768   2.078   1.670   2.105 -0.0982 -0.9288  0.1783
 1527SOL    HW1 4769   2.008   1.651   2.042  0.4226  0.6498 -0.9531
 1527SOL    HW2 4770   2.156   1.684   2.051  0.2400  1.0730  1.1028
 1528SOL     OW 4771   4.128   1.326   0.714  0.8743 -0.5535 -0.5173
 1528SOL    HW1 4772   4.195   1.382   0.753 -1.8008  2.2105  0.4410
 1528SOL    HW2 4773   4.103   1.370   0.633  0.4097 -1.7020 -1.0185
 1529SOL     OW 4774   1.342   4.516   3.317 -0.0189  0.3433 -0.1512
 1529SOL    HW1 4775   1.275   4.480   3.259  0.6780  1.1869 -1.5418
 1529SOL    HW2 4776   1.327   4.611   3.315  1.5238  0.6068 -0.9624
 1530SOL     OW 4777   4.841   2.775   2.546  0.1786  0.6652  0.7944
 1530SOL    HW1 4778   4.913   2.789   2.485 -0.1432 -1.8840 -0.3227
 1530SOL    HW2 4779   4.771   2.832   2.514  0.2640 -0.0879 -0.8351
 1531SOL     OW 4780   2.210   4.327   4.088 -0.2005  0.8648  0.8953
 1531SOL    HW1 4781   2.186   4.331   3.995 -0.7753 -0.6159  0.9635
 1531SOL    HW2 4782   2.296   4.369   4.091 -0.5024  1.6338 -0.1693
 1532SOL     OW 4783   3.844   4.134   0.392  0.8516 -0.7027 -0.2617
 1532SOL    HW1 4784   3.934   4.165   0.381  0.9754 -1.0464 -0.2389
 1532SOL    HW2 4785   3.790   4.203   0.353  1.1376 -0.6169 -0.5151
 1533SOL     OW 4786   4.928   1.817   0.828 -0.2563 -0.0495 -0.0052
 1533SOL    HW1 4787   4.946   1.844   0.738  0.6599 -0.4379  0.0478
 1533SOL    HW2 4788   5.014   1.811   0.869 -0.6239 -0.4425  0.7356
 1534SOL     OW 4789   3.162   1.660   0.016  0.4199  0.3295 -0.2295
 1534SOL    HW1 4790   3.202   1.589  -0.034  0.7756  1.0612 -1.0021
 1534SOL    HW2 4791   3.196   1.648   0.105  2.6633  1.0900 -0.9035
 1535SOL     OW 4792   1.912   1.180   2.866 -1.1588 -0.6996  0.4866
 1535SOL    HW1 4793   1.992   1.193   2.917 -0.4618  1.6599 -1.0578
 1535SOL    HW2 4794   1.938   1.119   2.797 -0.6289  0.1060 -0.0477
 1536SOL     OW 4795   1.832   2.920   0.205  0.2534 -0.5003 -0.1966
 1536SOL    HW1 4796   1.908   2.908   0.148 -0.3596 -0.9909 -0.9290
 1536SOL    HW2 4797   1.782   2.990   0.163  0.0458 -0.5242  0.0124
 1537SOL     OW 4798   2.809   4.442   2.144  0.3146  0.0244 -0.3481
 1537SOL    HW1 4799   2.763   4.454   2.227 -1.0997  2.5410 -1.3518
 1537SOL    HW2 4800   2.852   4.526   2.128 -0.7305  0.2057 -2.7963
 1538SOL     OW 4801   2.517   4.133   3.633  0.3398 -0.2486 -0.3792
 1538SOL    HW1 4802   2.470   4.052   3.615  0.7038 -1.0458  1.9238
 1538SOL    HW2 4803   2.598   4.105   3.676  0.7267  1.3067 -0.0162
 1539SOL     OW 4804   0.025   4.893   4.165 -0.1317  0.0455  0.4234
 1539SOL    HW1 4805   0.054   4.905   4.255  2.0643 -0.7117 -0.1353
 1539SOL    HW2 4806  -0.069   4.910   4.168  0.0680  1.0977  2.6362
 1540SOL     OW 4807   3.308   1.760   2.034 -0.8369 -0.1648  0.1322
 1540SOL    HW1 4808   3.394   1.738   2.070 -0.6463 -1.5243 -1.0546
 1540SOL    HW2 4809   3.327   1.792   1.946 -1.5232 -0.3682 -0.0964
 1541SOL     OW 4810   3.770   0.408   2.183  0.1461 -0.0519  0.9149
 1541SOL    HW1 4811   3.849   0.380   2.137  0.2396  1.5794  0.0259
 1541SOL    HW2 4812   3.701   0.353   2.147  0.8003 -1.2990  1.4986
 1542SOL     OW 4813   2.755   2.637   4.196  1.0214  0.1735  0.3318
 1542SOL    HW1 4814   2.793   2.568   4.251 -1.0237  0.3647  2.1496
 1542SOL    HW2 4815   2.756   2.714   4.252 -1.5543  0.2737  0.3558
 1543SOL     OW 4816   1.188   0.855   1.919 -0.1562 -0.3607 -0.7775
 1543SOL    HW1 4817   1.219   0.928   1.865 -0.2352  0.4946  0.2968
 1543SOL    HW2 4818   1.095   0.847   1.898 -0.6417  1.2225  0.5722
 1544SOL     OW 4819   4.500   4.404   3.094  0.6040 -0.3729 -0.1984
 1544SOL    HW1 4820   4.480   4.339   3.161  0.0657  0.9168  0.9575
 1544SOL    HW2 4821   4.595   4.415   3.098  0.8080 -1.6346 -0.9767
 1545SOL     OW 4822   2.869   0.896   2.857 -0.2570 -0.4023 -0.0356
 1545SOL    HW1 4823   2.860   0.874   2.764 -0.1689 -0.0058 -0.1376
 1545SOL    HW2 4824   2.832   0.820   2.902  1.9300 -1.7099 -0.3352
 1546SOL     OW 4825   1.928   4.204   4.909 -0.4685  0.1585 -0.2785
 1546SOL    HW1 4826   1.914   4.195   5.004 -0.9668 -0.8097 -0.4370
 1546SOL    HW2 4827   2.021   4.222   4.901 -0.2194 -0.7614  0.3454
 1547SOL     OW 4828   4.784   1.591   1.623 -0.2955 -0.0294 -0.0482
 1547SOL    HW1 4829   4.692   1.595   1.598 -0.4882  0.6008  0.7135
 1547SOL    HW2 4830   4.804   1.678   1.658  1.0394  0.3739 -1.6616
 1548SOL     OW 4831   1.339   1.837   2.905 -0.4207  0.7663 -0.2688
 1548SOL    HW1 4832   1.362   1.755   2.949  0.4608  0.8531 -0.5610
 1548SOL    HW2 4833   1.264   1.870   2.954  1.1239  1.3765  1.8417
 1549SOL     OW 4834   2.984   1.846   4.892  0.4966 -0.8589  0.3566
 1549SOL    HW1 4835   3.054   1.789   4.922 -0.1165 -1.9697 -0.2796
 1549SOL    HW2 4836   2.904   1.798   4.912  0.0162 -1.2364 -2.1592
 1550SOL     OW 4837   3.439   1.600   2.236  0.1295 -0.4516  0.2175
 1550SOL    HW1 4838   3.403   1.650   2.308  0.2261 -0.7628  0.4853
 1550SOL    HW2 4839   3.444   1.510   2.269 -0.2437 -0.6797 -0.3301
 1551SOL     OW 4840   0.843   4.181   2.883 -0.0053  0.1004  0.6178
 1551SOL    HW1 4841   0.917   4.130   2.849 -0.4828  0.5748 -1.2276
 1551SOL    HW2 4842   0.768   4.154   2.829 -1.0367  0.1875  1.9505
 1552SOL     OW 4843   0.703   3.087   4.320 -0.1584 -0.3529  0.1952
 1552SOL    HW1 4844   0.640   3.060   4.387 -0.6370 -1.0359 -0.5059
 1552SOL    HW2 4845   0.654   3.146   4.264 -0.6896 -2.0692 -1.2447
 1553SOL     OW 4846   4.158   4.746   3.299 -0.5940 -0.5820 -1.1238
 1553SOL    HW1 4847   4.064   4.759   3.290 -0.6963 -0.7480 -0.3588
 1553SOL    HW2 4848   4.175   4.663   3.254 -0.8961 -0.7979 -0.8467
 1554SOL     OW 4849   0.987   2.949   3.596  0.3675  0.6807  0.4785
 1554SOL    HW1 4850   0.951   3.025   3.642  1.5373  1.1299  0.6863
 1554SOL    HW2 4851   0.913   2.890   3.586 -0.4889  1.6992  0.6258
 1555SOL     OW 4852   4.185   1.214   2.708  0.0579 -0.3009 -0.0594
 1555SOL    HW1 4853   4.125   1.289   2.710 -2.9850 -2.4657 -1.3464
 1555SOL    HW2 4854   4.191   1.186   2.799 -1.3933 -0.3075  0.0677
 1556SOL     OW 4855   3.651   2.100   3.911 -0.0345  0.4989  0.3998
 1556SOL    HW1 4856   3.691   2.113   3.996  0.3483 -1.1269  0.5040
 1556SOL    HW2 4857   3.659   2.185   3.867  1.8120  0.7385  1.1286
 1557SOL     OW 4858   0.651   4.127   2.702  0.1079  0.3768  0.2893
 1557SOL    HW1 4859   0.621   4.199   2.646 -0.2123 -2.0383 -2.9394
 1557SOL    HW2 4860   0.576   4.068   2.707  0.7371 -0.3402  1.8670
 1558SOL     OW 4861   4.333   4.492   4.838  0.3543  0.3964 -0.1132
 1558SOL    HW1 4862   4.253   4.538   4.818 -1.3389 -1.7051  1.2952
 1558SOL    HW2 4863   4.361   4.454   4.755 -2.3510 -2.0145 -0.0895
 1559SOL     OW 4864   3.613   1.870   2.344 -0.2354 -0.1438  0.1846
 1559SOL    HW1 4865   3.538   1.837   2.393 -1.9239  0.8472 -1.5714
 1559SOL    HW2 4866   3.663   1.922   2.407 -1.9182  0.4892  1.0463
 1560SOL     OW 4867   4.923   0.568   0.625  0.4974  0.5747 -0.0535
 1560SOL    HW1 4868   4.945   0.503   0.691  1.6590  1.9299  0.9570
 1560SOL    HW2 4869   5.005   0.617   0.611 -0.1732  1.4285 -1.2246
 1561SOL     OW 4870   4.455   0.827   4.277 -0.1221  0.0953 -0.3615
 1561SOL    HW1 4871   4.406   0.857   4.200  0.1554  0.1015 -0.5369
 1561SOL    HW2 4872   4.542   0.805   4.243  0.3995  1.2667  0.1505
 1562SOL     OW 4873   2.805   4.727   2.600  0.1278 -0.1703 -0.1948
 1562SOL    HW1 4874   2.752   4.792   2.554  1.7186  2.1272  1.0047
 1562SOL    HW2 4875   2.885   4.721   2.548  0.2104 -0.7873 -0.0009
 1563SOL     OW 4876   2.434   3.882   4.255 -0.4830 -0.3796 -0.0534
 1563SOL    HW1 4877   2.410   3.943   4.185 -1.6293  1.4306  1.8224
 1563SOL    HW2 4878   2.430   3.934   4.335  4.3951 -1.3151  1.1346
 1564SOL     OW 4879   4.178   2.708   3.987 -0.5469  0.0959  0.4652
 1564SOL    HW1 4880   4.111   2.642   4.007  1.2934 -1.3919  2.1315
 1564SOL    HW2 4881   4.224   2.672   3.911 -1.0001  0.6641 -0.0942
 1565SOL     OW 4882   1.821   2.857   1.208 -0.2089 -0.5087 -0.0786
 1565SOL    HW1 4883   1.906   2.840   1.167 -0.7976 -1.5260 -0.9284
 1565SOL    HW2 4884   1.783   2.928   1.157 -0.6213 -1.2717 -0.8665
 1566SOL     OW 4885   0.808   1.038   3.363 -0.4362  0.3263  0.1210
 1566SOL    HW1 4886   0.715   1.054   3.381 -1.0469 -3.5584  1.5045
 1566SOL    HW2 4887   0.851   1.053   3.447 -0.4237 -1.0292  0.3853
 1567SOL     OW 4888   1.592   2.398   1.296 -0.8283 -0.1534 -0.4548
 1567SOL    HW1 4889   1.618   2.376   1.385  1.8509 -1.5271 -1.4545
 1567SOL    HW2 4890   1.668   2.445   1.260 -0.0048 -3.2200 -3.1983
 1568SOL     OW 4891   4.848   2.145   3.601 -0.0884  0.3950 -0.7536
 1568SOL    HW1 4892   4.865   2.238   3.585  0.2482  0.1234 -2.0835
 1568SOL    HW2 4893   4.840   2.107   3.513  0.6768 -0.9883 -0.2508
 1569SOL     OW 4894   3.253   3.045   0.037 -0.0435 -0.5959 -0.0032
 1569SOL    HW1 4895   3.277   3.114   0.099  2.9674 -0.1805 -1.4322
 1569SOL    HW2 4896   3.231   3.091  -0.044 -1.0309 -1.2304 -0.1158
 1570SOL     OW 4897   2.571   4.078   2.314 -0.2942 -0.1290  0.1010
 1570SOL    HW1 4898   2.556   3.986   2.334 -1.8100  0.1190  0.2249
 1570SOL    HW2 4899   2.533   4.090   2.227 -1.9774  0.7953  0.9162
 1571SOL     OW 4900   1.937   0.635   0.440  0.0081  0.2421 -0.2872
 1571SOL    HW1 4901   2.001   0.670   0.378  2.3750  1.2809  2.4989
 1571SOL    HW2 4902   1.892   0.712   0.474  0.5656 -0.0077  1.0866
 1572SOL     OW 4903   2.042   0.113   0.711 -0.4268  0.5796 -0.9036
 1572SOL    HW1 4904   1.964   0.167   0.719 -0.8318  0.0352 -1.1188
 1572SOL    HW2 4905   2.081   0.113   0.798  0.5856  2.6779 -1.2757
 1573SOL     OW 4906   3.352   0.009   3.540  0.4843  0.0220  0.4453
 1573SOL    HW1 4907   3.388  -0.069   3.499 -0.0026  0.1066 -0.1531
 1573SOL    HW2 4908   3.393   0.082   3.493  1.2534  0.1453  1.2717
 1574SOL     OW 4909   1.839   2.780   4.742 -0.1594  0.1244 -0.5053
 1574SOL    HW1 4910   1.760   2.767   4.794  0.5655  0.7005  0.8145
 1574SOL    HW2 4911   1.868   2.869   4.765  2.0183 -0.8224  0.7611
 1575SOL     OW 4912   0.546   0.321   1.014  0.4888 -0.7978  0.1374
 1575SOL    HW1 4913   0.474   0.305   1.075  0.8452 -0.0624  0.7692
 1575SOL    HW2 4914   0.505   0.313   0.927 -0.5760  0.4197  0.4791
 1576SOL     OW 4915   3.837   4.012   2.063 -0.2154 -0.0292  0.1566
 1576SOL    HW1 4916   3.907   3.953   2.031  1.3698  1.1764  1.2385
 1576SOL    HW2 4917   3.859   4.097   2.026 -0.9249  0.4507  0.8178
 1577SOL     OW 4918   4.746   3.911   1.027 -0.2636 -0.4604  0.1684
 1577SOL    HW1 4919   4.685   3.859   1.079 -0.0148 -0.1055  0.8320
 1577SOL    HW2 4920   4.817   3.934   1.088 -0.8866  1.5695  0.2228
 1578SOL     OW 4921   2.528   3.097   4.056  0.2836 -0.2044  0.0371
 1578SOL    HW1 4922   2.546   3.099   4.150  1.3859 -0.2994 -0.1604
 1578SOL    HW2 4923   2.560   3.182   4.023  0.7233 -0.5264 -0.3832
 1579SOL     OW 4924   0.692   1.581   1.458  0.4291 -0.0841 -0.6174
 1579SOL    HW1 4925   0.778   1.539   1.464  0.3049 -0.1704  1.0196
 1579SOL    HW2 4926   0.665   1.567   1.367  1.9770 -0.3676 -1.0655
 1580SOL     OW 4927   2.627   0.724   2.133  0.0582  0.4774  0.0275
 1580SOL    HW1 4928   2.648   0.631   2.130 -0.4230  0.2890  1.6045
 1580SOL    HW2 4929   2.656   0.758   2.048  0.9890 -0.9330 -0.2497
 1581SOL     OW 4930   4.288   3.350   4.493  0.3416 -0.1983 -1.0866
 1581SOL    HW1 4931   4.247   3.361   4.408 -1.0455 -2.2103 -0.7468
 1581SOL    HW2 4932   4.246   3.415   4.549  0.1691  0.1066 -1.5620
 1582SOL     OW 4933   3.423   3.498   0.292  0.1383  0.1026  0.0333
 1582SOL    HW1 4934   3.376   3.567   0.339  0.2599 -0.6488  1.2912
 1582SOL    HW2 4935   3.513   3.505   0.323  0.0079 -1.0637  0.6945
 1583SOL     OW 4936   4.017   0.437   1.394 -0.1371  0.0149  1.1138
 1583SOL    HW1 4937   4.050   0.525   1.375  3.5435 -1.4674 -0.2451
 1583SOL    HW2 4938   4.048   0.418   1.482 -2.2653  0.5215  2.0456
 1584SOL     OW 4939   2.633   4.519   0.444 -0.1792 -1.2731  0.3328
 1584SOL    HW1 4940   2.661   4.441   0.397 -1.3959 -1.6817  0.2705
 1584SOL    HW2 4941   2.713   4.550   0.487  1.1881 -0.3479 -2.6812
 1585SOL     OW 4942   0.951   0.020   0.612 -0.9158 -0.1011 -0.2013
 1585SOL    HW1 4943   0.996  -0.061   0.590 -0.5672  0.1816 -0.5379
 1585SOL    HW2 4944   1.021   0.085   0.622 -1.0633 -0.1491  1.4910
 1586SOL     OW 4945   1.535   4.912   3.349 -0.2076 -0.4987 -0.1642
 1586SOL    HW1 4946   1.547   4.904   3.443  2.1066 -1.1669 -0.4570
 1586SOL    HW2 4947   1.597   4.979   3.323 -1.8342  0.7303 -1.0761
 1587SOL     OW 4948   2.847   4.504   1.833  0.2529  0.2879  0.2708
 1587SOL    HW1 4949   2.923   4.537   1.786  0.3130  0.8349  0.7409
 1587SOL    HW2 4950   2.875   4.499   1.924 -0.0682 -0.1296  0.3484
 1588SOL     OW 4951   1.117   1.587   1.567 -0.1901 -0.0949  0.0287
 1588SOL    HW1 4952   1.126   1.682   1.572 -1.2716 -0.0363  1.3192
 1588SOL    HW2 4953   1.176   1.554   1.635  0.0216 -0.3495 -0.2733
 1589SOL     OW 4954   2.627   0.933   3.064 -0.1898  0.8847  0.0829
 1589SOL    HW1 4955   2.580   0.918   2.982  0.5045 -0.5784 -0.0718
 1589SOL    HW2 4956   2.609   0.856   3.117 -0.6963  1.8494  1.3622
 1590SOL     OW 4957   1.780   3.788   0.368 -0.6359  0.3299  0.2215
 1590SOL    HW1 4958   1.772   3.884   0.367 -1.7398  0.2606  0.9151
 1590SOL    HW2 4959   1.870   3.772   0.396 -0.7769  1.1758  1.2555
 1591SOL     OW 4960   1.417   0.197   4.627  0.2326  0.2843 -0.1878
 1591SOL    HW1 4961   1.473   0.123   4.649  1.6251  1.3600 -0.0205
 1591SOL    HW2 4962   1.329   0.160   4.622  0.6455 -1.0621  1.6322
 1592SOL     OW 4963   3.225   3.866   2.642 -0.2287 -0.1160 -0.6777
 1592SOL    HW1 4964   3.274   3.940   2.608  0.6812  0.1072  1.0158
 1592SOL    HW2 4965   3.251   3.792   2.587  0.8757  0.2989 -0.7265
 1593SOL     OW 4966   4.423   2.828   4.711 -1.2558  0.0005  0.8524
 1593SOL    HW1 4967   4.394   2.740   4.686  2.2459 -0.8193 -1.0437
 1593SOL    HW2 4968   4.456   2.818   4.800 -0.3967 -0.8186  0.4661
 1594SOL     OW 4969   0.013   3.462   1.067  0.1435  0.3580  0.0264
 1594SOL    HW1 4970   0.046   3.534   1.121  2.2988 -1.5719  1.4453
 1594SOL    HW2 4971   0.086   3.441   1.009 -0.9000  0.0607 -1.2269
 1595SOL     OW 4972   0.436   4.374   4.272  0.9658  0.1969  0.3444
 1595SOL    HW1 4973   0.443   4.363   4.367  1.0610  3.0945  0.7583
 1595SOL    HW2 4974   0.480   4.297   4.236  0.9419 -0.9845  2.6156
 1596SOL     OW 4975   3.878   0.040   0.252 -0.3186 -0.1314 -0.1966
 1596SOL    HW1 4976   3.888   0.046   0.347  0.1591 -1.4210 -0.1520
 1596SOL    HW2 4977   3.943  -0.024   0.224  0.1584  0.8670 -1.5190
 1597SOL     OW 4978   4.540   3.624   3.747  0.4769 -0.2925 -0.0285
 1597SOL    HW1 4979   4.530   3.565   3.822 -1.5231  0.4402  0.3211
 1597SOL    HW2 4980   4.457   3.618   3.700  0.7539  1.1987 -0.7531
 1598SOL     OW 4981   2.395   1.408   4.881 -0.0736 -0.3866  0.0253
 1598SOL    HW1 4982   2.468   1.460   4.845 -0.3263  0.0779  0.1783
 1598SOL    HW2 4983   2.338   1.392   4.805  1.4903 -3.0876 -0.7411
 1599SOL     OW 4984   0.043   3.785   1.550  0.0665 -0.0745  0.3131
 1599SOL    HW1 4985   0.085   3.757   1.632  0.2456 -1.1758 -0.1382
 1599SOL    HW2 4986   0.114   3.825   1.500  0.0883  0.0551  0.4451
 1600SOL     OW 4987   3.215   4.277   2.248 -0.0932 -0.0417 -0.7785
 1600SOL    HW1 4988   3.137   4.228   2.222 -0.2045 -0.2590 -0.0626
 1600SOL    HW2 4989   3.258   4.300   2.166 -1.6563  1.3091 -1.2520
 1601SOL     OW 4990   3.328   0.894   2.316 -0.0467  0.7984  0.2194
 1601SOL    HW1 4991   3.381   0.968   2.284 -1.3136  2.0865  1.0000
 1601SOL    HW2 4992   3.362   0.878   2.404 -1.0994  1.8190  0.8344
 1602SOL     OW 4993   2.350   4.706   4.204  0.2465  0.7441 -0.1527
 1602SOL    HW1 4994   2.445   4.706   4.215  0.0649  1.4752  1.8502
 1602SOL    HW2 4995   2.336   4.671   4.116  2.3966  1.7062 -0.9469
 1603SOL     OW 4996   2.365   1.151   3.568 -0.0790  0.1978 -0.2813
 1603SOL    HW1 4997   2.368   1.244   3.589  0.4412  0.1603 -0.1724
 1603SOL    HW2 4998   2.369   1.107   3.653 -0.5666  0.0815 -0.3202
 1604SOL     OW 4999   1.175   0.104   2.183 -0.4435 -0.0527 -0.0278
 1604SOL    HW1 5000   1.222   0.143   2.110 -0.2374 -0.7970 -0.3060
 1604SOL    HW2 5001   1.083   0.105   2.157 -0.2511 -1.4112 -0.8401
 1605SOL     OW 5002   0.629   3.141   0.190  0.3177 -0.0805 -0.2170
 1605SOL    HW1 5003   0.703   3.162   0.247  0.1450  0.4688 -0.1864
 1605SOL    HW2 5004   0.628   3.211   0.125  0.4215 -0.6230 -0.8139
 1606SOL     OW 5005   1.849   0.355   4.121 -0.6333 -0.0150  0.7054
 1606SOL    HW1 5006   1.835   0.287   4.055  0.7523  0.7740 -0.4638
 1606SOL    HW2 5007   1.937   0.338   4.154 -0.3184  1.0947  0.4867
 1607SOL     OW 5008   3.607   0.288   2.012 -0.2091 -0.0297 -0.0011
 1607SOL    HW1 5009   3.515   0.316   2.019 -1.2717 -3.1756  0.5677
 1607SOL    HW2 5010   3.632   0.311   1.922 -1.2814  1.5520  0.0655
 1608SOL     OW 5011   3.935   4.669   1.259  0.1351  0.3463  0.1841
 1608SOL    HW1 5012   3.939   4.756   1.221  1.0424  0.5993  0.8374
 1608SOL    HW2 5013   3.957   4.682   1.351 -1.5819 -0.3107  0.7346
 1609SOL     OW 5014   4.285   4.311   2.946  0.1547  0.6530  0.4303
 1609SOL    HW1 5015   4.355   4.364   2.985 -0.6787  0.5229  2.1928
 1609SOL    HW2 5016   4.285   4.336   2.853  1.4072  1.8922  0.7303
 1610SOL     OW 5017   1.208   3.106   4.650 -0.5961  0.2708 -0.0215
 1610SOL    HW1 5018   1.113   3.119   4.646 -0.9184 -1.9432 -0.8718
 1610SOL    HW2 5019   1.219   3.012   4.666  1.4682  0.4594 -0.0398
 1611SOL     OW 5020   2.149   2.710   0.504 -0.5138  0.7173  0.4053
 1611SOL    HW1 5021   2.114   2.633   0.550 -0.6956  0.8452  0.4802
 1611SOL    HW2 5022   2.242   2.690   0.494 -0.8649 -0.3042 -1.1488
 1612SOL     OW 5023   1.249   4.112   2.364 -0.1951  0.3733  0.4576
 1612SOL    HW1 5024   1.303   4.177   2.409  1.4661 -0.5168 -0.1295
 1612SOL    HW2 5025   1.266   4.031   2.412 -0.0745 -0.1568 -0.4546
 1613SOL     OW 5026   3.595   4.434   0.984  0.4961  0.1664  0.3127
 1613SOL    HW1 5027   3.587   4.479   1.068  1.1111  2.0633 -0.5870
 1613SOL    HW2 5028   3.517   4.460   0.935  0.3165 -0.6386  0.1688
 1614SOL     OW 5029   1.098   1.526   3.546 -0.1107  0.0821 -0.1631
 1614SOL    HW1 5030   1.015   1.550   3.586  0.0785  0.9576 -0.2777
 1614SOL    HW2 5031   1.084   1.438   3.512 -1.9714  1.2884 -2.8832
 1615SOL     OW 5032   0.987   2.464   2.789  0.4796 -0.2294 -0.4106
 1615SOL    HW1 5033   0.945   2.550   2.787  0.1935 -0.3809 -1.6948
 1615SOL    HW2 5034   1.062   2.476   2.848 -0.0275  0.6668  0.0785
 1616SOL     OW 5035   3.325   4.553   4.218 -0.1004  0.1736  0.0473
 1616SOL    HW1 5036   3.279   4.623   4.264  0.2230  1.5365 -1.5927
 1616SOL    HW2 5037   3.257   4.510   4.166 -0.4260 -1.2287  1.5489
 1617SOL     OW 5038   3.451   0.501   0.044  0.0486 -0.3667  0.4168
 1617SOL    HW1 5039   3.399   0.518   0.122 -0.0861  2.6808 -0.1848
 1617SOL    HW2 5040   3.536   0.475   0.077 -0.5587 -1.0375  1.5206
 1618SOL     OW 5041   2.176   2.019   1.929 -0.5232 -0.8495  0.3311
 1618SOL    HW1 5042   2.209   1.978   1.849  1.5645 -1.1753  1.3053
 1618SOL    HW2 5043   2.099   2.068   1.900  0.6410 -0.2656 -2.0425
 1619SOL     OW 5044   2.935   2.680   3.530  0.0865  0.3197  0.2332
 1619SOL    HW1 5045   2.934   2.596   3.576  1.8382  0.9647  1.5782
 1619SOL    HW2 5046   3.016   2.678   3.478  0.2659  1.2572  0.4603
 1620SOL     OW 5047   1.873   4.379   4.201  0.3686  0.0561 -0.1976
 1620SOL    HW1 5048   1.884   4.381   4.106  0.1182  0.2743 -0.2220
 1620SOL    HW2 5049   1.854   4.470   4.225  0.6577  0.0442  0.0877
 1621SOL     OW 5050   2.357   2.814   4.182 -0.3405 -0.1780 -0.7154
 1621SOL    HW1 5051   2.394   2.820   4.094 -0.2242 -0.2813 -0.6740
 1621SOL    HW2 5052   2.329   2.903   4.203  0.6045  0.0581 -0.4269
 1622SOL     OW 5053   2.099   3.367   3.591 -0.1765 -0.2499 -0.1630
 1622SOL    HW1 5054   2.159   3.294   3.573 -0.0833 -0.4612  0.9125
 1622SOL    HW2 5055   2.019   3.324   3.623 -0.8617  0.0374 -1.4216
 1623SOL     OW 5056   1.419   2.795   3.385  0.1373  0.4555  0.2291
 1623SOL    HW1 5057   1.462   2.873   3.420 -0.6211  1.0941 -0.2254
 1623SOL    HW2 5058   1.469   2.774   3.306  1.2982 -0.4616  1.1679
 1624SOL     OW 5059   0.148   2.278   2.678 -0.5303  0.0870 -0.1745
 1624SOL    HW1 5060   0.155   2.308   2.587  0.6464  0.7031  0.1008
 1624SOL    HW2 5061   0.114   2.354   2.725 -0.6583 -0.0695 -0.0143
 1625SOL     OW 5062   4.497   0.267   0.990  0.1173  0.9097  0.5314
 1625SOL    HW1 5063   4.534   0.254   0.902  2.8787  0.5207  1.6378
 1625SOL    HW2 5064   4.479   0.179   1.023 -1.6844  1.0848  0.1206
 1626SOL     OW 5065   3.938   0.851   4.588  0.0008  0.0976  0.1458
 1626SOL    HW1 5066   3.923   0.756   4.583  1.1567 -0.0633 -0.7234
 1626SOL    HW2 5067   3.948   0.869   4.681 -0.5574 -0.5732  0.3451
 1627SOL     OW 5068   2.543   0.351   3.635 -0.1341  0.4593 -0.1380
 1627SOL    HW1 5069   2.596   0.274   3.619 -1.5651 -0.7744  0.7014
 1627SOL    HW2 5070   2.544   0.361   3.730 -0.1577  1.3364 -0.2236
 1628SOL     OW 5071   4.487   1.508   1.788  0.1581  0.0902  0.9197
 1628SOL    HW1 5072   4.484   1.526   1.694  2.9482  0.8086  0.8631
 1628SOL    HW2 5073   4.450   1.585   1.829  1.0013  0.7765  0.4248
 1629SOL     OW 5074   1.316   3.555   3.277  0.6979 -0.3886  0.0497
 1629SOL    HW1 5075   1.282   3.472   3.310  1.1113 -0.7156 -0.3202
 1629SOL    HW2 5076   1.403   3.562   3.318  1.1042 -0.6705 -0.7410
 1630SOL     OW 5077   3.515   3.297   0.009 -0.3562  0.1051 -0.2819
 1630SOL    HW1 5078   3.472   3.284   0.093 -0.3167  1.0706 -0.0989
 1630SOL    HW2 5079   3.573   3.222  -0.000 -1.0125 -0.4702  0.1313
 1631SOL     OW 5080   2.101   2.865   4.477 -0.3171 -0.3926  0.3893
 1631SOL    HW1 5081   2.105   2.813   4.558 -0.9176 -0.5950  0.2916
 1631SOL    HW2 5082   2.060   2.806   4.413 -0.2870 -0.0661  0.0669
 1632SOL     OW 5083   0.133   2.614   1.162 -0.1227  0.5938  0.1933
 1632SOL    HW1 5084   0.184   2.545   1.204  1.4302  1.5550 -0.0006
 1632SOL    HW2 5085   0.173   2.695   1.194 -0.1282  1.3613 -1.6402
 1633SOL     OW 5086   4.295   1.478   2.416  0.3371 -0.7830  0.8288
 1633SOL    HW1 5087   4.291   1.528   2.335 -0.9477 -1.9243  0.1586
 1633SOL    HW2 5088   4.222   1.511   2.468  1.3101  0.1355  1.6969
 1634SOL     OW 5089   2.221   4.189   0.130  0.1246  0.5930  0.2784
 1634SOL    HW1 5090   2.248   4.272   0.168  1.5379  1.1768 -1.8198
 1634SOL    HW2 5091   2.298   4.159   0.080 -1.2549 -0.5521 -1.2979
 1635SOL     OW 5092   0.555   2.121   1.670 -0.1255 -0.2929 -0.2494
 1635SOL    HW1 5093   0.525   2.118   1.761  1.5685  0.2485  0.3660
 1635SOL    HW2 5094   0.479   2.154   1.621 -1.0539 -0.5586  0.9556
 1636SOL     OW 5095   4.280   1.822   2.194  0.2715  0.2131  0.3344
 1636SOL    HW1 5096   4.363   1.822   2.241  1.2421  1.1763 -1.3161
 1636SOL    HW2 5097   4.217   1.857   2.258  1.5036  1.3287  0.9715
 1637SOL     OW 5098   2.982   0.675   0.152 -0.0524 -0.5973  0.3666
 1637SOL    HW1 5099   3.073   0.662   0.126 -0.0887 -0.2296  0.0533
 1637SOL    HW2 5100   2.931   0.623   0.090 -0.2764  1.7897 -1.6000
 1638SOL     OW 5101   4.810   4.560   3.851 -0.0089 -0.4700 -0.1399
 1638SOL    HW1 5102   4.714   4.551   3.850 -0.1442  0.6668  0.6348
 1638SOL    HW2 5103   4.842   4.471   3.838 -1.1680 -0.8235 -0.7538
 1639SOL     OW 5104   1.228   2.825   4.347 -0.9197  0.4081 -0.2907
 1639SOL    HW1 5105   1.197   2.849   4.260 -1.7880  3.3438  0.7033
 1639SOL    HW2 5106   1.294   2.892   4.369  1.3264 -1.8441  0.2968
 1640SOL     OW 5107   4.213   2.156   3.787 -0.0077  0.4612 -0.5081
 1640SOL    HW1 5108   4.296   2.110   3.773  0.8000  1.6173  0.3195
 1640SOL    HW2 5109   4.153   2.117   3.723  0.9699 -0.8745 -0.6538
 1641SOL     OW 5110   2.484   0.930   0.173 -0.6899 -0.0343 -0.1427
 1641SOL    HW1 5111   2.464   0.960   0.261  3.9291  1.1368  0.7610
 1641SOL    HW2 5112   2.462   1.004   0.116 -0.5586  0.4994  0.4955
 1642SOL     OW 5113   1.405   0.468   1.679 -0.6585  0.1619 -0.2985
 1642SOL    HW1 5114   1.388   0.485   1.771 -1.5054 -0.6880 -0.2752
 1642SOL    HW2 5115   1.456   0.543   1.649 -0.7559  0.6624  0.7470
 1643SOL     OW 5116   3.930   1.875   3.053 -0.1208 -0.1718  0.2712
 1643SOL    HW1 5117   3.848   1.827   3.048  0.1658 -0.7269  0.7944
 1643SOL    HW2 5118   3.921   1.944   2.988  0.2125 -2.0493 -1.8838
 1644SOL     OW 5119   3.128   2.136   0.149  0.1775 -0.1298 -0.0667
 1644SOL    HW1 5120   3.165   2.163   0.233 -0.5941  0.4495  0.1019
 1644SOL    HW2 5121   3.040   2.106   0.170  0.2210 -0.6228 -0.5792
 1645SOL     OW 5122   0.370   3.239   4.811  0.5304  0.0580  0.2836
 1645SOL    HW1 5123   0.364   3.321   4.860  0.3379  0.1393  0.1258
 1645SOL    HW2 5124   0.346   3.171   4.875 -0.8205  0.2607  0.0205
 1646SOL     OW 5125   1.717   0.484   2.154  0.2698 -0.2544  0.2797
 1646SOL    HW1 5126   1.691   0.500   2.244  0.9716 -0.3027  0.4969
 1646SOL    HW2 5127   1.738   0.570   2.118 -2.3761  0.1040 -0.6258
 1647SOL     OW 5128   3.960   3.328   4.286 -0.4533  0.0953 -0.5405
 1647SOL    HW1 5129   3.949   3.257   4.223  1.3890 -1.0091  0.3000
 1647SOL    HW2 5130   4.051   3.356   4.274  0.7174 -1.6188  3.0085
 1648SOL     OW 5131   2.971   1.555   3.947 -0.0048 -0.0409 -0.3576
 1648SOL    HW1 5132   2.887   1.561   3.901  0.1476 -0.4306 -0.6915
 1648SOL    HW2 5133   3.021   1.630   3.914  0.9746 -1.6099 -2.6418
 1649SOL     OW 5134   3.705   4.189   3.069  0.3942  0.4785  0.1495
 1649SOL    HW1 5135   3.759   4.122   3.110 -0.3965  0.2276  0.7993
 1649SOL    HW2 5136   3.726   4.183   2.976 -0.8194 -1.7719 -0.0428
 1650SOL     OW 5137   2.245   3.099   3.612 -0.3739 -0.0984 -0.3028
 1650SOL    HW1 5138   2.223   3.060   3.697  0.8158 -0.9295 -0.3559
 1650SOL    HW2 5139   2.304   3.036   3.571 -0.7333  0.4058 -1.6631
 1651SOL     OW 5140   0.973   0.319   4.460 -0.0779 -0.1961 -0.4057
 1651SOL    HW1 5141   1.018   0.237   4.483 -0.1796 -0.3853 -0.8616
 1651SOL    HW2 5142   0.895   0.320   4.516  0.3455 -0.0028  0.1884
 1652SOL     OW 5143   2.521   0.468   3.923 -0.0561  0.3261  0.3984
 1652SOL    HW1 5144   2.611   0.435   3.927 -0.1588  0.1542  1.5027
 1652SOL    HW2 5145   2.519   0.541   3.985 -0.6388  0.4287  0.2640
 1653SOL     OW 5146   3.897   3.020   1.340  0.0511 -0.1274  0.0909
 1653SOL    HW1 5147   3.896   3.087   1.271 -0.6875 -0.5637 -0.3415
 1653SOL    HW2 5148   3.810   3.025   1.380  0.1561 -0.5026  0.3720
 1654SOL     OW 5149   0.302   1.003   4.613  0.2218  0.4013  0.5322
 1654SOL    HW1 5150   0.350   0.920   4.604  0.7561  0.7531  0.0416
 1654SOL    HW2 5151   0.346   1.049   4.684  0.7458  0.8107 -0.0523
 1655SOL     OW 5152   0.896   4.650   4.738 -0.1478  0.4185  0.2587
 1655SOL    HW1 5153   0.868   4.644   4.646  1.1131  1.0617 -0.1955
 1655SOL    HW2 5154   0.815   4.646   4.788 -0.8249 -0.4669 -0.8590
 1656SOL     OW 5155   1.561   3.681   1.589  0.1000 -0.2151  0.4035
 1656SOL    HW1 5156   1.578   3.642   1.675  1.1502  0.0373  0.3240
 1656SOL    HW2 5157   1.552   3.607   1.530  2.3855 -0.4109  0.1912
 1657SOL     OW 5158   2.629   1.210   1.883 -0.1418  0.0896 -0.0492
 1657SOL    HW1 5159   2.577   1.290   1.879 -1.2829 -0.5907  0.7019
 1657SOL    HW2 5160   2.607   1.162   1.804 -0.8526 -0.3120  0.3902
 1658SOL     OW 5161   4.219   1.980   3.302  0.2022 -0.0980 -0.5451
 1658SOL    HW1 5162   4.210   2.034   3.223  1.2237  1.9647  0.6631
 1658SOL    HW2 5163   4.271   2.034   3.362 -1.7038 -0.9824  2.0819
 1659SOL     OW 5164   1.331   2.035   0.747  0.1243 -0.1736  0.2412
 1659SOL    HW1 5165   1.258   2.080   0.705  0.8534 -0.5059 -1.4714
 1659SOL    HW2 5166   1.381   2.105   0.789  0.3354  0.4298 -0.9719
 1660SOL     OW 5167   2.503   1.748   4.709 -0.4865 -0.5104  0.3834
 1660SOL    HW1 5168   2.430   1.809   4.717  0.6323  0.7006  1.9408
 1660SOL    HW2 5169   2.578   1.802   4.684 -0.3699 -1.9777 -3.0344
 1661SOL     OW 5170   0.300   2.206   4.929  0.5023  0.6177  0.3618
 1661SOL    HW1 5171   0.273   2.168   4.846 -0.9953  0.3573  0.9341
 1661SOL    HW2 5172   0.266   2.295   4.927  1.5968  1.0441  0.1733
 1662SOL     OW 5173   0.651   1.042   3.053  0.9122 -0.2275  0.1975
 1662SOL    HW1 5174   0.647   1.050   3.149 -1.1898 -0.2321  0.1518
 1662SOL    HW2 5175   0.650   0.948   3.036 -2.1002 -0.2802  0.1633
 1663SOL     OW 5176   0.745   3.412   1.310  0.6891 -0.0064  0.3834
 1663SOL    HW1 5177   0.822   3.356   1.322  0.1747 -0.5953  1.0015
 1663SOL    HW2 5178   0.679   3.375   1.368  0.1560  0.9122  0.3807
 1664SOL     OW 5179   2.983   2.271   4.425 -0.1156  0.2073  0.0678
 1664SOL    HW1 5180   3.021   2.290   4.340  0.0077  0.8697  0.2619
 1664SOL    HW2 5181   3.057   2.276   4.486  0.0804 -1.7294  0.0403
 1665SOL     OW 5182   3.359   2.106   1.768 -0.2806 -0.4107 -0.1213
 1665SOL    HW1 5183   3.381   2.016   1.791  1.2315 -0.1570 -0.4495
 1665SOL    HW2 5184   3.312   2.140   1.844 -1.4764 -1.6711 -0.2734
 1666SOL     OW 5185   2.058   1.797   4.360  0.0193  0.4618 -0.4527
 1666SOL    HW1 5186   2.000   1.746   4.416 -2.0280  1.2135 -1.7782
 1666SOL    HW2 5187   2.130   1.738   4.339 -0.9624 -0.9911  0.1154
 1667SOL     OW 5188   0.252   1.527   4.606 -0.3155 -0.0197 -0.1923
 1667SOL    HW1 5189   0.187   1.469   4.644 -1.3781  0.8301 -0.6544
 1667SOL    HW2 5190   0.217   1.548   4.519  0.3782  0.7615 -0.2960
 1668SOL     OW 5191   1.108   1.935   3.031 -0.0083  0.0821 -0.1580
 1668SOL    HW1 5192   1.021   1.958   3.063 -0.5945  0.2783 -1.8002
 1668SOL    HW2 5193   1.118   1.985   2.949  0.9877 -1.1586 -0.8351
 1669SOL     OW 5194   0.268   2.098   0.280  0.4116  0.2910 -0.1540
 1669SOL    HW1 5195   0.359   2.079   0.304  0.1000 -1.2123 -0.0864
 1669SOL    HW2 5196   0.268   2.097   0.185  0.1899 -1.1868 -0.1513
 1670SOL     OW 5197   2.036   0.715   2.222 -0.3929  0.1373  0.1218
 1670SOL    HW1 5198   2.049   0.634   2.174  4.4286  0.2879  0.7228
 1670SOL    HW2 5199   2.045   0.691   2.314 -0.2110  1.1435  0.3874
 1671SOL     OW 5200   1.483   1.726   0.387  0.0301  0.8824  0.4080
 1671SOL    HW1 5201   1.401   1.776   0.387 -0.1789  0.5498 -0.2415
 1671SOL    HW2 5202   1.461   1.643   0.346  0.6604  0.7282  0.3654
 1672SOL     OW 5203   2.386   2.544   4.620  0.5247  0.0883 -0.1010
 1672SOL    HW1 5204   2.317   2.479   4.635  0.8473  0.2446  2.6091
 1672SOL    HW2 5205   2.395   2.548   4.525  1.0361 -4.3765 -0.4452
 1673SOL     OW 5206   2.873   2.421   3.715  0.2195 -0.3949  0.2063
 1673SOL    HW1 5207   2.798   2.393   3.769  0.0511  1.0433  0.7538
 1673SOL    HW2 5208   2.850   2.393   3.627 -0.5626 -0.7568  0.5071
 1674SOL     OW 5209   4.499   4.606   1.408  0.0884  0.1483  0.0662
 1674SOL    HW1 5210   4.440   4.531   1.418  0.9613 -0.6846 -0.7271
 1674SOL    HW2 5211   4.520   4.607   1.314  0.0028  1.4715  0.0423
 1675SOL     OW 5212   3.903   0.377   3.856 -0.3380 -0.1147  0.1380
 1675SOL    HW1 5213   3.908   0.323   3.935 -1.0005 -1.7989 -0.9161
 1675SOL    HW2 5214   3.927   0.317   3.785 -0.7536  1.0911 -1.0522
 1676SOL     OW 5215   4.067   3.849   3.769  0.0159  0.0325  0.1306
 1676SOL    HW1 5216   4.094   3.773   3.820 -1.0845  0.5090  1.5069
 1676SOL    HW2 5217   4.107   3.924   3.814 -0.1832  0.3839 -0.2707
 1677SOL     OW 5218   4.716   3.368   3.557  0.3301  0.2994  0.5193
 1677SOL    HW1 5219   4.756   3.341   3.475  0.5710 -0.2505  0.8086
 1677SOL    HW2 5220   4.648   3.302   3.573  0.3610  0.3382  0.8163
 1678SOL     OW 5221   3.789   0.675   0.291  0.1746 -0.1214 -0.1014
 1678SOL    HW1 5222   3.818   0.693   0.201 -0.7307  0.0307 -0.3799
 1678SOL    HW2 5223   3.863   0.698   0.346 -0.2339  2.6900 -0.5831
 1679SOL     OW 5224   3.434   3.222   2.245 -0.2636 -0.3552  0.0526
 1679SOL    HW1 5225   3.452   3.234   2.152 -0.2532 -1.2251 -0.0654
 1679SOL    HW2 5226   3.510   3.174   2.279  0.0918  0.6229  0.6810
 1680SOL     OW 5227   4.349   2.620   0.760  0.0483  0.2392  0.3222
 1680SOL    HW1 5228   4.366   2.559   0.688 -1.2301 -1.3014  1.2504
 1680SOL    HW2 5229   4.263   2.594   0.792 -0.4574  2.4602  0.8913
 1681SOL     OW 5230   3.768   0.887   2.923  0.1788  0.2491 -0.0248
 1681SOL    HW1 5231   3.847   0.911   2.971  0.9471  0.4347 -1.3451
 1681SOL    HW2 5232   3.749   0.962   2.867 -0.8508  0.1344  0.1384
 1682SOL     OW 5233   2.193   0.301   0.402 -1.2378  0.0772 -0.0950
 1682SOL    HW1 5234   2.199   0.211   0.371 -0.9668  0.0516  0.0321
 1682SOL    HW2 5235   2.149   0.348   0.331  0.0321  0.1789 -0.8427
 1683SOL     OW 5236   0.011   1.224   0.321  0.2578  0.4359  0.4047
 1683SOL    HW1 5237  -0.016   1.171   0.396 -1.1550 -1.6758 -1.4776
 1683SOL    HW2 5238  -0.022   1.311   0.341 -1.1356 -0.3387  1.7115
 1684SOL     OW 5239   4.018   1.400   0.466  0.1666 -0.4620  0.6461
 1684SOL    HW1 5240   3.950   1.414   0.401  1.2196  1.1136 -0.1949
 1684SOL    HW2 5241   4.080   1.340   0.424 -0.1545 -1.0671  1.0128
 1685SOL     OW 5242   4.743   3.606   2.912 -0.7922 -0.2409 -0.0288
 1685SOL    HW1 5243   4.791   3.622   2.993 -0.5297  0.3674 -0.2930
 1685SOL    HW2 5244   4.730   3.511   2.910  2.2597 -0.7689 -0.9437
 1686SOL     OW 5245   0.584   1.495   0.058  0.5398  0.4216 -0.0439
 1686SOL    HW1 5246   0.632   1.423   0.017  0.0208  0.4684 -0.7388
 1686SOL    HW2 5247   0.540   1.540  -0.014 -0.4453  0.4690  0.5632
 1687SOL     OW 5248   0.960   1.373   0.314  0.4279 -0.0786  0.3175
 1687SOL    HW1 5249   0.924   1.459   0.289 -0.6949 -0.7223 -0.3658
 1687SOL    HW2 5250   1.050   1.375   0.281  0.6628  1.1102  0.9665
 1688SOL     OW 5251   0.701   2.444   3.367 -0.0858  0.0100 -0.2858
 1688SOL    HW1 5252   0.776   2.386   3.353  0.2754  0.3164  0.3048
 1688SOL    HW2 5253   0.675   2.471   3.280  0.4193 -0.2051 -0.5094
 1689SOL     OW 5254   2.177   3.261   1.980 -0.4322 -0.1656  0.6798
 1689SOL    HW1 5255   2.181   3.266   2.075  1.2355 -2.0536  0.7633
 1689SOL    HW2 5256   2.121   3.335   1.955 -2.2453 -0.5542  3.1880
 1690SOL     OW 5257   1.513   4.697   4.046 -0.1288  0.9150 -0.3447
 1690SOL    HW1 5258   1.441   4.712   3.984 -1.0338  2.8025  1.1013
 1690SOL    HW2 5259   1.550   4.783   4.062  2.3860  0.0223 -0.8673
 1691SOL     OW 5260   2.683   2.752   2.862  0.0490  0.4628 -0.5261
 1691SOL    HW1 5261   2.647   2.762   2.774  2.5883 -0.7333 -1.8007
 1691SOL    HW2 5262   2.731   2.833   2.878 -1.9823  1.5115  0.6447
 1692SOL     OW 5263   2.081   1.288   2.356 -0.4815  0.1444 -0.6892
 1692SOL    HW1 5264   2.100   1.382   2.363 -0.0716 -0.0098  0.4502
 1692SOL    HW2 5265   2.050   1.263   2.443  0.8038 -1.0617 -0.5388
 1693SOL     OW 5266   1.853   0.594   4.420 -0.1896  0.4516  0.3418
 1693SOL    HW1 5267   1.792   0.667   4.404 -1.1477 -0.5328 -0.6389
 1693SOL    HW2 5268   1.939   0.636   4.423 -0.8555  1.8453  1.5152
 1694SOL     OW 5269   3.359   3.040   1.401  0.1099 -0.2260  0.0479
 1694SOL    HW1 5270   3.360   3.053   1.306 -1.0239 -0.6244 -0.0275
 1694SOL    HW2 5271   3.353   3.128   1.437  1.7431  0.0242 -0.1914
 1695SOL     OW 5272   4.652   2.793   4.175 -0.2319 -0.4067  0.0056
 1695SOL    HW1 5273   4.651   2.808   4.269  1.6914  0.3236 -0.0430
 1695SOL    HW2 5274   4.670   2.700   4.165 -0.6446 -0.5237  0.3489
 1696SOL     OW 5275   3.271   2.236   3.509  0.0583 -0.3094  0.2316
 1696SOL    HW1 5276   3.362   2.266   3.502  0.5568 -1.7323  0.2399
 1696SOL    HW2 5277   3.225   2.282   3.439  0.8755  0.1224 -0.0338
 1697SOL     OW 5278   1.650   3.911   4.815 -0.1266 -0.1612 -0.4095
 1697SOL    HW1 5279   1.600   3.920   4.896  0.4246  0.8871 -0.1636
 1697SOL    HW2 5280   1.672   4.001   4.790  1.8714 -0.5808 -0.3496
 1698SOL     OW 5281   4.199   2.604   4.697  0.4797 -0.1241 -0.1757
 1698SOL    HW1 5282   4.116   2.574   4.660  0.3813  1.2033 -1.1295
 1698SOL    HW2 5283   4.266   2.561   4.644  0.3493  0.5807 -0.9434
 1699SOL     OW 5284   2.151   0.536   3.274 -0.1979 -1.1458 -0.0970
 1699SOL    HW1 5285   2.212   0.526   3.347  0.9538  2.1060 -0.4480
 1699SOL    HW2 5286   2.065   0.518   3.312  0.5418 -1.2061  1.6292
 1700SOL     OW 5287   4.667   2.529   3.632  0.1022  0.1791  0.1797
 1700SOL    HW1 5288   4.757   2.499   3.614  0.4204  0.3640  1.4004
 1700SOL    HW2 5289   4.641   2.575   3.552  0.4042 -1.4504 -0.9129
 1701SOL     OW 5290   3.393   1.959   2.645 -0.7452  0.2739  0.5531
 1701SOL    HW1 5291   3.335   2.021   2.600 -0.1061  1.5361  1.3975
 1701SOL    HW2 5292   3.395   1.989   2.735 -1.2379 -1.6422  1.2436
 1702SOL     OW 5293   2.506   0.900   4.426  0.0188 -0.5332 -0.0542
 1702SOL    HW1 5294   2.456   0.847   4.489 -1.4629 -1.0845 -1.6198
 1702SOL    HW2 5295   2.595   0.902   4.462 -0.3271 -2.4541  1.0522
 1703SOL     OW 5296   0.438   1.127   2.881  0.0967  0.1025  0.0048
 1703SOL    HW1 5297   0.441   1.222   2.870 -1.1018 -0.0403 -2.2269
 1703SOL    HW2 5298   0.510   1.107   2.941  0.3798  2.3945  0.5188
 1704SOL     OW 5299   2.227   0.838   1.934  0.1790  0.1504 -0.1880
 1704SOL    HW1 5300   2.318   0.833   1.904 -0.0973  1.0437 -1.2336
 1704SOL    HW2 5301   2.224   0.917   1.988  0.3817 -0.7684  1.2039
 1705SOL     OW 5302   2.046   3.917   1.697  0.2276 -1.0197  0.3055
 1705SOL    HW1 5303   1.990   3.995   1.691 -1.3071 -2.1661 -1.9897
 1705SOL    HW2 5304   2.105   3.924   1.622  0.3639 -1.8143  0.3285
 1706SOL     OW 5305   3.196   2.238   3.777 -1.4275  0.1226 -0.6492
 1706SOL    HW1 5306   3.239   2.311   3.822 -0.3294 -0.3236 -0.9381
 1706SOL    HW2 5307   3.213   2.253   3.684 -1.2714 -0.4584 -0.7149
 1707SOL     OW 5308   3.183   1.463   1.285 -0.0488 -0.0917 -0.3171
 1707SOL    HW1 5309   3.088   1.473   1.283  0.0101  0.4539 -1.4519
 1707SOL    HW2 5310   3.198   1.377   1.245 -0.0628 -0.1266 -0.2470
 1708SOL     OW 5311   1.691   0.616   3.487  0.0730  0.3719 -0.2134
 1708SOL    HW1 5312   1.766   0.561   3.466  1.1134  1.9922 -0.9670
 1708SOL    HW2 5313   1.712   0.654   3.573  0.2451  0.9864 -0.5179
 1709SOL     OW 5314   3.282   4.265   1.933  1.0765  0.3658 -0.0861
 1709SOL    HW1 5315   3.225   4.227   1.866  1.6654  1.6304 -1.3515
 1709SOL    HW2 5316   3.348   4.198   1.948 -0.1836 -0.7583  0.7558
 1710SOL     OW 5317   3.584   1.101   1.447  0.4424 -0.1783  0.2775
 1710SOL    HW1 5318   3.511   1.099   1.384  0.1953 -0.4862  0.5662
 1710SOL    HW2 5319   3.655   1.055   1.402  0.4798  0.1857 -0.0332
 1711SOL     OW 5320   4.410   4.054   0.184  0.3451  0.3207  0.5234
 1711SOL    HW1 5321   4.494   4.068   0.229  0.7136  0.3135 -0.1415
 1711SOL    HW2 5322   4.406   3.960   0.169  0.6476  0.4179 -0.2346
 1712SOL     OW 5323   4.157   2.930   3.594  0.0462 -0.1232  0.3292
 1712SOL    HW1 5324   4.096   2.943   3.522 -1.4242 -1.8211  1.1841
 1712SOL    HW2 5325   4.242   2.958   3.560 -0.5594 -1.0244 -2.1173
 1713SOL     OW 5326   0.537   1.850   4.179 -0.2587 -0.4780  0.1973
 1713SOL    HW1 5327   0.621   1.864   4.137 -1.2315 -0.8490 -2.0100
 1713SOL    HW2 5328   0.485   1.802   4.115 -2.9417  1.7521  0.4787
 1714SOL     OW 5329   2.596   4.899   2.505 -0.1891 -0.3061  0.5318
 1714SOL    HW1 5330   2.630   4.983   2.475  0.9755 -1.1039 -0.4957
 1714SOL    HW2 5331   2.519   4.921   2.558 -0.0023  1.3780  0.1462
 1715SOL     OW 5332   0.614   0.062   0.329  1.1880  0.1782  0.3892
 1715SOL    HW1 5333   0.560   0.077   0.407 -0.0452  2.0897 -0.7400
 1715SOL    HW2 5334   0.560   0.009   0.271  1.8333 -0.6664  0.5441
 1716SOL     OW 5335   3.130   3.926   2.252  0.1041 -0.2022  0.3679
 1716SOL    HW1 5336   3.064   3.990   2.224  0.5728 -0.0477 -0.3970
 1716SOL    HW2 5337   3.094   3.841   2.228  0.6148 -0.0579 -0.9794
 1717SOL     OW 5338   0.417   1.470   2.607 -0.0364  0.4948  0.4060
 1717SOL    HW1 5339   0.477   1.430   2.670  0.0367 -1.0156 -0.5679
 1717SOL    HW2 5340   0.471   1.487   2.530 -0.4743  0.7823  0.1598
 1718SOL     OW 5341   4.675   3.381   1.075  0.4394 -0.7606  0.4031
 1718SOL    HW1 5342   4.735   3.452   1.095  0.9513 -1.2296  0.5495
 1718SOL    HW2 5343   4.712   3.338   0.997 -0.7352  0.1217 -0.6786
 1719SOL     OW 5344   3.156   2.664   0.398 -0.0509 -0.0406 -0.2362
 1719SOL    HW1 5345   3.241   2.661   0.355  0.7164 -1.0950  1.2503
 1719SOL    HW2 5346   3.094   2.683   0.328  1.3564  0.4059 -1.4112
 1720SOL     OW 5347   4.607   3.741   0.861 -0.2808 -0.1555 -0.1322
 1720SOL    HW1 5348   4.685   3.792   0.883  0.7867 -1.3743 -0.9324
 1720SOL    HW2 5349   4.638   3.677   0.797 -1.6363 -1.5755  0.5724
 1721SOL     OW 5350   2.955   0.243   4.282  0.1154  0.2255  0.1086
 1721SOL    HW1 5351   3.007   0.261   4.203  1.7344 -1.0127  0.8362
 1721SOL    HW2 5352   3.017   0.201   4.342 -1.2570  0.5305  1.7967
 1722SOL     OW 5353   0.096   0.855   3.899 -0.1506 -0.5650  0.1356
 1722SOL    HW1 5354   0.001   0.845   3.900 -0.2980  0.6153  1.1537
 1722SOL    HW2 5355   0.116   0.896   3.984  1.1253  0.2960 -0.5479
 1723SOL     OW 5356   0.740   4.094   3.154  0.1533 -0.6221  0.5025
 1723SOL    HW1 5357   0.828   4.093   3.116 -0.5870 -0.9202 -1.3259
 1723SOL    HW2 5358   0.713   4.186   3.149 -0.4778 -0.8575 -1.1189
 1724SOL     OW 5359   3.912   2.558   3.830  0.4274 -0.4916 -0.6299
 1724SOL    HW1 5360   3.985   2.505   3.798  2.1938 -0.5732  2.9713
 1724SOL    HW2 5361   3.913   2.637   3.775  1.4085 -1.6912 -2.4162
 1725SOL     OW 5362   4.592   1.970   1.958  0.4345 -0.2572 -0.2594
 1725SOL    HW1 5363   4.687   1.959   1.957  0.5172 -0.1090  1.7474
 1725SOL    HW2 5364   4.578   2.058   1.924  1.0413 -0.1300 -0.1973
 1726SOL     OW 5365   1.276   0.994   1.453 -0.0443 -0.0123 -0.2534
 1726SOL    HW1 5366   1.244   1.057   1.388 -1.0879  0.1700  0.4196
 1726SOL    HW2 5367   1.347   0.948   1.408 -0.0393  0.8382 -1.1577
 1727SOL     OW 5368   2.820   0.622   3.581  0.1578 -0.1213  0.1485
 1727SOL    HW1 5369   2.841   0.532   3.605  4.1420  0.2404 -1.2708
 1727SOL    HW2 5370   2.737   0.615   3.533  0.0400 -2.9227  0.6021
 1728SOL     OW 5371   4.490   1.279   4.381 -0.8453 -0.5205 -0.3948
 1728SOL    HW1 5372   4.496   1.266   4.286  1.3045 -0.6421 -0.2772
 1728SOL    HW2 5373   4.479   1.374   4.391 -2.0882 -0.6012 -0.7589
 1729SOL     OW 5374   2.289   3.939   3.317  0.4794  0.2533 -0.3448
 1729SOL    HW1 5375   2.379   3.971   3.311  0.9952 -1.3758 -2.1258
 1729SOL    HW2 5376   2.235   4.016   3.300  1.4300  1.5311  1.9137
 1730SOL     OW 5377   1.650   3.655   3.800  0.3821 -0.2107 -0.4502
 1730SOL    HW1 5378   1.600   3.633   3.878 -0.4773 -0.3002 -1.0105
 1730SOL    HW2 5379   1.591   3.637   3.727  0.7514  0.9424 -1.0749
 1731SOL     OW 5380   0.451   2.581   3.137 -0.7980 -0.4556  0.1881
 1731SOL    HW1 5381   0.416   2.492   3.138 -0.4034 -0.6571  2.5919
 1731SOL    HW2 5382   0.394   2.631   3.196 -0.2373  0.5453 -0.0825
 1732SOL     OW 5383   0.240   3.332   4.561  0.1593  0.3042  0.2006
 1732SOL    HW1 5384   0.319   3.329   4.507  0.8414  2.3952  1.0064
 1732SOL    HW2 5385   0.271   3.356   4.649 -1.3350  1.0681  0.5601
 1733SOL     OW 5386   2.065   2.007   0.899  0.1398 -0.5071 -0.0762
 1733SOL    HW1 5387   2.101   1.920   0.885 -0.4811 -0.9456  0.9891
 1733SOL    HW2 5388   2.033   2.033   0.812  2.3981 -0.3372 -0.9351
 1734SOL     OW 5389   2.558   1.900   0.125 -0.1815  0.0326 -0.2493
 1734SOL    HW1 5390   2.522   1.812   0.139  0.4380 -0.3204 -0.8409
 1734SOL    HW2 5391   2.629   1.887   0.063  1.6570  0.5672  1.6534
 1735SOL     OW 5392   1.820   2.389   4.213 -0.3782 -0.3504  0.8490
 1735SOL    HW1 5393   1.726   2.375   4.203 -0.9244  2.9893  0.2939
 1735SOL    HW2 5394   1.860   2.328   4.151 -2.1992 -1.1919  0.4422
 1736SOL     OW 5395   0.648   3.005   2.899  0.0659 -0.0730 -0.3531
 1736SOL    HW1 5396   0.563   2.969   2.923  0.4783 -1.7779 -1.2673
 1736SOL    HW2 5397   0.694   2.931   2.859  1.5458  1.1198 -0.9186
 1737SOL     OW 5398   2.534   3.803   4.768  0.2088  0.2887  0.1945
 1737SOL    HW1 5399   2.459   3.785   4.824 -0.7018 -0.5962 -1.2370
 1737SOL    HW2 5400   2.563   3.890   4.793 -1.0172  0.4536  1.1009
 1738SOL     OW 5401   3.675   1.400   0.071  0.5471 -0.3234 -0.2152
 1738SOL    HW1 5402   3.693   1.324   0.016  0.1702 -0.1939 -0.5172
 1738SOL    HW2 5403   3.674   1.474   0.011 -0.9983 -0.3209 -0.2244
 1739SOL     OW 5404   3.541   4.623   4.539 -0.0786  0.3713 -0.9013
 1739SOL    HW1 5405   3.612   4.681   4.512  0.2726 -0.0159 -0.8339
 1739SOL    HW2 5406   3.524   4.646   4.630  0.5171 -0.0801 -0.6712
 1740SOL     OW 5407   2.172   0.007   2.219 -0.0158 -0.0950 -0.4366
 1740SOL    HW1 5408   2.237   0.012   2.149 -0.4788 -0.3332 -0.8883
 1740SOL    HW2 5409   2.163   0.097   2.249  1.3379 -0.2109  0.3957
 1741SOL     OW 5410   1.807   2.755   2.550 -0.4222  0.1652 -0.0635
 1741SOL    HW1 5411   1.719   2.763   2.586 -1.2266 -0.4259 -1.7940
 1741SOL    HW2 5412   1.832   2.844   2.527  0.2403  0.6030  2.1371
 1742SOL     OW 5413   0.520   0.788   3.530  0.2146 -0.4184 -0.2216
 1742SOL    HW1 5414   0.567   0.838   3.597  0.9186 -1.3649  0.0235
 1742SOL    HW2 5415   0.587   0.768   3.465 -0.2717 -0.2439 -0.7809
 1743SOL     OW 5416   3.443   3.268   1.768  0.8784 -0.1737  0.0017
 1743SOL    HW1 5417   3.518   3.301   1.718  0.4820  2.5022  1.0112
 1743SOL    HW2 5418   3.374   3.332   1.753 -0.5280 -1.4324  0.8225
 1744SOL     OW 5419   4.941   0.703   2.511  0.4373  0.4070  0.7204
 1744SOL    HW1 5420   4.872   0.671   2.453 -0.2765  1.2703  1.0585
 1744SOL    HW2 5421   5.010   0.732   2.452  1.2634 -2.0050  0.4125
 1745SOL     OW 5422   2.021   3.987   3.006  0.0140  0.2072  0.2706
 1745SOL    HW1 5423   1.966   4.061   2.981 -0.7901 -0.2011  0.8204
 1745SOL    HW2 5424   1.961   3.921   3.039  0.9988  1.0211  4.2512
 1746SOL     OW 5425   4.328   1.752   0.771 -0.0051  0.2165 -0.6674
 1746SOL    HW1 5426   4.418   1.783   0.775 -0.2832  1.1762  3.7794
 1746SOL    HW2 5427   4.334   1.659   0.790  0.0538  0.4293  0.4146
 1747SOL     OW 5428   1.059   2.435   2.514 -0.1940  0.1756  0.3252
 1747SOL    HW1 5429   1.057   2.341   2.494 -0.3561  0.0461  0.9352
 1747SOL    HW2 5430   1.063   2.440   2.609 -1.0101  0.7884  0.3428
 1748SOL     OW 5431   3.091   0.679   4.602  0.2090 -0.1586  0.0530
 1748SOL    HW1 5432   3.067   0.704   4.691  0.3235 -1.8097  0.5941
 1748SOL    HW2 5433   3.109   0.762   4.558 -0.0917  0.7178  1.4883
 1749SOL     OW 5434   2.156   2.851   3.846 -1.1839 -0.1089  0.1784
 1749SOL    HW1 5435   2.091   2.887   3.905 -2.1755  0.1434 -1.0270
 1749SOL    HW2 5436   2.240   2.869   3.888 -1.7526  1.8163  0.5760
 1750SOL     OW 5437   1.502   3.644   2.593 -0.3292 -0.2911  0.3943
 1750SOL    HW1 5438   1.504   3.709   2.663 -2.5097 -0.7750  0.9998
 1750SOL    HW2 5439   1.540   3.565   2.631 -1.0945 -0.4186  0.9203
 1751SOL     OW 5440   4.215   2.051   2.556  0.4007 -0.7154  0.2914
 1751SOL    HW1 5441   4.219   1.978   2.495  0.3280  0.7929 -1.6312
 1751SOL    HW2 5442   4.270   2.119   2.516 -3.3693  2.0968 -0.7271
 1752SOL     OW 5443   4.142   4.057   1.271 -0.0071  0.3681 -0.0109
 1752SOL    HW1 5444   4.136   4.144   1.233  0.5891  0.5291  0.2590
 1752SOL    HW2 5445   4.139   3.997   1.196 -0.4138  0.6184 -0.1950
 1753SOL     OW 5446   4.261   1.121   3.087 -0.3751  0.4784  0.1473
 1753SOL    HW1 5447   4.347   1.137   3.049  0.5583 -0.2289  1.8474
 1753SOL    HW2 5448   4.265   1.164   3.173 -0.5098 -2.2656  1.6200
 1754SOL     OW 5449   2.455   2.595   3.710 -0.2538 -0.3418  0.6576
 1754SOL    HW1 5450   2.494   2.552   3.634  0.7555  0.3329  0.7567
 1754SOL    HW2 5451   2.527   2.648   3.746 -0.9786  0.0848  1.5175
 1755SOL     OW 5452   2.114   4.703   4.345  0.5089 -0.2819  0.5416
 1755SOL    HW1 5453   2.200   4.731   4.312  0.8953 -0.5673  1.2875
 1755SOL    HW2 5454   2.099   4.760   4.420 -0.3395  0.3278 -0.0789
 1756SOL     OW 5455   0.608   4.237   1.095 -0.1997  0.1554 -0.0741
 1756SOL    HW1 5456   0.631   4.169   1.031  1.1888  0.2486  0.3024
 1756SOL    HW2 5457   0.692   4.275   1.120 -0.9340  1.8413 -0.0764
 1757SOL     OW 5458   0.498   2.931   3.353  0.1832  0.1198  0.2436
 1757SOL    HW1 5459   0.527   3.017   3.385 -1.6179  0.0845  2.2609
 1757SOL    HW2 5460   0.411   2.921   3.391 -0.5958 -1.6394 -1.8478
 1758SOL     OW 5461   2.368   3.561   2.046  0.6511 -0.3333  0.6642
 1758SOL    HW1 5462   2.273   3.551   2.052  0.7208 -1.2533  0.3454
 1758SOL    HW2 5463   2.380   3.638   1.991  0.0763 -1.0268 -0.4939
 1759SOL     OW 5464   0.470   3.583   3.940  0.5965  0.4752 -0.2170
 1759SOL    HW1 5465   0.452   3.548   4.027  3.6158  0.0457  0.3394
 1759SOL    HW2 5466   0.434   3.672   3.942  0.0064  0.2284  1.2021
 1760SOL     OW 5467   1.212   3.718   2.051  0.0148  0.8282 -0.0286
 1760SOL    HW1 5468   1.195   3.749   2.139 -3.4793  1.4674 -0.7969
 1760SOL    HW2 5469   1.178   3.628   2.050 -0.0077  0.8373 -0.7198
 1761SOL     OW 5470   2.174   2.436   0.220  0.1292  0.1103  0.1767
 1761SOL    HW1 5471   2.215   2.520   0.240  0.1502  0.2782 -0.5645
 1761SOL    HW2 5472   2.080   2.454   0.228  0.1708 -0.2396  1.7332
 1762SOL     OW 5473   3.813   3.230   3.934 -0.3406  0.5786  0.0835
 1762SOL    HW1 5474   3.872   3.186   3.995  0.4371  0.0468 -1.0098
 1762SOL    HW2 5475   3.786   3.161   3.873 -1.7734  0.9068  0.3094
 1763SOL     OW 5476   0.268   3.612   2.890  0.1255  0.1224  0.1707
 1763SOL    HW1 5477   0.294   3.520   2.891 -0.3049 -0.0128  1.6029
 1763SOL    HW2 5478   0.351   3.659   2.878  1.0313 -0.3487  3.5406
 1764SOL     OW 5479   0.814   1.293   1.215  0.2460 -0.2099  0.6299
 1764SOL    HW1 5480   0.817   1.323   1.306 -2.6888 -0.4086  0.8988
 1764SOL    HW2 5481   0.724   1.311   1.187  0.4100 -2.1884 -1.5053
 1765SOL     OW 5482   3.829   1.464   3.209 -0.5658  0.2233 -0.0495
 1765SOL    HW1 5483   3.867   1.382   3.241 -1.8441 -0.2746  0.2502
 1765SOL    HW2 5484   3.904   1.521   3.195  0.2747 -0.6677  0.6840
 1766SOL     OW 5485   0.406   4.532   0.622  0.8875 -0.2147  0.5655
 1766SOL    HW1 5486   0.437   4.448   0.587 -1.1642 -1.4253  1.5075
 1766SOL    HW2 5487   0.477   4.562   0.678  1.2545 -1.8541  1.0266
 1767SOL     OW 5488   0.542   1.449   3.573 -0.0989 -0.3588  0.3887
 1767SOL    HW1 5489   0.582   1.363   3.563  1.9610  0.2369  2.5577
 1767SOL    HW2 5490   0.471   1.450   3.509  1.0729 -2.8929 -1.1185
 1768SOL     OW 5491   0.514   3.622   4.777 -0.4245 -0.0976  0.4853
 1768SOL    HW1 5492   0.480   3.578   4.855 -0.3810 -0.8919  0.0651
 1768SOL    HW2 5493   0.445   3.614   4.712  0.3358 -1.2557 -0.2015
 1769SOL     OW 5494   2.438   1.099   2.202 -0.0350  0.0405  0.1190
 1769SOL    HW1 5495   2.436   1.022   2.259 -0.3376 -0.0896 -0.0660
 1769SOL    HW2 5496   2.405   1.068   2.118 -1.0267  0.5719  0.2987
 1770SOL     OW 5497   3.211   1.202   2.692 -0.5651 -0.3320 -0.2550
 1770SOL    HW1 5498   3.145   1.255   2.648 -0.5524 -1.0799 -1.1996
 1770SOL    HW2 5499   3.186   1.204   2.784 -0.4766  1.4220 -0.2292
 1771SOL     OW 5500   2.462   0.301   4.366  0.1607 -0.6712 -0.2125
 1771SOL    HW1 5501   2.417   0.375   4.405 -0.3487 -0.4269 -1.2597
 1771SOL    HW2 5502   2.532   0.280   4.429 -0.0768  0.2873  0.3851
 1772SOL     OW 5503   4.037   1.985   4.582 -0.2253  0.2313 -0.4362
 1772SOL    HW1 5504   4.017   1.963   4.492 -0.9977  0.1018 -0.2376
 1772SOL    HW2 5505   3.975   1.933   4.634 -0.2419  0.8128  0.1382
 1773SOL     OW 5506   2.295   3.447   1.646 -0.2862 -0.0906 -0.1624
 1773SOL    HW1 5507   2.240   3.522   1.670 -2.8534 -0.3149 -4.3240
 1773SOL    HW2 5508   2.284   3.385   1.718  0.5831  2.6952  2.6123
 1774SOL     OW 5509   0.473   1.358   1.562 -0.1590  0.7325 -0.0130
 1774SOL    HW1 5510   0.492   1.375   1.654 -2.2230  3.2687  0.0388
 1774SOL    HW2 5511   0.551   1.386   1.515  1.0917 -0.9993  0.9097
 1775SOL     OW 5512   4.303   2.423   0.162 -0.4154 -0.0699  0.6965
 1775SOL    HW1 5513   4.241   2.493   0.139 -0.1933  0.3004  1.1965
 1775SOL    HW2 5514   4.251   2.362   0.214 -0.3136  0.3613  1.3203
 1776SOL     OW 5515   2.514   2.714   0.231  0.3618 -0.5058  0.2506
 1776SOL    HW1 5516   2.533   2.621   0.215 -0.8418 -0.6273 -0.5790
 1776SOL    HW2 5517   2.419   2.719   0.233  0.4174  0.6577  0.6988
 1777SOL     OW 5518   3.886   3.649   4.255  0.0156 -0.1613  0.4133
 1777SOL    HW1 5519   3.958   3.590   4.279 -1.0694 -0.9486  1.8924
 1777SOL    HW2 5520   3.810   3.591   4.244 -0.6471  0.7640 -0.0299
 1778SOL     OW 5521   1.250   1.492   0.625  0.1303  0.5913 -0.2374
 1778SOL    HW1 5522   1.182   1.472   0.690  0.6701 -0.8899 -0.0924
 1778SOL    HW2 5523   1.252   1.587   0.622 -1.5330  0.6840  0.1962
 1779SOL     OW 5524   3.279   1.577   0.247  0.5376  0.2083 -0.3385
 1779SOL    HW1 5525   3.248   1.568   0.337 -0.3784 -0.1850 -0.6887
 1779SOL    HW2 5526   3.371   1.549   0.251  0.0171 -1.5632  0.1463
 1780SOL     OW 5527   1.500   3.182   0.853 -0.3180 -0.2695 -0.3618
 1780SOL    HW1 5528   1.544   3.098   0.861 -0.4054 -0.3654 -0.8833
 1780SOL    HW2 5529   1.564   3.246   0.884 -0.2544 -0.5247  0.0406
 1781SOL     OW 5530   2.323   4.594   3.643 -0.0381 -0.0377 -0.1886
 1781SOL    HW1 5531   2.414   4.567   3.637 -0.4442 -1.5388 -0.1666
 1781SOL    HW2 5532   2.288   4.581   3.555 -0.8744 -2.1228  0.3951
 1782SOL     OW 5533   3.674   4.114   1.783 -0.0246  0.1026  0.4449
 1782SOL    HW1 5534   3.765   4.092   1.806  0.2617  0.6238 -0.1464
 1782SOL    HW2 5535   3.625   4.097   1.863  0.6137 -0.0830  0.8101
 1783SOL     OW 5536   3.377   4.742   1.261  0.4980  0.5427  0.2812
 1783SOL    HW1 5537   3.366   4.770   1.352 -1.0685  1.3394 -0.1192
 1783SOL    HW2 5538   3.462   4.698   1.259  0.2000 -0.2153  2.2983
 1784SOL     OW 5539   4.922   3.625   0.632 -0.2609  0.7116 -0.0462
 1784SOL    HW1 5540   4.839   3.589   0.601 -0.2346  0.7475 -0.1594
 1784SOL    HW2 5541   4.944   3.692   0.568 -0.8405  1.6706  0.7252
 1785SOL     OW 5542   4.616   2.222   4.305 -0.1722  0.9208 -1.0853
 1785SOL    HW1 5543   4.677   2.176   4.247  1.7773  2.1535 -0.0975
 1785SOL    HW2 5544   4.610   2.166   4.382 -0.2744  0.8148 -1.1697
 1786SOL     OW 5545   0.036   2.809   4.411 -0.0511  0.3639 -0.1979
 1786SOL    HW1 5546   0.026   2.826   4.505 -0.4460  0.2870 -0.2248
 1786SOL    HW2 5547   0.041   2.714   4.405  1.8460  0.4185 -0.0775
 1787SOL     OW 5548   1.116   3.924   4.594 -0.0509  0.0527 -0.1180
 1787SOL    HW1 5549   1.116   3.833   4.564 -0.5436  0.3691 -1.1330
 1787SOL    HW2 5550   1.137   3.976   4.516  0.1891  0.8118  0.4371
 1788SOL     OW 5551   4.228   3.114   4.296  0.1041  0.0217 -0.3044
 1788SOL    HW1 5552   4.188   3.052   4.357  0.2299  0.4786  0.2509
 1788SOL    HW2 5553   4.309   3.141   4.339 -0.5535  1.5214  0.0544
 1789SOL     OW 5554   4.316   1.930   2.955  0.1884  0.9095 -0.1355
 1789SOL    HW1 5555   4.284   2.009   3.000 -0.4946  0.5563  0.0088
 1789SOL    HW2 5556   4.323   1.864   3.024 -0.7150  0.4069 -0.5072
 1790SOL     OW 5557   1.822   3.044   1.891  0.4175  0.0314  0.5271
 1790SOL    HW1 5558   1.755   2.979   1.912  1.2923 -0.9164  0.4953
 1790SOL    HW2 5559   1.905   2.999   1.908  1.0544  1.1544  0.5197
 1791SOL     OW 5560   0.879   0.434   2.928 -1.2433  0.5373  0.1112
 1791SOL    HW1 5561   0.786   0.446   2.944 -1.3928  0.1894 -0.4679
 1791SOL    HW2 5562   0.902   0.504   2.867 -1.0224  0.8968  0.5983
 1792SOL     OW 5563   1.638   2.468   2.329 -0.1959  0.3703 -0.5789
 1792SOL    HW1 5564   1.545   2.444   2.331 -0.0529 -0.3938 -1.9026
 1792SOL    HW2 5565   1.672   2.440   2.413 -1.2715  1.1626  0.1517
 1793SOL     OW 5566   3.581   0.771   4.449 -0.1150  0.1385 -0.0824
 1793SOL    HW1 5567   3.540   0.786   4.364  0.3716  1.1875 -0.1387
 1793SOL    HW2 5568   3.530   0.699   4.487 -0.0250 -0.6861 -1.4479
 1794SOL     OW 5569   3.867   3.874   2.640  0.9808  0.0577 -0.0679
 1794SOL    HW1 5570   3.924   3.942   2.604  0.7645 -0.1658 -0.8554
 1794SOL    HW2 5571   3.841   3.822   2.564  0.8839 -0.7136  0.4802
 1795SOL     OW 5572   3.320   1.354   2.971 -0.3057 -0.6645 -0.3963
 1795SOL    HW1 5573   3.343   1.283   3.031  0.0027 -0.2744 -0.0393
 1795SOL    HW2 5574   3.376   1.340   2.894  0.0703 -0.5680 -0.1458
 1796SOL     OW 5575   1.780   0.302   2.987 -0.2662 -0.5289 -0.2043
 1796SOL    HW1 5576   1.856   0.256   3.022 -0.8326 -1.8652 -0.6826
 1796SOL    HW2 5577   1.786   0.390   3.025  2.2006 -0.1893 -1.1830
 1797SOL     OW 5578   4.347   1.248   3.336  0.4148  0.1460 -0.0932
 1797SOL    HW1 5579   4.411   1.179   3.347  1.1196  0.6997 -0.6157
 1797SOL    HW2 5580   4.394   1.329   3.357 -0.4164  0.4691  0.5978
 1798SOL     OW 5581   2.985   3.591   3.059  0.5056  0.7116 -0.1107
 1798SOL    HW1 5582   2.923   3.645   3.107 -2.1135 -0.5995 -1.7759
 1798SOL    HW2 5583   2.998   3.637   2.976 -1.1769 -0.6830 -1.2369
 1799SOL     OW 5584   4.012   2.082   3.612  0.1315 -0.4931  0.1102
 1799SOL    HW1 5585   3.917   2.076   3.623  0.0346  0.8184  0.1734
 1799SOL    HW2 5586   4.024   2.138   3.536  0.8671 -1.2964 -0.3830
 1800SOL     OW 5587   0.421   2.184   2.439  0.0458  0.4712  0.2750
 1800SOL    HW1 5588   0.515   2.170   2.438  0.0517  0.5178  0.0633
 1800SOL    HW2 5589   0.407   2.252   2.505  0.0967  0.0270  0.7475
 1801SOL     OW 5590   2.339   1.161   1.251 -0.4435 -0.0117 -0.3065
 1801SOL    HW1 5591   2.432   1.178   1.239  0.2852 -1.0238  3.0472
 1801SOL    HW2 5592   2.298   1.247   1.251  0.9103  0.6594  0.9655
 1802SOL     OW 5593   2.758   0.815   2.351  0.1052  0.1674  0.0222
 1802SOL    HW1 5594   2.762   0.729   2.309  3.5444  0.7407 -1.1819
 1802SOL    HW2 5595   2.683   0.858   2.310  0.2752 -1.1437 -1.7949
 1803SOL     OW 5596   0.464   4.819   2.957 -0.4414  0.0863  0.0918
 1803SOL    HW1 5597   0.383   4.870   2.962 -0.7206 -0.4136  0.7955
 1803SOL    HW2 5598   0.511   4.857   2.883 -1.4576  0.1736 -0.5296
 1804SOL     OW 5599   0.265   4.890   3.504  0.4553 -0.3609  0.1758
 1804SOL    HW1 5600   0.186   4.844   3.476  0.3652 -1.0749  1.5039
 1804SOL    HW2 5601   0.248   4.982   3.487 -0.1293 -0.6393 -0.7791
 1805SOL     OW 5602   2.524   2.113   1.738  0.2576  0.6057 -0.4541
 1805SOL    HW1 5603   2.484   2.035   1.775 -1.1702  0.2909 -2.4573
 1805SOL    HW2 5604   2.585   2.080   1.671  1.4055  1.1792  0.2722
 1806SOL     OW 5605   0.380   4.124   0.255  0.4042 -0.1066 -0.1845
 1806SOL    HW1 5606   0.325   4.147   0.180  0.3933  0.0507 -0.1280
 1806SOL    HW2 5607   0.340   4.168   0.329  0.7803  0.2668 -0.1957
 1807SOL     OW 5608   1.037   1.006   2.421  0.2701  0.0098 -0.5557
 1807SOL    HW1 5609   1.048   1.087   2.371  0.5801  0.3826  0.1087
 1807SOL    HW2 5610   1.110   1.005   2.482 -0.2218 -0.3338  0.0412
 1808SOL     OW 5611   2.639   1.027   4.802 -0.4117 -0.3947  0.0177
 1808SOL    HW1 5612   2.593   1.094   4.751 -3.0831  0.6042  3.4066
 1808SOL    HW2 5613   2.712   1.074   4.843  0.0757 -0.5647 -0.6232
 1809SOL     OW 5614   1.742   4.409   1.487  0.4756  0.0539 -0.3434
 1809SOL    HW1 5615   1.655   4.404   1.527  0.9545 -0.1246  0.7299
 1809SOL    HW2 5616   1.785   4.328   1.516  1.4025  0.7147  0.1469
 1810SOL     OW 5617   3.094   4.273   0.358  0.1905  0.3696  0.4247
 1810SOL    HW1 5618   3.032   4.200   0.357  0.4144  0.1794 -1.1359
 1810SOL    HW2 5619   3.180   4.232   0.365  0.3236  0.4557 -0.5538
 1811SOL     OW 5620   1.400   1.821   3.893 -0.4871  0.4175  0.0515
 1811SOL    HW1 5621   1.357   1.739   3.918  0.2795 -0.0446 -0.1100
 1811SOL    HW2 5622   1.422   1.862   3.977  1.9424 -1.0577  0.2606
 1812SOL     OW 5623   1.059   3.832   1.652 -0.0151  0.1308 -0.1574
 1812SOL    HW1 5624   1.068   3.845   1.747 -0.8029  0.6306 -0.1342
 1812SOL    HW2 5625   0.965   3.837   1.637  0.1059  0.0319 -0.9665
 1813SOL     OW 5626   2.641   4.395   3.751  0.3564  0.2317  0.3903
 1813SOL    HW1 5627   2.601   4.398   3.664 -0.6316  2.8297  0.8340
 1813SOL    HW2 5628   2.721   4.343   3.739  0.2704  0.5448 -2.0699
 1814SOL     OW 5629   2.706   3.616   1.703  0.1788  0.0440  0.0702
 1814SOL    HW1 5630   2.633   3.614   1.641 -0.2660 -0.7061  0.5984
 1814SOL    HW2 5631   2.740   3.526   1.704 -0.4535 -0.2178  1.6185
 1815SOL     OW 5632   2.165   0.536   2.783  0.3910 -0.2333 -0.3913
 1815SOL    HW1 5633   2.166   0.478   2.859 -1.1579 -0.2932 -0.3899
 1815SOL    HW2 5634   2.094   0.503   2.728 -0.2188  1.3568 -0.6182
 1816SOL     OW 5635   4.349   1.453   4.010 -0.1120 -0.7037 -0.6481
 1816SOL    HW1 5636   4.311   1.459   3.923 -1.2932 -2.5966 -0.3275
 1816SOL    HW2 5637   4.375   1.361   4.019  1.0992 -0.2866  0.5600
 1817SOL     OW 5638   1.080   0.400   4.895 -0.2457 -0.0651 -0.2634
 1817SOL    HW1 5639   1.075   0.482   4.943 -1.0129 -0.9059  1.1713
 1817SOL    HW2 5640   1.166   0.364   4.918 -0.3226 -0.1301 -0.0722
 1818SOL     OW 5641   3.670   1.746   3.039  0.2816 -0.1491 -0.2168
 1818SOL    HW1 5642   3.653   1.696   3.119  0.4480 -0.4985 -0.3955
 1818SOL    HW2 5643   3.588   1.740   2.990 -0.6214  1.9657  0.9079
 1819SOL     OW 5644   0.749   2.334   2.360  0.0423  0.9819  0.3348
 1819SOL    HW1 5645   0.794   2.331   2.444 -0.8496  1.1927  0.8251
 1819SOL    HW2 5646   0.664   2.374   2.379 -0.6221  0.0053 -0.4537
 1820SOL     OW 5647   3.274   0.927   2.986 -0.1527 -0.5624 -0.3670
 1820SOL    HW1 5648   3.311   1.006   3.026 -1.3525 -0.6798  1.0482
 1820SOL    HW2 5649   3.347   0.889   2.937  0.5374  1.2314 -0.8200
 1821SOL     OW 5650   2.913   4.604   2.811 -0.0062  0.3465  0.4639
 1821SOL    HW1 5651   3.001   4.604   2.774  0.1329  2.5526  0.6616
 1821SOL    HW2 5652   2.857   4.638   2.741 -1.0437 -2.5379 -0.2301
 1822SOL     OW 5653   3.238   2.474   3.906  0.0048 -0.2909 -0.3552
 1822SOL    HW1 5654   3.252   2.438   3.993 -1.4885  0.9314  0.4353
 1822SOL    HW2 5655   3.322   2.514   3.883  0.9350 -2.0457 -0.2394
 1823SOL     OW 5656   4.227   4.478   0.592 -0.0954 -0.2008  0.4955
 1823SOL    HW1 5657   4.267   4.468   0.506 -0.2532  1.4624  0.1965
 1823SOL    HW2 5658   4.264   4.407   0.644  2.2695  0.4924 -0.1354
 1824SOL     OW 5659   0.626   4.007   0.178 -0.6367  0.2562  0.2451
 1824SOL    HW1 5660   0.614   3.914   0.195 -0.5244  0.0663 -0.6440
 1824SOL    HW2 5661   0.561   4.051   0.233  0.1165 -0.2633  1.5986
 1825SOL     OW 5662   3.489   4.762   2.516 -0.0495 -0.5641  0.0066
 1825SOL    HW1 5663   3.548   4.787   2.445 -1.5742  1.4184 -0.6752
 1825SOL    HW2 5664   3.497   4.834   2.580 -3.2017  0.9996 -1.1234
 1826SOL     OW 5665   1.443   3.356   0.130  0.3727 -0.0515 -0.0004
 1826SOL    HW1 5666   1.388   3.312   0.065 -0.9559 -0.2814  1.2275
 1826SOL    HW2 5667   1.429   3.449   0.114 -0.2452 -0.1070  0.1609
 1827SOL     OW 5668   0.488   1.043   2.449  0.4674 -0.2705  0.3287
 1827SOL    HW1 5669   0.527   1.102   2.514  1.1894 -2.0068  1.5588
 1827SOL    HW2 5670   0.563   0.997   2.410  0.0904  1.0477 -2.1385
 1828SOL     OW 5671   2.397   1.464   1.507 -0.4380  0.4496  0.7338
 1828SOL    HW1 5672   2.327   1.461   1.441  0.5219  2.5141 -0.4709
 1828SOL    HW2 5673   2.363   1.524   1.574 -0.3620  0.3578  0.8554
 1829SOL     OW 5674   4.939   0.764   4.619 -0.2082  0.0941 -0.0796
 1829SOL    HW1 5675   4.893   0.702   4.563 -0.5841  1.4494 -1.2997
 1829SOL    HW2 5676   5.032   0.749   4.600 -0.1178 -1.6830  1.3816
 1830SOL     OW 5677   2.608   4.438   0.969  0.5058 -0.6322 -0.2221
 1830SOL    HW1 5678   2.566   4.472   1.048 -0.9344  2.4651 -2.1253
 1830SOL    HW2 5679   2.701   4.438   0.990  0.1404 -0.1776  1.5656
 1831SOL     OW 5680   1.765   3.119   4.253 -0.3176  0.7645  0.4200
 1831SOL    HW1 5681   1.697   3.065   4.293 -0.6994 -0.9400 -2.2905
 1831SOL    HW2 5682   1.718   3.184   4.201  0.0857 -0.0713 -1.0304
 1832SOL     OW 5683   1.107   0.358   1.741 -0.0405  0.3006 -0.0261
 1832SOL    HW1 5684   1.112   0.354   1.837 -0.5634 -0.4500 -0.0209
 1832SOL    HW2 5685   1.167   0.428   1.717  1.7615 -0.9025  0.7163
 1833SOL     OW 5686   0.980   0.448   2.051  0.1149 -0.1742 -0.5687
 1833SOL    HW1 5687   0.939   0.453   2.137 -2.5799  0.4026 -1.7648
 1833SOL    HW2 5688   0.962   0.358   2.021  0.0938 -0.0449 -0.9491
 1834SOL     OW 5689   1.127   3.923   4.191  0.0413  0.1716  0.2282
 1834SOL    HW1 5690   1.178   3.844   4.205  1.2634  0.4270 -2.3349
 1834SOL    HW2 5691   1.141   3.975   4.271 -0.4610 -1.9500  1.7761
 1835SOL     OW 5692   1.399   0.705   3.067 -0.1807 -0.3708 -0.3301
 1835SOL    HW1 5693   1.407   0.745   3.153  3.1793  1.4411 -1.2841
 1835SOL    HW2 5694   1.424   0.614   3.080 -0.5656 -0.3348  0.7180
 1836SOL     OW 5695   1.119   3.639   3.929 -0.0994 -0.3485 -0.2540
 1836SOL    HW1 5696   1.160   3.574   3.987 -1.3693  0.5221  1.6783
 1836SOL    HW2 5697   1.025   3.630   3.944 -0.3998  0.6894 -1.3400
 1837SOL     OW 5698   3.420   0.788   0.314  0.0492 -0.1092 -0.3946
 1837SOL    HW1 5699   3.470   0.791   0.396 -0.0919  1.0754 -0.3262
 1837SOL    HW2 5700   3.334   0.755   0.340  0.0217  0.2099 -0.0579
 1838SOL     OW 5701   3.120   0.064   0.584  0.0256  0.0775 -0.1014
 1838SOL    HW1 5702   3.102   0.021   0.667 -0.5416 -0.3364 -0.4355
 1838SOL    HW2 5703   3.124  -0.007   0.520  1.9506  0.2170 -0.2185
 1839SOL     OW 5704   3.025   0.481   1.624 -0.3206  0.0124  0.1158
 1839SOL    HW1 5705   3.096   0.545   1.631 -0.7952  0.8079 -1.6647
 1839SOL    HW2 5706   2.945   0.534   1.628 -0.7699 -0.6830  0.3963
 1840SOL     OW 5707   1.198   1.263   1.889 -0.3120 -0.6055  0.0986
 1840SOL    HW1 5708   1.203   1.182   1.838  1.6888  0.3520 -1.3884
 1840SOL    HW2 5709   1.283   1.268   1.933 -0.2929  0.8087 -0.0555
 1841SOL     OW 5710   4.749   1.300   3.375  0.3817 -0.4278 -0.4055
 1841SOL    HW1 5711   4.704   1.218   3.393  5.0712 -3.3310 -0.3845
 1841SOL    HW2 5712   4.781   1.291   3.285  2.5180  0.5140  0.1885
 1842SOL     OW 5713   3.892   3.327   1.708  0.1636 -0.6516 -0.1601
 1842SOL    HW1 5714   3.808   3.352   1.669  0.4120 -1.0464 -0.9725
 1842SOL    HW2 5715   3.919   3.249   1.659  1.3441 -0.1150 -0.4022
 1843SOL     OW 5716   2.863   2.770   3.985 -0.3192 -0.3247  0.3736
 1843SOL    HW1 5717   2.828   2.713   4.054 -0.8011 -0.2608  0.1842
 1843SOL    HW2 5718   2.919   2.713   3.933 -0.1253 -0.4248  0.6899
 1844SOL     OW 5719   3.422   1.867   3.201 -0.2758  0.2300  0.4484
 1844SOL    HW1 5720   3.482   1.929   3.244 -0.1137 -0.7178  1.6354
 1844SOL    HW2 5721   3.380   1.919   3.132 -0.1672  1.6762  1.4264
 1845SOL     OW 5722   1.586   3.397   4.450 -0.3704 -0.0369 -0.2698
 1845SOL    HW1 5723   1.646   3.322   4.454 -0.4583 -0.3266 -2.8807
 1845SOL    HW2 5724   1.642   3.473   4.464  0.6680 -0.3081 -2.5770
 1846SOL     OW 5725   1.159   0.210   0.310  0.3926 -0.1119  0.7239
 1846SOL    HW1 5726   1.065   0.215   0.324  0.4070  2.4019  0.2686
 1846SOL    HW2 5727   1.182   0.120   0.336 -2.1965 -1.0331  0.1512
 1847SOL     OW 5728   2.035   4.255   1.545  0.3422 -0.1747 -0.5894
 1847SOL    HW1 5729   2.060   4.227   1.633  1.1926  0.2002 -0.7016
 1847SOL    HW2 5730   1.950   4.214   1.530  0.3712 -0.5623  0.2538
 1848SOL     OW 5731   3.845   2.885   1.084  0.1361  0.1072  0.1132
 1848SOL    HW1 5732   3.935   2.895   1.053 -0.5302  0.4032 -1.9168
 1848SOL    HW2 5733   3.850   2.895   1.179  2.0138  1.6642 -0.0998
 1849SOL     OW 5734   1.452   2.254   0.886 -0.2744 -0.0910  0.3025
 1849SOL    HW1 5735   1.544   2.281   0.881 -0.6631  1.0872 -1.7906
 1849SOL    HW2 5736   1.414   2.312   0.952  0.1114  0.7345 -0.1779
 1850SOL     OW 5737   0.069   0.919   1.805 -0.2547  0.1462 -0.0516
 1850SOL    HW1 5738   0.044   1.011   1.809  1.1604  0.5378  0.1201
 1850SOL    HW2 5739   0.104   0.908   1.716  2.3525  0.5612  0.8319
 1851SOL     OW 5740   4.365   2.754   2.436 -0.1868 -0.2850 -0.3823
 1851SOL    HW1 5741   4.378   2.848   2.424 -0.6052  0.0463  1.3916
 1851SOL    HW2 5742   4.296   2.748   2.503 -0.9308 -1.8647 -1.2359
 1852SOL     OW 5743   2.519   1.913   0.667  0.6814 -0.1973 -0.1825
 1852SOL    HW1 5744   2.575   1.838   0.647  0.8857  0.4602 -2.3377
 1852SOL    HW2 5745   2.466   1.925   0.588 -0.7575  0.7338  0.8748
 1853SOL     OW 5746   2.321   3.693   1.271 -0.0112  0.3036 -0.2508
 1853SOL    HW1 5747   2.253   3.656   1.326  0.6116  0.6843  0.7938
 1853SOL    HW2 5748   2.362   3.761   1.325  0.7926  0.5017 -1.0796
 1854SOL     OW 5749   3.166   0.941   2.710 -0.1291  0.3080  0.4708
 1854SOL    HW1 5750   3.147   0.933   2.804 -0.2485 -0.7381  0.3651
 1854SOL    HW2 5751   3.167   1.036   2.694 -0.4677  0.4898  1.4516
 1855SOL     OW 5752   3.789   4.682   3.124 -0.3496  0.0489 -0.0272
 1855SOL    HW1 5753   3.795   4.682   3.219 -0.6444  0.3814 -0.0029
 1855SOL    HW2 5754   3.821   4.596   3.097 -0.2074 -0.0222  0.3683
 1856SOL     OW 5755   3.650   3.500   0.429  0.2234 -0.2843 -0.2888
 1856SOL    HW1 5756   3.690   3.541   0.352 -1.3856  0.1077 -0.9394
 1856SOL    HW2 5757   3.660   3.564   0.499  1.3192 -0.4730 -0.2487
 1857SOL     OW 5758   0.615   0.631   4.283 -0.5936  0.0607 -0.3739
 1857SOL    HW1 5759   0.608   0.536   4.281  0.9902 -0.1024  0.6811
 1857SOL    HW2 5760   0.545   0.661   4.225 -1.1519 -1.7320 -0.6807
 1858SOL     OW 5761   4.691   4.833   1.284 -0.0502 -0.0710 -0.2447
 1858SOL    HW1 5762   4.739   4.914   1.304 -0.0342 -0.0900 -0.2051
 1858SOL    HW2 5763   4.753   4.763   1.306  0.2929 -0.0791 -1.2079
 1859SOL     OW 5764   4.161   2.353   2.275  0.0961 -0.3320 -0.3082
 1859SOL    HW1 5765   4.218   2.416   2.232 -0.9057  0.1771 -0.9203
 1859SOL    HW2 5766   4.121   2.304   2.203  0.0592 -0.9494  0.1277
 1860SOL     OW 5767   0.710   2.274   3.045  0.2998 -0.5961  0.2339
 1860SOL    HW1 5768   0.803   2.293   3.058  0.2774  0.2479 -0.6753
 1860SOL    HW2 5769   0.708   2.189   3.002  0.6007 -1.0877  1.1937
 1861SOL     OW 5770   3.999   3.637   0.610  0.0893 -0.5605 -0.4159
 1861SOL    HW1 5771   4.029   3.549   0.632  1.0091  0.0741  1.1115
 1861SOL    HW2 5772   3.905   3.629   0.599  0.1090 -1.6608  0.0746
 1862SOL     OW 5773   1.038   0.770   4.766 -0.4711 -0.1508  0.0122
 1862SOL    HW1 5774   0.984   0.755   4.689 -0.0626 -0.0336 -0.2983
 1862SOL    HW2 5775   1.120   0.725   4.748 -0.2147  0.2376  0.1954
 1863SOL     OW 5776   1.386   4.858   3.131  0.2537  0.9257  0.5704
 1863SOL    HW1 5777   1.446   4.872   3.203  0.2053  1.2968  0.5391
 1863SOL    HW2 5778   1.433   4.888   3.053  0.7106 -0.4360  0.2874
 1864SOL     OW 5779   1.647   3.760   0.846  0.2602 -0.2898  0.2597
 1864SOL    HW1 5780   1.679   3.677   0.811 -0.3527 -1.4148  2.2334
 1864SOL    HW2 5781   1.569   3.780   0.794  0.8463 -0.5199 -0.7434
 1865SOL     OW 5782   0.535   3.974   0.736 -0.0237 -1.1032  0.0963
 1865SOL    HW1 5783   0.479   3.896   0.728 -0.6517 -0.7332  0.6786
 1865SOL    HW2 5784   0.570   3.968   0.825  0.5608 -1.1282 -0.1339
 1866SOL     OW 5785   2.614   2.135   0.823  0.1785 -0.2468 -0.2516
 1866SOL    HW1 5786   2.707   2.112   0.830 -0.0574 -0.8687  1.1139
 1866SOL    HW2 5787   2.580   2.076   0.756  0.3050 -1.6447  0.8649
 1867SOL     OW 5788   2.372   4.000   0.562 -0.7768 -0.2803  0.3555
 1867SOL    HW1 5789   2.294   4.003   0.506 -1.2901  2.5797  1.0626
 1867SOL    HW2 5790   2.340   3.973   0.647 -0.5153 -1.6738  0.0246
 1868SOL     OW 5791   1.199   4.100   4.391 -0.0616 -0.1160 -0.1330
 1868SOL    HW1 5792   1.267   4.146   4.341  0.0374 -1.0797 -0.9358
 1868SOL    HW2 5793   1.136   4.168   4.414  1.7426  1.0575  1.7038
 1869SOL     OW 5794   2.876   0.833   3.782 -0.8106 -0.0918  0.4599
 1869SOL    HW1 5795   2.825   0.907   3.751 -0.4449  0.6660  1.6133
 1869SOL    HW2 5796   2.844   0.759   3.730 -2.1829  0.5930  0.2794
 1870SOL     OW 5797   1.278   0.524   0.914  0.3079 -0.0182  0.2639
 1870SOL    HW1 5798   1.266   0.544   0.821  0.6634  0.8804  0.4001
 1870SOL    HW2 5799   1.350   0.460   0.916  0.6232  0.3261 -0.0480
 1871SOL     OW 5800   4.438   3.569   2.382 -0.7456 -0.0224  0.5725
 1871SOL    HW1 5801   4.365   3.549   2.441 -0.6124  0.1883  0.8060
 1871SOL    HW2 5802   4.513   3.525   2.420 -0.7996 -0.4447  0.1985
 1872SOL     OW 5803   4.262   2.077   1.890  0.2703  0.0403  0.1101
 1872SOL    HW1 5804   4.229   2.014   1.825  2.4700  0.4202 -1.4935
 1872SOL    HW2 5805   4.317   2.137   1.839  2.8271 -0.1577  2.4096
 1873SOL     OW 5806   3.566   3.867   4.259 -0.0921  0.8320 -0.2906
 1873SOL    HW1 5807   3.581   3.804   4.188 -0.2347  0.7008 -0.2052
 1873SOL    HW2 5808   3.600   3.950   4.225  0.1399  0.7000 -0.3855
 1874SOL     OW 5809   1.136   4.788   3.215  0.3694  0.2129  0.0953
 1874SOL    HW1 5810   1.225   4.807   3.183  0.4949 -0.0008  0.3118
 1874SOL    HW2 5811   1.085   4.771   3.135  0.7204 -0.4931  0.0066
 1875SOL     OW 5812   2.986   0.823   4.808  0.8525  0.2582 -0.2218
 1875SOL    HW1 5813   3.017   0.890   4.869 -0.7922  0.6710  0.2135
 1875SOL    HW2 5814   2.898   0.802   4.838  0.7611 -1.0058 -1.2711
 1876SOL     OW 5815   4.785   0.824   1.138 -0.3269  0.5393 -0.2007
 1876SOL    HW1 5816   4.729   0.802   1.212 -2.2625  1.0791 -1.4344
 1876SOL    HW2 5817   4.755   0.911   1.111 -0.6406 -0.2167 -2.4577
 1877SOL     OW 5818   3.727   2.713   4.016 -0.1348  0.1569 -0.4134
 1877SOL    HW1 5819   3.743   2.781   4.081 -1.4212  0.9203 -0.8707
 1877SOL    HW2 5820   3.812   2.671   4.004 -0.2296 -1.6760  3.5663
 1878SOL     OW 5821   4.694   3.483   4.304 -0.6356 -0.0879  0.3645
 1878SOL    HW1 5822   4.689   3.439   4.388  1.3150 -1.4164 -0.1466
 1878SOL    HW2 5823   4.664   3.419   4.240  3.2329 -1.3140 -0.5123
 1879SOL     OW 5824   0.946   4.123   2.025  0.3255  0.1739 -0.2043
 1879SOL    HW1 5825   0.994   4.174   2.090 -2.3577  0.5902  1.5873
 1879SOL    HW2 5826   0.945   4.179   1.947  0.8850  1.0678  0.4177
 1880SOL     OW 5827   4.697   2.966   2.878 -0.1645 -0.4303 -0.1846
 1880SOL    HW1 5828   4.606   2.986   2.859 -0.1038  1.1966  1.0320
 1880SOL    HW2 5829   4.701   2.963   2.974  1.3260  0.9803 -0.1713
 1881SOL     OW 5830   1.299   3.251   4.440  0.3856  0.5341  0.0975
 1881SOL    HW1 5831   1.321   3.193   4.513 -1.0259  1.8323  1.5998
 1881SOL    HW2 5832   1.376   3.308   4.431  0.3828  0.6597  0.8591
 1882SOL     OW 5833   3.757   2.726   4.347 -0.5435  0.1934 -0.2575
 1882SOL    HW1 5834   3.840   2.705   4.389 -1.3738 -0.1179  1.3067
 1882SOL    HW2 5835   3.775   2.804   4.295  0.9240 -0.3796 -0.6679
 1883SOL     OW 5836   3.736   0.397   3.143  0.6779 -0.2405 -0.4451
 1883SOL    HW1 5837   3.732   0.488   3.113 -2.2808 -0.2553 -0.4122
 1883SOL    HW2 5838   3.664   0.354   3.097  1.4852 -2.3829  0.1870
 1884SOL     OW 5839   0.929   3.457   1.561 -0.0155  0.2375  0.0331
 1884SOL    HW1 5840   0.965   3.542   1.538 -0.9311  0.8924  0.8821
 1884SOL    HW2 5841   0.982   3.394   1.514  3.7688  0.9362  2.8772
 1885SOL     OW 5842   1.462   4.674   1.349  0.4054  0.0327 -0.2371
 1885SOL    HW1 5843   1.503   4.699   1.266 -0.5561  1.8329 -0.2355
 1885SOL    HW2 5844   1.412   4.752   1.375 -0.7500 -1.1065  1.1420
 1886SOL     OW 5845   4.193   3.535   2.534  0.9912  0.3861 -0.0628
 1886SOL    HW1 5846   4.164   3.445   2.519  1.5121  0.3179 -0.6640
 1886SOL    HW2 5847   4.118   3.578   2.576 -0.4297  0.5144 -2.5828
 1887SOL     OW 5848   1.907   3.123   2.200  0.4175 -0.2077 -0.0220
 1887SOL    HW1 5849   1.937   3.196   2.147 -0.7392 -0.0390 -0.4695
 1887SOL    HW2 5850   1.847   3.075   2.144  1.5024 -1.8054  0.0926
 1888SOL     OW 5851   1.851   3.549   1.663  0.7588  0.2520 -0.1192
 1888SOL    HW1 5852   1.776   3.491   1.647  1.3506 -0.2435 -1.1962
 1888SOL    HW2 5853   1.817   3.614   1.725 -0.8480  0.5639 -1.2503
 1889SOL     OW 5854   0.027   2.172   0.766 -0.6093  0.0074  0.0050
 1889SOL    HW1 5855   0.068   2.091   0.735 -2.8381 -0.3586 -2.3426
 1889SOL    HW2 5856   0.029   2.164   0.862  3.2057 -0.6391  0.0141
 1890SOL     OW 5857   0.932   3.018   4.765 -0.1817  0.2491  0.4803
 1890SOL    HW1 5858   0.864   3.014   4.699  1.4038 -1.4092 -1.1558
 1890SOL    HW2 5859   0.946   2.927   4.792 -0.0020  0.7636  2.3117
 1891SOL     OW 5860   0.339   4.118   3.670 -0.1993  0.4524 -0.2879
 1891SOL    HW1 5861   0.307   4.078   3.589 -0.4276 -1.4801  0.7112
 1891SOL    HW2 5862   0.260   4.136   3.721  0.0356 -0.1812  0.3175
 1892SOL     OW 5863   0.868   0.470   0.289  0.0578  0.3635  0.1095
 1892SOL    HW1 5864   0.856   0.375   0.290  0.8216  0.2577  0.3909
 1892SOL    HW2 5865   0.941   0.484   0.228  0.1842  0.7298  0.3369
 1893SOL     OW 5866   3.978   4.385   0.861  0.0811 -0.2741  0.4671
 1893SOL    HW1 5867   4.011   4.297   0.847  0.8490  0.0374  0.2950
 1893SOL    HW2 5868   3.896   4.372   0.910 -0.3701 -1.1247 -0.4804
 1894SOL     OW 5869   3.646   3.066   4.709  0.5425 -0.4775  0.6144
 1894SOL    HW1 5870   3.613   2.977   4.721  0.4462 -0.5480 -0.1505
 1894SOL    HW2 5871   3.658   3.099   4.798 -1.1160 -0.6266  0.9117
 1895SOL     OW 5872   4.088   4.351   2.245  0.2517 -0.2745 -0.0048
 1895SOL    HW1 5873   4.079   4.380   2.336  0.5233  2.4339 -0.7272
 1895SOL    HW2 5874   4.023   4.403   2.198  0.8703 -0.8074 -1.4996
 1896SOL     OW 5875   1.255   0.918   0.467 -0.4659 -0.3056 -0.7702
 1896SOL    HW1 5876   1.322   0.873   0.520 -1.5117 -1.3076 -0.2639
 1896SOL    HW2 5877   1.291   1.006   0.453 -0.0160 -0.0870  1.3631
 1897SOL     OW 5878   0.381   0.458   0.587 -0.0485  0.0455 -0.2535
 1897SOL    HW1 5879   0.326   0.397   0.637  0.2789 -0.0726 -0.0314
 1897SOL    HW2 5880   0.349   0.452   0.497  0.8205 -1.4322 -0.4874
 1898SOL     OW 5881   4.804   4.830   2.384 -0.0287  0.3939 -0.2587
 1898SOL    HW1 5882   4.795   4.810   2.477 -0.3706  0.6474 -0.2328
 1898SOL    HW2 5883   4.847   4.916   2.382 -2.3279  1.6268 -0.2524
 1899SOL     OW 5884   4.194   0.934   0.728  0.0922  0.6869 -0.5700
 1899SOL    HW1 5885   4.115   0.904   0.772 -0.5097 -0.0767 -2.1056
 1899SOL    HW2 5886   4.175   0.924   0.635  1.2140  2.4990 -1.0473
 1900SOL     OW 5887   1.375   2.646   2.950  0.9572 -1.5596  0.0819
 1900SOL    HW1 5888   1.329   2.708   2.893  1.7609 -1.7078 -0.7358
 1900SOL    HW2 5889   1.316   2.571   2.956  0.9592 -1.6282 -0.7190
 1901SOL     OW 5890   4.712   4.393   2.337  0.0155  0.1713  0.4529
 1901SOL    HW1 5891   4.771   4.347   2.396  0.5252 -2.5554 -1.9431
 1901SOL    HW2 5892   4.769   4.448   2.283 -0.3251  1.7815  1.6660
 1902SOL     OW 5893   4.211   2.923   1.511 -0.1510  0.1198  0.0426
 1902SOL    HW1 5894   4.193   2.898   1.601  0.8360  1.2283  0.5643
 1902SOL    HW2 5895   4.163   2.859   1.459 -1.8953  0.3088  1.3429
 1903SOL     OW 5896   0.845   0.826   2.594 -0.5594  0.2231  0.1145
 1903SOL    HW1 5897   0.843   0.883   2.670 -1.9251 -0.5638  0.7077
 1903SOL    HW2 5898   0.767   0.849   2.543  0.0211  0.3375 -0.7497
 1904SOL     OW 5899   3.816   1.246   1.175 -0.3319 -0.6891  0.0619
 1904SOL    HW1 5900   3.876   1.171   1.171 -0.7517 -0.9955 -1.0187
 1904SOL    HW2 5901   3.857   1.307   1.236  0.0500 -1.7705  0.9334
 1905SOL     OW 5902   2.053   4.289   0.515  0.1780 -0.0716  0.0320
 1905SOL    HW1 5903   2.109   4.297   0.592 -1.3025 -1.8174  1.3721
 1905SOL    HW2 5904   1.978   4.345   0.533  0.3715  0.4331 -0.6921
 1906SOL     OW 5905   1.498   0.290   2.445  0.0960  0.0611  0.9712
 1906SOL    HW1 5906   1.451   0.312   2.525 -1.0725 -0.2941  0.3941
 1906SOL    HW2 5907   1.577   0.345   2.448  0.5564 -0.6382  2.8124
 1907SOL     OW 5908   4.692   4.605   4.176 -0.1596 -0.1648 -0.2991
 1907SOL    HW1 5909   4.711   4.671   4.109 -3.0164  1.9300  0.7549
 1907SOL    HW2 5910   4.638   4.540   4.130 -0.0158 -0.0577 -0.6198
 1908SOL     OW 5911   1.248   4.616   0.609  0.3985 -0.4233 -0.3741
 1908SOL    HW1 5912   1.308   4.579   0.674  2.3565  0.0981 -1.8181
 1908SOL    HW2 5913   1.284   4.703   0.589 -1.7853  0.6177 -0.0957
 1909SOL     OW 5914   2.651   2.431   0.798 -0.3764  0.5800 -0.0557
 1909SOL    HW1 5915   2.608   2.467   0.875  0.3892  0.3301  0.5027
 1909SOL    HW2 5916   2.649   2.336   0.812  0.3541  0.5664 -0.0123
 1910SOL     OW 5917   0.346   4.803   1.878 -0.0383  0.5400 -0.4232
 1910SOL    HW1 5918   0.427   4.764   1.846 -1.1218 -1.6922 -0.6575
 1910SOL    HW2 5919   0.280   4.734   1.867 -1.4333  1.3109  2.2382
 1911SOL     OW 5920   4.644   4.358   1.494  0.3669 -0.0896 -0.2297
 1911SOL    HW1 5921   4.641   4.330   1.586  1.0954  1.2918  0.2527
 1911SOL    HW2 5922   4.636   4.454   1.499 -1.3509 -0.1083 -1.7386
 1912SOL     OW 5923   4.473   1.584   1.509  0.0394 -0.5078 -0.0733
 1912SOL    HW1 5924   4.516   1.569   1.425 -0.0517 -2.3954  0.1639
 1912SOL    HW2 5925   4.383   1.607   1.488 -0.7614 -3.5926 -0.5630
 1913SOL     OW 5926   3.244   0.300   0.594 -0.6101 -0.0561 -0.5610
 1913SOL    HW1 5927   3.199   0.312   0.678 -3.3470 -0.0301 -1.9050
 1913SOL    HW2 5928   3.211   0.216   0.562 -1.2548  0.8843 -2.5005
 1914SOL     OW 5929   2.303   1.157   3.279 -0.1719 -0.4929 -0.7152
 1914SOL    HW1 5930   2.373   1.162   3.214 -0.8297  0.6547 -1.3731
 1914SOL    HW2 5931   2.341   1.193   3.359  0.2837 -0.7895 -0.7969
 1915SOL     OW 5932   3.595   2.105   2.052 -0.1671  0.3437  0.0402
 1915SOL    HW1 5933   3.603   2.117   2.147 -1.7533 -2.4840  0.6288
 1915SOL    HW2 5934   3.519   2.158   2.027 -0.1052  0.6253  0.4365
 1916SOL     OW 5935   1.479   1.217   1.305 -0.4027  0.0195 -0.3830
 1916SOL    HW1 5936   1.433   1.161   1.242  1.0488 -0.8009 -0.7551
 1916SOL    HW2 5937   1.533   1.275   1.252  0.6813 -0.5451  0.0604
 1917SOL     OW 5938   1.066   2.283   3.417 -0.4331  0.1688 -0.5688
 1917SOL    HW1 5939   1.139   2.224   3.399 -0.5131  0.4578 -1.9410
 1917SOL    HW2 5940   1.106   2.367   3.438 -0.3611  0.0913 -0.3926
 1918SOL     OW 5941   2.217   4.688   2.851 -0.4914 -0.0054 -0.0817
 1918SOL    HW1 5942   2.141   4.672   2.796  0.1693 -0.2822 -0.9286
 1918SOL    HW2 5943   2.244   4.778   2.829 -0.1789 -0.1450 -0.2689
 1919SOL     OW 5944   3.331   1.593   4.595 -0.0286  0.8969 -0.1539
 1919SOL    HW1 5945   3.385   1.662   4.633 -0.2924  1.8836 -1.5266
 1919SOL    HW2 5946   3.328   1.612   4.502 -2.2484  0.5223 -0.2128
 1920SOL     OW 5947   0.307   3.634   4.594  0.2631  0.4260  0.1311
 1920SOL    HW1 5948   0.260   3.698   4.540 -2.1175  0.8022  2.4376
 1920SOL    HW2 5949   0.281   3.549   4.560  1.2061  0.6419 -1.1804
 1921SOL     OW 5950   3.442   3.697   0.780  0.0566  0.2802 -0.0694
 1921SOL    HW1 5951   3.443   3.736   0.868 -2.6218  1.2060 -0.3744
 1921SOL    HW2 5952   3.402   3.611   0.793 -0.6379  0.5469 -0.4147
 1922SOL     OW 5953   3.017   4.852   1.531 -0.5987 -0.2327  0.0688
 1922SOL    HW1 5954   3.038   4.856   1.438 -0.1924  0.6984  0.1886
 1922SOL    HW2 5955   3.021   4.943   1.561 -2.5939 -0.2508  0.5948
 1923SOL     OW 5956   1.857   4.649   0.334 -0.5339 -0.1193  0.0660
 1923SOL    HW1 5957   1.848   4.690   0.420 -0.2641 -0.4325  0.2469
 1923SOL    HW2 5958   1.951   4.650   0.316 -0.6549  0.6955 -0.6031
 1924SOL     OW 5959   0.676   0.067   1.163 -0.1261 -0.6634 -0.3493
 1924SOL    HW1 5960   0.744   0.052   1.229  0.3511  0.6189 -0.5191
 1924SOL    HW2 5961   0.723   0.101   1.087 -1.0029  0.7806 -0.2748
 1925SOL     OW 5962   3.556   2.589   0.888 -0.0955 -0.5406 -0.5402
 1925SOL    HW1 5963   3.580   2.598   0.796  2.3762  0.7259  0.1502
 1925SOL    HW2 5964   3.614   2.521   0.922 -1.0529 -1.0739  0.1039
 1926SOL     OW 5965   1.417   3.432   4.727  0.5052 -0.4334  0.0139
 1926SOL    HW1 5966   1.335   3.468   4.694 -0.0016 -1.3426  0.2592
 1926SOL    HW2 5967   1.471   3.420   4.649  0.1373 -0.5012 -0.2308
 1927SOL     OW 5968   2.029   2.332   4.900  0.0186 -0.1117  0.1365
 1927SOL    HW1 5969   1.945   2.370   4.871 -0.6861 -0.9326  1.0394
 1927SOL    HW2 5970   2.040   2.364   4.989  0.4044 -0.4432  0.2090
 1928SOL     OW 5971   1.345   4.931   1.499  0.0278  0.0059 -0.1665
 1928SOL    HW1 5972   1.345   4.937   1.404  2.1321 -0.1596 -0.2236
 1928SOL    HW2 5973   1.261   4.968   1.526 -0.4233  0.4385 -2.0528
 1929SOL     OW 5974   0.252   3.181   3.984 -0.0136 -0.1435 -0.0778
 1929SOL    HW1 5975   0.182   3.245   3.972 -0.2150 -0.5423 -1.1692
 1929SOL    HW2 5976   0.259   3.170   4.079  0.5140  2.0013  0.1668
 1930SOL     OW 5977   1.860   0.710   1.358  0.1851 -0.4550 -0.0362
 1930SOL    HW1 5978   1.952   0.685   1.351  0.2472  0.1503 -1.7385
 1930SOL    HW2 5979   1.849   0.734   1.450  1.2231 -2.3267  0.6358
 1931SOL     OW 5980   0.743   2.358   0.810 -0.2573 -0.1088 -0.6163
 1931SOL    HW1 5981   0.751   2.389   0.720  0.2556  1.1101 -0.1762
 1931SOL    HW2 5982   0.656   2.320   0.815 -0.1731 -0.4660 -1.7039
 1932SOL     OW 5983   2.375   4.834   0.511 -0.3646  0.2098  0.4879
 1932SOL    HW1 5984   2.292   4.829   0.558 -0.5483  0.2394  0.1678
 1932SOL    HW2 5985   2.420   4.910   0.549  0.2138 -0.7230  1.7742
 1933SOL     OW 5986   0.789   1.421   4.372 -0.2597 -0.7478 -0.4307
 1933SOL    HW1 5987   0.702   1.456   4.355  0.0093 -0.7232 -1.8914
 1933SOL    HW2 5988   0.780   1.326   4.362 -0.6642 -1.0459  2.0721
 1934SOL     OW 5989   3.362   4.220   3.454  0.0824 -0.2398  0.1888
 1934SOL    HW1 5990   3.341   4.167   3.377 -0.3483  1.3409 -0.8325
 1934SOL    HW2 5991   3.442   4.266   3.430  0.4071 -0.3524  1.0308
 1935SOL     OW 5992   1.658   0.585   2.404 -0.8106 -0.2004 -0.1639
 1935SOL    HW1 5993   1.655   0.563   2.497  3.0883  0.1907  0.2054
 1935SOL    HW2 5994   1.642   0.679   2.401  0.2487  0.0059  0.2844
 1936SOL     OW 5995   3.388   3.385   3.249  0.4464 -0.0466  0.3159
 1936SOL    HW1 5996   3.455   3.453   3.247  1.9310 -1.3744  1.8134
 1936SOL    HW2 5997   3.352   3.389   3.337  1.4421 -1.9392  0.8717
 1937SOL     OW 5998   2.200   1.731   0.014  0.0780 -0.7500 -0.1813
 1937SOL    HW1 5999   2.240   1.803  -0.036  1.9567 -0.7652  1.1737
 1937SOL    HW2 6000   2.127   1.701  -0.040  1.1162  0.1872 -2.1960
 1938SOL     OW 6001   3.273   0.646   1.652 -0.3131 -0.4580  0.5492
 1938SOL    HW1 6002   3.261   0.732   1.691 -0.0595 -0.5803  0.9013
 1938SOL    HW2 6003   3.273   0.662   1.557  0.3384  0.0144  0.6222
 1939SOL     OW 6004   3.408   2.118   1.142  0.2068  0.2613  0.1019
 1939SOL    HW1 6005   3.456   2.129   1.059  0.4142 -0.5356  0.1120
 1939SOL    HW2 6006   3.317   2.105   1.115  0.3418 -0.4576 -0.0353
 1940SOL     OW 6007   3.711   4.806   0.463 -0.4263  0.0827 -0.3134
 1940SOL    HW1 6008   3.794   4.855   0.467  0.7935 -1.8525 -0.4439
 1940SOL    HW2 6009   3.687   4.793   0.554  0.0210 -0.2996 -0.2462
 1941SOL     OW 6010   4.682   0.710   4.939 -0.3319  0.1833 -0.1855
 1941SOL    HW1 6011   4.754   0.742   4.993 -0.4846  0.1382  0.0486
 1941SOL    HW2 6012   4.724   0.661   4.868 -0.1934 -2.1032  1.3734
 1942SOL     OW 6013   3.365   1.547   4.042  0.5562 -0.3506  0.5268
 1942SOL    HW1 6014   3.340   1.535   3.950  2.8924  1.0031 -0.3780
 1942SOL    HW2 6015   3.309   1.486   4.090 -4.0471  2.0412 -1.2092
 1943SOL     OW 6016   0.952   1.349   2.691 -0.2289  0.0763 -0.0456
 1943SOL    HW1 6017   0.979   1.436   2.719  2.3384 -0.7461  0.2422
 1943SOL    HW2 6018   0.978   1.344   2.599 -0.0696 -0.4971  0.0304
 1944SOL     OW 6019   4.837   2.059   4.184  0.0226  0.9053 -0.4052
 1944SOL    HW1 6020   4.905   2.082   4.248 -1.2808  2.4481  0.4963
 1944SOL    HW2 6021   4.826   1.964   4.193 -0.5009  1.1469  2.0652
 1945SOL     OW 6022   1.388   2.434   2.203  0.1433 -0.2636  0.5409
 1945SOL    HW1 6023   1.385   2.484   2.121 -0.2784  0.3388  0.9136
 1945SOL    HW2 6024   1.375   2.343   2.176  0.1241 -0.0832 -0.0739
 1946SOL     OW 6025   2.743   4.605   3.916 -0.0772 -0.0214  0.1343
 1946SOL    HW1 6026   2.808   4.642   3.857 -0.3754  0.6348  0.2038
 1946SOL    HW2 6027   2.706   4.531   3.868 -0.4559  0.6192 -0.6010
 1947SOL     OW 6028   3.488   0.527   2.888 -0.3652  0.6943 -0.1477
 1947SOL    HW1 6029   3.534   0.453   2.848 -0.4611 -0.5958  1.9446
 1947SOL    HW2 6030   3.396   0.498   2.891 -0.7182  1.6829 -0.9237
 1948SOL     OW 6031   4.266   0.600   1.346  0.1167 -0.0374  0.0042
 1948SOL    HW1 6032   4.297   0.682   1.383  0.5874 -0.5410  0.7599
 1948SOL    HW2 6033   4.345   0.559   1.310  0.0853 -0.6361  0.5941
 1949SOL     OW 6034   0.805   2.087   4.383 -0.1777  0.2457 -0.0975
 1949SOL    HW1 6035   0.827   2.106   4.292  0.4500  2.2900  0.4418
 1949SOL    HW2 6036   0.882   2.042   4.418  0.5861  1.5986  0.0328
 1950SOL     OW 6037   3.269   4.938   3.776 -1.1580 -0.1950  0.3738
 1950SOL    HW1 6038   3.323   4.868   3.812  2.1471  1.6109 -0.6169
 1950SOL    HW2 6039   3.305   4.954   3.689 -2.0445  2.4009  0.3937
 1951SOL     OW 6040   2.955   3.239   3.453 -0.0257 -0.3627 -0.5109
 1951SOL    HW1 6041   3.003   3.156   3.456  0.6064  0.0054 -0.1389
 1951SOL    HW2 6042   3.015   3.299   3.408 -0.4273 -0.0781 -0.6692
 1952SOL     OW 6043   4.266   4.398   2.664  0.0883 -0.2724 -0.0457
 1952SOL    HW1 6044   4.259   4.458   2.589  2.9083 -2.1712 -2.0536
 1952SOL    HW2 6045   4.208   4.325   2.641  0.4098 -0.5358 -0.0157
 1953SOL     OW 6046   4.464   2.319   3.642  0.7674 -0.0644  0.1742
 1953SOL    HW1 6047   4.420   2.287   3.720 -0.9455  0.8348 -0.3756
 1953SOL    HW2 6048   4.511   2.398   3.671  1.1630 -0.4352  0.5463
 1954SOL     OW 6049   4.444   3.051   2.411 -0.0864  0.1531  0.3277
 1954SOL    HW1 6050   4.490   3.132   2.389 -0.9000  0.5349 -0.0377
 1954SOL    HW2 6051   4.454   3.042   2.505  0.1946  0.5673  0.3415
 1955SOL     OW 6052   4.871   3.077   2.464  0.0702  0.1784  0.1854
 1955SOL    HW1 6053   4.790   3.039   2.430  0.8791 -0.2545 -1.3223
 1955SOL    HW2 6054   4.940   3.026   2.424  1.1125  0.0771  2.0066
 1956SOL     OW 6055   0.683   3.709   0.505  0.1790  0.5079 -0.2264
 1956SOL    HW1 6056   0.735   3.789   0.495  1.6737 -0.3095  0.6933
 1956SOL    HW2 6057   0.744   3.645   0.541 -1.3364 -0.6706  0.3447
 1957SOL     OW 6058   3.254   4.306   1.517 -0.2524  0.6867  0.2855
 1957SOL    HW1 6059   3.290   4.394   1.530 -0.4442  1.1671 -2.0672
 1957SOL    HW2 6060   3.203   4.289   1.597 -0.4246  2.8162  0.6892
 1958SOL     OW 6061   0.539   3.157   1.284  0.0519 -0.7776  0.0225
 1958SOL    HW1 6062   0.569   3.106   1.360 -1.4280 -1.1543  0.3775
 1958SOL    HW2 6063   0.496   3.092   1.228  0.2304 -0.3123 -0.6694
 1959SOL     OW 6064   2.734   4.240   1.736  0.2266  0.2681  0.2184
 1959SOL    HW1 6065   2.641   4.240   1.757 -0.0124 -2.1094 -0.5258
 1959SOL    HW2 6066   2.762   4.330   1.750 -1.4450  0.4065  3.6006
 1960SOL     OW 6067   1.562   4.907   2.130 -0.0151 -0.3083 -0.2165
 1960SOL    HW1 6068   1.630   4.961   2.089  1.3585 -1.3319  0.5938
 1960SOL    HW2 6069   1.573   4.921   2.224 -0.0533 -1.4584 -0.0187
 1961SOL     OW 6070   4.732   0.306   4.920  0.4281  0.0016 -0.4948
 1961SOL    HW1 6071   4.743   0.387   4.870  1.1012  1.6219  2.1168
 1961SOL    HW2 6072   4.693   0.333   5.003 -0.9156 -2.6158 -0.1774
 1962SOL     OW 6073   4.194   1.509   1.170  0.0531  0.0961 -0.5700
 1962SOL    HW1 6074   4.105   1.532   1.199  0.4388  2.3545 -1.0175
 1962SOL    HW2 6075   4.239   1.593   1.161  1.6184 -0.8739 -2.3828
 1963SOL     OW 6076   3.428   3.615   3.769  0.5265 -0.3529 -0.0333
 1963SOL    HW1 6077   3.522   3.601   3.756  0.4266 -0.4129 -0.7172
 1963SOL    HW2 6078   3.403   3.551   3.836  1.0113 -0.1856  0.3161
 1964SOL     OW 6079   4.734   4.735   4.726 -0.0240  0.2881 -0.0126
 1964SOL    HW1 6080   4.733   4.735   4.630 -0.8913  1.2482 -0.0264
 1964SOL    HW2 6081   4.720   4.826   4.750 -2.9569 -0.3137  0.9958
 1965SOL     OW 6082   1.302   4.033   4.746  0.1267 -0.4540  0.3375
 1965SOL    HW1 6083   1.230   4.001   4.692  1.0892 -2.2274  0.0523
 1965SOL    HW2 6084   1.353   4.090   4.688  0.6969 -1.6972 -0.3978
 1966SOL     OW 6085   2.600   3.330   2.392  0.6890 -0.1042 -0.1468
 1966SOL    HW1 6086   2.684   3.350   2.351  0.0339 -1.0928 -2.1541
 1966SOL    HW2 6087   2.597   3.234   2.395  0.7749 -0.0979  2.5551
 1967SOL     OW 6088   2.871   2.076   0.790 -0.7687 -0.1771 -0.0719
 1967SOL    HW1 6089   2.960   2.052   0.819 -0.1767  0.5669 -1.1864
 1967SOL    HW2 6090   2.886   2.136   0.717 -2.2103  0.2118 -0.0601
 1968SOL     OW 6091   4.203   4.359   3.371  0.4002 -0.3010  0.0965
 1968SOL    HW1 6092   4.120   4.322   3.401  0.2207  0.7530  0.9446
 1968SOL    HW2 6093   4.181   4.404   3.289 -0.1337  1.0433  0.9645
 1969SOL     OW 6094   1.135   2.983   0.018 -0.3359 -0.8560  0.0472
 1969SOL    HW1 6095   1.066   2.993  -0.048  0.3964 -1.5134 -0.8367
 1969SOL    HW2 6096   1.148   2.888   0.025  0.0243 -0.7678  0.6971
 1970SOL     OW 6097   3.808   1.808   4.453 -0.6609  0.5447  0.5378
 1970SOL    HW1 6098   3.734   1.804   4.514 -0.6768  0.3917  0.5082
 1970SOL    HW2 6099   3.879   1.763   4.499  0.2337  2.9713  1.7103
 1971SOL     OW 6100   2.512   3.386   0.611  0.4219 -0.1263  0.0804
 1971SOL    HW1 6101   2.542   3.425   0.693 -0.4402  1.5560 -0.3626
 1971SOL    HW2 6102   2.418   3.400   0.611  0.3899 -0.2329 -1.1204
 1972SOL     OW 6103   3.874   0.036   2.753 -0.0689  0.3950 -0.1019
 1972SOL    HW1 6104   3.943   0.099   2.774  0.0630  0.2673 -0.1447
 1972SOL    HW2 6105   3.825   0.026   2.835 -0.1970  0.6841 -0.1452
 1973SOL     OW 6106   4.360   4.679   2.253  0.0242 -0.1120 -0.2119
 1973SOL    HW1 6107   4.425   4.743   2.225 -1.9578  0.7549 -3.2857
 1973SOL    HW2 6108   4.411   4.609   2.294  2.5470  1.9006  0.3348
 1974SOL     OW 6109   3.278   3.354   3.561  0.0609  1.0221 -0.3157
 1974SOL    HW1 6110   3.235   3.286   3.612  2.2501  0.4832  0.9506
 1974SOL    HW2 6111   3.276   3.432   3.617 -0.7787  1.4864 -0.9744
 1975SOL     OW 6112   2.131   2.839   2.438 -0.0224  0.3953  0.0336
 1975SOL    HW1 6113   2.218   2.806   2.460  0.7326  2.0024 -0.4483
 1975SOL    HW2 6114   2.087   2.846   2.522  1.0854  1.6465  0.5424
 1976SOL     OW 6115   0.044   3.380   4.064  0.4811  0.3185 -0.1592
 1976SOL    HW1 6116   0.071   3.468   4.090 -1.7543  1.1206 -0.4152
 1976SOL    HW2 6117   0.028   3.386   3.970  0.3672 -0.3973 -0.1895
 1977SOL     OW 6118   3.381   2.468   2.117 -0.2217  0.2036  0.2206
 1977SOL    HW1 6119   3.401   2.447   2.208 -1.6820  0.3300  0.5970
 1977SOL    HW2 6120   3.363   2.563   2.117  2.6854  0.8678 -0.7833
 1978SOL     OW 6121   1.380   4.633   0.172  0.8009 -0.2697 -0.1628
 1978SOL    HW1 6122   1.376   4.564   0.238  0.9503 -1.6820 -1.5521
 1978SOL    HW2 6123   1.473   4.641   0.151  1.1340  2.2154  1.7547
 1979SOL     OW 6124   2.129   3.398   0.575 -0.2234 -0.1503  0.2652
 1979SOL    HW1 6125   2.088   3.461   0.634 -2.4800 -0.8164 -0.4660
 1979SOL    HW2 6126   2.093   3.419   0.488 -0.5774 -1.9967 -0.0927
 1980SOL     OW 6127   0.581   2.959   0.816  0.7144  0.1865  0.3968
 1980SOL    HW1 6128   0.666   2.974   0.857  1.2202 -0.2656 -0.4537
 1980SOL    HW2 6129   0.545   3.046   0.800  1.7831  0.4460 -0.7702
 1981SOL     OW 6130   1.941   0.265   3.845  0.4989  0.1098  0.3676
 1981SOL    HW1 6131   2.029   0.289   3.818  0.6096 -1.9222 -1.2976
 1981SOL    HW2 6132   1.954   0.199   3.913  0.4168 -2.2378 -1.7435
 1982SOL     OW 6133   1.856   0.912   3.136  0.0930 -0.7309 -0.3563
 1982SOL    HW1 6134   1.872   0.841   3.073  2.4509  0.1888 -0.8983
 1982SOL    HW2 6135   1.920   0.896   3.206  0.5098  0.7225 -0.3865
 1983SOL     OW 6136   0.799   3.093   2.505 -0.3322  0.3081 -0.0464
 1983SOL    HW1 6137   0.803   3.171   2.561  0.1835  0.6806 -0.5926
 1983SOL    HW2 6138   0.876   3.041   2.530 -0.7840 -0.1387  0.4597
 1984SOL     OW 6139   4.931   2.366   0.509  0.4861 -0.2932 -0.2143
 1984SOL    HW1 6140   4.942   2.422   0.585  0.4434 -1.3431  0.5809
 1984SOL    HW2 6141   4.952   2.278   0.540 -3.7101 -1.5169 -0.2305
 1985SOL     OW 6142   2.269   1.652   3.020 -0.1831 -0.0877  0.4756
 1985SOL    HW1 6143   2.210   1.668   2.947 -1.9138  0.4723  1.9349
 1985SOL    HW2 6144   2.317   1.572   2.995 -0.3435  0.3800 -1.4590
 1986SOL     OW 6145   0.732   0.930   3.649  0.2684 -0.0334 -0.0847
 1986SOL    HW1 6146   0.778   0.847   3.644 -1.5777 -1.0498 -1.2422
 1986SOL    HW2 6147   0.801   0.995   3.665  1.6876 -1.8029  1.4213
 1987SOL     OW 6148   2.162   2.981   1.333 -0.2911 -0.2205  0.1438
 1987SOL    HW1 6149   2.256   2.979   1.350 -0.2895 -2.9849  0.3122
 1987SOL    HW2 6150   2.152   3.043   1.261  1.6871 -0.0897 -0.0873
 1988SOL     OW 6151   1.131   0.563   1.333 -0.2390 -0.3363 -0.7152
 1988SOL    HW1 6152   1.045   0.577   1.373  0.3340 -0.6465  0.6943
 1988SOL    HW2 6153   1.112   0.547   1.241 -1.4375  3.3807 -1.2952
 1989SOL     OW 6154   0.191   0.701   2.290  0.3760  0.0254  0.3506
 1989SOL    HW1 6155   0.183   0.606   2.292 -0.7766 -0.0363 -2.3760
 1989SOL    HW2 6156   0.145   0.727   2.210  1.5748  2.7887  0.4470
 1990SOL     OW 6157   0.112   3.260   0.426 -0.7294  0.0062  0.3557
 1990SOL    HW1 6158   0.148   3.349   0.419  1.6250 -0.9571 -0.8619
 1990SOL    HW2 6159   0.035   3.262   0.370  2.1380  0.0737 -4.0570
 1991SOL     OW 6160   4.228   4.430   2.016 -0.5403  0.2530  0.1284
 1991SOL    HW1 6161   4.188   4.404   2.098 -0.2635 -1.6000 -0.2815
 1991SOL    HW2 6162   4.322   4.425   2.032 -0.4834  0.1325 -0.2184
 1992SOL     OW 6163   4.714   1.024   4.894  0.5690  0.0896 -0.5384
 1992SOL    HW1 6164   4.718   1.068   4.978 -0.4618 -1.0433  0.1405
 1992SOL    HW2 6165   4.717   0.931   4.916  0.2931 -0.2261 -1.7543
 1993SOL     OW 6166   1.033   1.273   3.400 -0.2158 -0.6752 -0.4042
 1993SOL    HW1 6167   0.993   1.204   3.453 -1.3373  0.7570  0.6604
 1993SOL    HW2 6168   1.120   1.239   3.379 -0.3273 -1.9481  1.0249
 1994SOL     OW 6169   4.465   0.648   1.800 -0.5373 -0.0812 -0.4465
 1994SOL    HW1 6170   4.379   0.686   1.779 -0.5499  0.1751  0.0526
 1994SOL    HW2 6171   4.476   0.578   1.736 -1.3794 -0.4955 -0.1573
 1995SOL     OW 6172   2.143   0.518   1.919 -0.4996 -0.0464  0.0407
 1995SOL    HW1 6173   2.083   0.591   1.938 -1.0614 -0.1747 -1.1823
 1995SOL    HW2 6174   2.193   0.546   1.843  0.5068 -0.2445  0.6118
 1996SOL     OW 6175   0.874   2.857   4.521  0.0850  0.8082 -0.3122
 1996SOL    HW1 6176   0.865   2.766   4.547 -0.2755  0.0200 -2.9033
 1996SOL    HW2 6177   0.787   2.895   4.534 -0.2119  0.3029 -0.7953
 1997SOL     OW 6178   2.430   1.951   2.004 -0.2508 -0.1138 -0.1395
 1997SOL    HW1 6179   2.416   1.857   2.015 -0.9296 -0.2582 -1.9872
 1997SOL    HW2 6180   2.343   1.988   1.990 -0.0602  0.9083  1.1220
 1998SOL     OW 6181   3.454   4.313   1.304  0.0916 -0.5085 -0.3700
 1998SOL    HW1 6182   3.407   4.275   1.378  0.2439  1.1986  0.6469
 1998SOL    HW2 6183   3.522   4.249   1.284 -0.9349 -1.7445 -0.1067
 1999SOL     OW 6184   1.618   2.752   0.316 -0.0598  0.1190 -0.2267
 1999SOL    HW1 6185   1.534   2.762   0.272  0.8014 -0.4282 -2.0792
 1999SOL    HW2 6186   1.683   2.779   0.251  1.2150  0.5405  1.1638
 2000SOL     OW 6187   0.640   4.889   3.300 -0.6440  0.2649 -0.3870
 2000SOL    HW1 6188   0.720   4.934   3.326 -0.7857  0.5628 -0.4597
 2000SOL    HW2 6189   0.591   4.955   3.250  0.0294 -0.5318 -2.2062
 2001SOL     OW 6190   1.983   1.525   0.855 -0.4188  0.2148 -0.1502
 2001SOL    HW1 6191   2.005   1.453   0.914  0.3293  1.6781  1.4574
 2001SOL    HW2 6192   1.912   1.491   0.800  1.6481 -2.6089 -1.2832
 2002SOL     OW 6193   1.640   3.145   2.767  0.2845 -0.0095  0.3241
 2002SOL    HW1 6194   1.635   3.049   2.770 -0.5398 -0.0739 -1.4326
 2002SOL    HW2 6195   1.572   3.170   2.704  0.4395  1.7448  0.8036
 2003SOL     OW 6196   3.508   2.534   3.896  0.2274 -0.7858 -0.2391
 2003SOL    HW1 6197   3.579   2.596   3.916  0.4432 -0.8696 -0.7443
 2003SOL    HW2 6198   3.524   2.460   3.953 -0.4885 -0.0552  0.9651
 2004SOL     OW 6199   0.833   2.599   3.562  0.3484 -0.0450  0.5892
 2004SOL    HW1 6200   0.802   2.544   3.490 -0.1769  1.0589 -0.0431
 2004SOL    HW2 6201   0.927   2.607   3.546 -0.1190  2.3455 -1.5534
 2005SOL     OW 6202   2.014   2.897   3.004 -0.6813  0.4939  0.2082
 2005SOL    HW1 6203   1.927   2.935   3.003 -0.3898  1.2765  1.7841
 2005SOL    HW2 6204   2.070   2.964   3.044  0.1128 -1.0209  1.7915
 2006SOL     OW 6205   3.565   4.755   0.254  0.4133  0.3591  0.1401
 2006SOL    HW1 6206   3.622   4.791   0.322  1.1515 -0.1102 -0.2124
 2006SOL    HW2 6207   3.610   4.777   0.172 -1.4298  2.6299 -0.3463
 2007SOL     OW 6208   2.955   1.696   1.071  0.6427 -0.1863 -0.3099
 2007SOL    HW1 6209   2.890   1.701   1.001  1.3717  1.6020 -0.9244
 2007SOL    HW2 6210   3.030   1.651   1.030  1.4134  1.6490 -1.0429
 2008SOL     OW 6211   1.831   2.380   0.593 -0.1703 -0.3983  0.1273
 2008SOL    HW1 6212   1.783   2.460   0.575 -1.4587 -0.6579  2.1421
 2008SOL    HW2 6213   1.777   2.310   0.555 -1.0286 -0.6128  1.6661
 2009SOL     OW 6214   1.322   0.232   3.159  0.1508 -0.0270  0.5985
 2009SOL    HW1 6215   1.230   0.205   3.164  0.3889 -0.8074  1.0273
 2009SOL    HW2 6216   1.367   0.157   3.119  0.3758  0.9409 -1.0249
 2010SOL     OW 6217   2.364   0.842   3.394 -0.4019  0.4579  0.0891
 2010SOL    HW1 6218   2.310   0.898   3.339  0.3420  1.5219  0.4188
 2010SOL    HW2 6219   2.322   0.845   3.480 -0.7101  0.0066 -0.0433
 2011SOL     OW 6220   1.518   0.542   0.473  0.5565 -0.4743  0.3033
 2011SOL    HW1 6221   1.580   0.610   0.500 -0.2294  0.4571 -0.1660
 2011SOL    HW2 6222   1.572   0.474   0.434  1.2194  0.7374 -0.9654
 2012SOL     OW 6223   2.744   0.477   4.324  0.2472  0.0244 -0.7734
 2012SOL    HW1 6224   2.803   0.494   4.251 -0.5515  1.4950 -1.0974
 2012SOL    HW2 6225   2.673   0.539   4.313 -0.6850 -0.7999  0.3833
 2013SOL     OW 6226   0.068   3.798   0.452 -0.6238 -0.0548 -0.3196
 2013SOL    HW1 6227   0.121   3.835   0.382 -0.6218 -0.1107 -0.3477
 2013SOL    HW2 6228   0.090   3.850   0.529  1.2269 -1.5307  0.2189
 2014SOL     OW 6229   4.925   3.610   0.237 -0.2038  0.2400 -0.2251
 2014SOL    HW1 6230   4.865   3.537   0.223 -0.3414  0.3788 -0.3601
 2014SOL    HW2 6231   4.869   3.682   0.265 -0.1235  0.4210 -0.5243
 2015SOL     OW 6232   4.405   4.857   4.168  0.0082  0.0199  0.4257
 2015SOL    HW1 6233   4.320   4.899   4.158 -0.7493 -1.1727  1.5207
 2015SOL    HW2 6234   4.447   4.903   4.240  0.7385  1.2728 -0.7748
 2016SOL     OW 6235   3.221   0.377   2.572  0.0226  0.1219 -0.9142
 2016SOL    HW1 6236   3.269   0.403   2.494  0.1344 -0.3718 -1.0163
 2016SOL    HW2 6237   3.164   0.451   2.591  2.1104  1.5300  0.2993
 2017SOL     OW 6238   2.329   4.642   4.681 -0.2289  0.2960 -0.6601
 2017SOL    HW1 6239   2.354   4.683   4.764  0.2241  1.6739 -1.4372
 2017SOL    HW2 6240   2.285   4.562   4.706  0.9214  0.0947  0.8983
 2018SOL     OW 6241   2.601   3.777   0.781 -0.1051 -0.4769  0.2009
 2018SOL    HW1 6242   2.601   3.830   0.861 -1.3420  0.0189 -0.1068
 2018SOL    HW2 6243   2.552   3.698   0.805  0.6277 -0.9132  0.2880
 2019SOL     OW 6244   0.868   1.056   0.519 -0.1283 -0.0910  0.2732
 2019SOL    HW1 6245   0.857   1.147   0.490  0.3774  0.0139  0.4001
 2019SOL    HW2 6246   0.917   1.014   0.448 -0.1821 -0.2145  0.3084
 2020SOL     OW 6247   2.436   0.220   3.160  0.1115  0.0662  0.6395
 2020SOL    HW1 6248   2.443   0.135   3.116 -1.0866 -0.7993  2.0351
 2020SOL    HW2 6249   2.510   0.222   3.221 -0.4919 -0.4982  1.4117
 2021SOL     OW 6250   3.928   2.452   4.637 -0.1841 -0.6048 -0.2178
 2021SOL    HW1 6251   3.867   2.405   4.581 -1.0415  0.0251  0.1478
 2021SOL    HW2 6252   3.881   2.533   4.660  1.2698  0.4855 -0.9120
 2022SOL     OW 6253   3.941   2.523   0.654 -0.2941  0.4297 -0.0362
 2022SOL    HW1 6254   4.022   2.543   0.607  0.8763 -2.0976  0.7353
 2022SOL    HW2 6255   3.936   2.590   0.723  1.7230  0.0771  0.5251
 2023SOL     OW 6256   1.682   3.834   4.278 -0.6954 -1.0463  0.7866
 2023SOL    HW1 6257   1.634   3.917   4.283  0.6258 -0.0493 -1.6610
 2023SOL    HW2 6258   1.765   3.856   4.237  0.4475 -3.3203  1.6858
 2024SOL     OW 6259   3.633   1.022   2.281  0.1878  0.1894  0.3536
 2024SOL    HW1 6260   3.590   1.099   2.244  0.1746  0.4094  0.8247
 2024SOL    HW2 6261   3.690   1.056   2.349  1.0454 -0.1104 -0.1968
 2025SOL     OW 6262   1.236   2.164   1.072 -0.3627 -0.2126  0.0564
 2025SOL    HW1 6263   1.227   2.252   1.110 -2.2702 -1.1154  1.8729
 2025SOL    HW2 6264   1.164   2.157   1.010 -1.7750 -1.2791  1.7163
 2026SOL     OW 6265   1.478   4.193   2.560 -0.3868  0.2229 -0.3717
 2026SOL    HW1 6266   1.549   4.222   2.502 -0.4786  0.0575 -0.5638
 2026SOL    HW2 6267   1.523   4.152   2.634 -0.2130  1.5143  0.2802
 2027SOL     OW 6268   3.203   0.187   3.129 -0.1528  0.1519  0.4171
 2027SOL    HW1 6269   3.268   0.142   3.074  0.1399  0.5695  0.4182
 2027SOL    HW2 6270   3.142   0.117   3.155 -0.3114 -0.0509 -0.4486
 2028SOL     OW 6271   0.320   0.566   2.824 -0.2792 -0.2455  0.0187
 2028SOL    HW1 6272   0.247   0.619   2.793  0.9909  1.2312 -0.5319
 2028SOL    HW2 6273   0.360   0.618   2.894 -0.0641 -1.2804  0.6858
 2029SOL     OW 6274   2.042   2.423   1.393  0.1172  0.3511  0.7743
 2029SOL    HW1 6275   1.980   2.494   1.376 -0.8371 -0.7315 -0.5035
 2029SOL    HW2 6276   2.100   2.423   1.317  0.9181  0.5544  1.3715
 2030SOL     OW 6277   3.912   1.482   3.673  0.2247  0.4329  0.2072
 2030SOL    HW1 6278   3.818   1.464   3.672  0.2194  0.4826 -0.2932
 2030SOL    HW2 6279   3.926   1.542   3.600  0.6384  0.4726  0.3165
 2031SOL     OW 6280   1.453   4.283   4.934 -0.4045 -0.5500  0.4744
 2031SOL    HW1 6281   1.487   4.271   5.023 -1.8070 -2.6512  0.7913
 2031SOL    HW2 6282   1.530   4.281   4.879  0.5082  0.8769  1.6011
 2032SOL     OW 6283   4.016   1.195   4.023 -0.1111 -0.0408  0.6877
 2032SOL    HW1 6284   4.018   1.128   3.955  0.5044 -0.9294  1.5498
 2032SOL    HW2 6285   3.956   1.159   4.090  1.6828 -0.6689  2.0411
 2033SOL     OW 6286   2.591   3.211   1.576  0.1410 -0.0209  0.2300
 2033SOL    HW1 6287   2.640   3.150   1.631  1.8164  0.3850 -0.7448
 2033SOL    HW2 6288   2.533   3.257   1.637  3.3791  1.8951  2.1553
 2034SOL     OW 6289   4.228   4.664   4.366 -0.0904 -0.1372 -0.0371
 2034SOL    HW1 6290   4.225   4.714   4.447  2.5060 -1.0973  0.7251
 2034SOL    HW2 6291   4.200   4.727   4.299  3.3350  2.5900  0.8151
 2035SOL     OW 6292   3.129   1.239   0.211  0.0539 -1.2387  0.0008
 2035SOL    HW1 6293   3.060   1.175   0.226 -0.3456 -0.7858  0.1186
 2035SOL    HW2 6294   3.083   1.322   0.198  0.5410 -1.0455 -0.5667
 2036SOL     OW 6295   0.426   0.439   2.486 -0.3479  0.0951 -0.4794
 2036SOL    HW1 6296   0.499   0.482   2.530 -1.7722  1.0148  1.1404
 2036SOL    HW2 6297   0.354   0.502   2.493 -1.8073 -1.5214 -0.2848
 2037SOL     OW 6298   0.868   1.713   2.183  0.0946 -0.1048  0.7758
 2037SOL    HW1 6299   0.875   1.762   2.101 -1.7982 -2.3233 -0.8584
 2037SOL    HW2 6300   0.779   1.732   2.213  0.4310 -0.1127  1.7862
 2038SOL     OW 6301   1.135   4.706   4.577  0.2473  0.1053 -0.6395
 2038SOL    HW1 6302   1.121   4.801   4.585 -0.0184  0.0074  0.1590
 2038SOL    HW2 6303   1.104   4.685   4.488 -1.6981  0.4314 -0.0992
 2039SOL     OW 6304   4.034   1.932   4.868 -0.2614  0.6515 -0.2694
 2039SOL    HW1 6305   4.030   1.845   4.909  1.8693  0.6548  0.0855
 2039SOL    HW2 6306   3.990   1.990   4.930  0.2558  0.1654  0.5660
 2040SOL     OW 6307   4.925   3.498   4.561  0.0567  0.4498  0.2919
 2040SOL    HW1 6308   4.933   3.492   4.466 -0.9613 -1.3382  0.2727
 2040SOL    HW2 6309   4.834   3.473   4.579  0.1414  1.0880  1.7093
 2041SOL     OW 6310   2.824   3.428   2.294 -0.6142 -0.0377  0.2204
 2041SOL    HW1 6311   2.861   3.395   2.211 -0.2885  1.5032 -0.2892
 2041SOL    HW2 6312   2.901   3.451   2.346 -0.8273 -0.0060  0.5183
 2042SOL     OW 6313   3.696   3.714   3.592 -0.2760  0.1270 -0.2389
 2042SOL    HW1 6314   3.644   3.788   3.561  1.5581  1.4764 -0.2338
 2042SOL    HW2 6315   3.783   3.728   3.555  0.7390 -0.7493  1.6512
 2043SOL     OW 6316   4.663   2.452   2.273  0.0970  0.3346  0.5971
 2043SOL    HW1 6317   4.648   2.468   2.367  0.3570  0.2307  0.6558
 2043SOL    HW2 6318   4.745   2.497   2.254  0.6247 -0.5807  0.6675
 2044SOL     OW 6319   4.065   2.504   4.154 -0.1718 -0.2389 -0.0337
 2044SOL    HW1 6320   4.145   2.456   4.175  0.3742  0.2995 -0.8521
 2044SOL    HW2 6321   3.995   2.449   4.190  0.3432 -2.2628 -1.9097
 2045SOL     OW 6322   4.893   4.065   1.195 -0.5491 -0.4273  0.6379
 2045SOL    HW1 6323   4.926   4.105   1.276  0.0999  2.7488 -1.0324
 2045SOL    HW2 6324   4.971   4.040   1.147 -0.8029  0.2335 -0.1429
 2046SOL     OW 6325   3.677   3.186   4.228  0.3169 -0.1383  0.6997
 2046SOL    HW1 6326   3.689   3.206   4.136 -1.1419 -1.5707  0.1569
 2046SOL    HW2 6327   3.670   3.272   4.271 -1.8796  0.6037 -0.9524
 2047SOL     OW 6328   0.272   1.273   0.529  0.4286 -0.6010  0.5030
 2047SOL    HW1 6329   0.300   1.239   0.444 -0.6508 -1.5547  0.4993
 2047SOL    HW2 6330   0.196   1.327   0.509  0.0832 -0.9436  0.8685
 2048SOL     OW 6331   3.895   0.089   2.433 -0.0270  0.3030 -0.0984
 2048SOL    HW1 6332   3.959   0.124   2.371 -0.7424  1.0168 -0.4634
 2048SOL    HW2 6333   3.867   0.165   2.484 -1.0806  0.1510 -0.4211
 2049SOL     OW 6334   1.649   0.531   4.656 -0.2132 -0.1948 -0.0013
 2049SOL    HW1 6335   1.658   0.521   4.751  0.2877 -1.4733 -0.1702
 2049SOL    HW2 6336   1.562   0.496   4.637 -0.6021  0.7165  0.0657
 2050SOL     OW 6337   1.694   1.162   3.813 -0.4214  0.7334 -0.6595
 2050SOL    HW1 6338   1.708   1.256   3.822 -2.1701  0.8736  1.5248
 2050SOL    HW2 6339   1.756   1.135   3.745  0.3635  3.3752 -1.1177
 2051SOL     OW 6340   4.406   0.488   3.117 -0.5662 -0.1016 -0.3042
 2051SOL    HW1 6341   4.460   0.425   3.165 -1.2936 -0.3071  0.2664
 2051SOL    HW2 6342   4.464   0.562   3.101 -0.3976  0.1302  1.2323
 2052SOL     OW 6343   4.527   1.446   1.021  0.6794 -0.2970 -0.1452
 2052SOL    HW1 6344   4.613   1.485   1.006  1.4347 -2.0713 -0.6172
 2052SOL    HW2 6345   4.544   1.355   1.041 -1.0932 -0.6693 -0.1214
 2053SOL     OW 6346   1.398   3.061   3.023 -0.7630  0.3371  0.3314
 2053SOL    HW1 6347   1.400   3.152   3.054  0.3136  0.6976 -0.7187
 2053SOL    HW2 6348   1.411   3.068   2.928  2.7846 -1.0466  0.5892
 2054SOL     OW 6349   2.222   4.808   2.464 -0.3848 -0.1566  0.2917
 2054SOL    HW1 6350   2.202   4.823   2.371 -1.0653  0.4767  0.5291
 2054SOL    HW2 6351   2.230   4.896   2.501 -1.6853 -0.3634  1.1506
 2055SOL     OW 6352   3.555   0.296   4.227 -0.1912 -0.0527 -1.1501
 2055SOL    HW1 6353   3.503   0.216   4.228  0.4303 -0.4663  0.5918
 2055SOL    HW2 6354   3.558   0.321   4.134 -1.8924 -1.0310 -1.5075
 2056SOL     OW 6355   2.999   1.145   4.321  0.6158  0.3040  0.1766
 2056SOL    HW1 6356   2.927   1.154   4.259  0.3710 -0.9442  0.2393
 2056SOL    HW2 6357   3.004   1.230   4.365 -2.2177 -0.1534  1.6364
 2057SOL     OW 6358   1.897   3.927   0.774 -0.0736 -0.1271 -0.5598
 2057SOL    HW1 6359   1.921   3.983   0.848 -0.2715  1.9902 -2.0018
 2057SOL    HW2 6360   1.810   3.895   0.795 -0.1683  0.5287  0.0872
 2058SOL     OW 6361   1.209   3.575   0.331  0.1624  0.1427  0.0806
 2058SOL    HW1 6362   1.259   3.618   0.262 -0.1151 -0.2178 -0.3511
 2058SOL    HW2 6363   1.153   3.512   0.285 -1.2605  1.0683  0.4688
 2059SOL     OW 6364   1.399   3.329   3.100 -0.6689  1.0896 -0.1048
 2059SOL    HW1 6365   1.305   3.313   3.104 -0.5940  0.7522  0.4467
 2059SOL    HW2 6366   1.407   3.425   3.101 -1.0616  1.1652 -1.7953
 2060SOL     OW 6367   2.498   2.517   4.863 -0.2226  0.1171  0.0401
 2060SOL    HW1 6368   2.474   2.527   4.771 -3.3565  2.8385  0.9698
 2060SOL    HW2 6369   2.441   2.447   4.895  1.6023 -1.5747 -0.1909
 2061SOL     OW 6370   1.760   0.691   2.792  0.4300 -0.4937 -0.0288
 2061SOL    HW1 6371   1.672   0.664   2.766  0.2215 -0.7611  0.8943
 2061SOL    HW2 6372   1.799   0.729   2.713 -1.9041  3.3881  0.4360
 2062SOL     OW 6373   1.959   2.172   1.427 -0.1139  0.1777 -0.0409
 2062SOL    HW1 6374   1.963   2.150   1.334  0.8806  0.8224 -0.1687
 2062SOL    HW2 6375   1.979   2.265   1.431  0.9176 -0.0546  0.8917
 2063SOL     OW 6376   2.025   4.156   4.186  0.1144 -0.0994  0.4881
 2063SOL    HW1 6377   2.101   4.197   4.145 -1.8274  0.9240 -2.4644
 2063SOL    HW2 6378   1.967   4.229   4.207 -1.5277 -0.9526 -0.7413
 2064SOL     OW 6379   0.565   4.772   3.783  0.2302  0.1077  0.3539
 2064SOL    HW1 6380   0.476   4.739   3.770  0.3718 -0.5736  0.9933
 2064SOL    HW2 6381   0.561   4.863   3.757 -0.2288 -0.3563 -1.2885
 2065SOL     OW 6382   4.085   0.975   1.468 -0.6081 -0.1794  0.0945
 2065SOL    HW1 6383   4.067   1.051   1.524 -0.6988  0.4728 -0.8071
 2065SOL    HW2 6384   4.058   1.003   1.380 -1.2383 -1.4701 -0.1460
 2066SOL     OW 6385   0.784   4.368   2.493 -0.4119 -0.0808  0.1547
 2066SOL    HW1 6386   0.845   4.368   2.567 -0.7646  1.2888  0.4779
 2066SOL    HW2 6387   0.810   4.443   2.440 -0.7718 -0.4807 -0.6138
 2067SOL     OW 6388   1.488   1.930   2.675 -0.1786  0.4796  1.0142
 2067SOL    HW1 6389   1.456   1.872   2.744  0.0814 -0.4976  0.3241
 2067SOL    HW2 6390   1.528   2.003   2.723 -0.0062 -0.1731  1.8959
 2068SOL     OW 6391   2.393   4.536   1.776  0.0237  0.8092 -0.1130
 2068SOL    HW1 6392   2.352   4.533   1.689 -0.6975  0.8490  0.2178
 2068SOL    HW2 6393   2.478   4.578   1.761 -0.5464  1.8208 -0.6261
 2069SOL     OW 6394   3.104   4.419   3.941  0.3738 -0.2818 -0.2146
 2069SOL    HW1 6395   3.146   4.354   3.885 -0.1109  0.3294 -1.3309
 2069SOL    HW2 6396   3.011   4.413   3.919  0.2183  0.2090  0.2845
 2070SOL     OW 6397   3.303   1.650   4.324 -0.3325  0.5683 -0.1866
 2070SOL    HW1 6398   3.227   1.697   4.289 -0.5291  2.5854  2.6237
 2070SOL    HW2 6399   3.377   1.709   4.308  0.0409  0.2400  0.3172
 2071SOL     OW 6400   1.190   4.464   1.378 -0.7210  0.4926 -0.3674
 2071SOL    HW1 6401   1.173   4.497   1.289  0.2595  0.9098 -0.4106
 2071SOL    HW2 6402   1.221   4.374   1.364 -0.5912  0.5494 -0.4552
 2072SOL     OW 6403   3.658   4.481   0.051  0.3705  0.0334 -0.2178
 2072SOL    HW1 6404   3.562   4.491   0.051  0.2367 -1.1435 -0.5601
 2072SOL    HW2 6405   3.691   4.570   0.044 -0.7013  0.4774  0.1435
 2073SOL     OW 6406   3.982   1.583   4.909 -0.2598  0.3689 -0.0752
 2073SOL    HW1 6407   4.018   1.528   4.839 -1.5767 -1.5089  0.6277
 2073SOL    HW2 6408   3.894   1.605   4.878 -0.9863 -0.7675  1.0729
 2074SOL     OW 6409   4.113   3.390   0.642  0.6290  0.2112  0.2863
 2074SOL    HW1 6410   4.163   3.317   0.678  0.6369 -0.1929 -0.5291
 2074SOL    HW2 6411   4.052   3.350   0.580 -0.5778  0.7299  1.1235
 2075SOL     OW 6412   3.961   3.790   1.257  0.1652  0.2302  0.4683
 2075SOL    HW1 6413   3.925   3.822   1.340  3.2782  2.1100  1.2403
 2075SOL    HW2 6414   3.991   3.702   1.276  1.1828  0.7782  1.4898
 2076SOL     OW 6415   3.799   3.978   0.614  0.5270 -0.0549  0.2774
 2076SOL    HW1 6416   3.784   4.040   0.543 -0.1973 -1.7677 -1.1424
 2076SOL    HW2 6417   3.891   3.953   0.606  0.6200  0.2486  0.3790
 2077SOL     OW 6418   4.824   2.330   1.538  0.3606  0.2145 -0.4118
 2077SOL    HW1 6419   4.767   2.306   1.611 -0.6159 -1.5727 -1.6816
 2077SOL    HW2 6420   4.815   2.425   1.530 -1.1314  0.1796  0.4939
 2078SOL     OW 6421   2.878   2.947   0.098 -0.1658 -0.0096 -0.1889
 2078SOL    HW1 6422   2.919   3.011   0.041  2.1843 -3.1504 -2.4140
 2078SOL    HW2 6423   2.951   2.897   0.135 -1.7996 -0.7139  2.3656
 2079SOL     OW 6424   1.914   3.164   3.317  0.7195  0.0956  0.6843
 2079SOL    HW1 6425   1.853   3.122   3.378  0.7003 -0.4066  0.3247
 2079SOL    HW2 6426   1.866   3.241   3.285  0.9299  0.6671  1.6964
 2080SOL     OW 6427   2.937   0.948   1.226 -0.1603 -0.4786 -0.4093
 2080SOL    HW1 6428   2.850   0.919   1.200  0.0695 -1.4187 -0.1636
 2080SOL    HW2 6429   2.928   0.971   1.318  0.0722 -1.5523 -0.1065
 2081SOL     OW 6430   1.080   0.770   3.872 -0.0256 -0.0389  0.0292
 2081SOL    HW1 6431   1.150   0.711   3.898 -1.3783 -2.3566 -1.2173
 2081SOL    HW2 6432   1.125   0.844   3.831  1.7036 -0.9350  0.2189
 2082SOL     OW 6433   3.489   0.097   1.389 -0.3488  0.0621  0.5331
 2082SOL    HW1 6434   3.425   0.166   1.375 -0.9903 -0.4205  0.9752
 2082SOL    HW2 6435   3.559   0.115   1.327 -0.5038  1.0999  0.6445
 2083SOL     OW 6436   0.198   4.428   2.571  0.4307  0.0279 -0.3646
 2083SOL    HW1 6437   0.271   4.457   2.624 -0.0376  1.1119 -0.2743
 2083SOL    HW2 6438   0.205   4.479   2.490 -0.8742  1.0639  0.1230
 2084SOL     OW 6439   0.171   2.798   3.847  0.4958 -0.4210 -0.0518
 2084SOL    HW1 6440   0.205   2.839   3.927  0.1672 -0.7208  0.2458
 2084SOL    HW2 6441   0.099   2.743   3.877  0.5800 -0.7928 -0.5144
 2085SOL     OW 6442   0.152   0.979   3.638  0.5005 -0.3511 -0.4496
 2085SOL    HW1 6443   0.065   0.999   3.602  0.7881 -0.4318 -1.2261
 2085SOL    HW2 6444   0.136   0.955   3.729 -0.2438  0.0497 -0.4665
 2086SOL     OW 6445   1.625   4.793   4.388  0.0709 -0.4429  0.7459
 2086SOL    HW1 6446   1.555   4.741   4.428 -0.2728  0.7692  1.8095
 2086SOL    HW2 6447   1.628   4.873   4.441  2.0853 -0.3398  0.5570
 2087SOL     OW 6448   0.638   2.124   4.592 -0.5673 -0.1812 -0.0681
 2087SOL    HW1 6449   0.697   2.116   4.517  0.6242 -1.2015  0.9356
 2087SOL    HW2 6450   0.602   2.036   4.604 -1.2414  0.1185  0.1921
 2088SOL     OW 6451   1.270   4.031   2.979 -0.4717  0.2336  0.2846
 2088SOL    HW1 6452   1.211   4.056   3.051 -0.4683  0.6642  0.1391
 2088SOL    HW2 6453   1.317   4.112   2.957  0.1575 -0.0986  0.3830
 2089SOL     OW 6454   4.190   3.637   3.891  0.5696 -0.2754 -0.3532
 2089SOL    HW1 6455   4.133   3.565   3.920  0.3824  0.2374  0.5932
 2089SOL    HW2 6456   4.270   3.593   3.863  0.0018 -0.9474 -0.9857
 2090SOL     OW 6457   2.867   0.384   4.621 -0.0096 -0.5068 -0.5344
 2090SOL    HW1 6458   2.813   0.322   4.572  1.1633 -1.1331 -1.0648
 2090SOL    HW2 6459   2.825   0.388   4.707 -1.2519 -0.4997 -1.1068
 2091SOL     OW 6460   2.485   1.463   3.028  0.1728 -0.0053 -0.4263
 2091SOL    HW1 6461   2.470   1.406   2.953  0.8059 -0.3876 -0.2730
 2091SOL    HW2 6462   2.578   1.484   3.024  0.2982 -0.3202  0.4422
 2092SOL     OW 6463   1.600   0.487   2.684  0.6625  0.2656  0.1384
 2092SOL    HW1 6464   1.653   0.407   2.684  0.7885  0.3369  0.8755
 2092SOL    HW2 6465   1.516   0.461   2.721  1.1377  0.7290  1.6002
 2093SOL     OW 6466   1.282   2.450   4.067 -0.0905  0.3642  0.4087
 2093SOL    HW1 6467   1.290   2.530   4.015  2.3243  0.8314  1.3625
 2093SOL    HW2 6468   1.192   2.420   4.051 -0.9310  2.9913 -0.3324
 2094SOL     OW 6469   1.444   2.470   2.570  0.6207  0.0562  0.2985
 2094SOL    HW1 6470   1.397   2.388   2.584  0.7922  0.0967  1.1864
 2094SOL    HW2 6471   1.401   2.532   2.630  0.6993  0.5265 -0.1309
 2095SOL     OW 6472   0.400   0.816   0.220  0.0113 -0.1897  0.7597
 2095SOL    HW1 6473   0.338   0.850   0.284 -0.0561  1.0370  0.0726
 2095SOL    HW2 6474   0.484   0.857   0.243  0.3058 -0.8719  0.9319
 2096SOL     OW 6475   0.971   1.792   0.202  0.1841 -0.0785  0.2199
 2096SOL    HW1 6476   0.908   1.857   0.171  0.7374  0.4190  0.1334
 2096SOL    HW2 6477   0.918   1.713   0.216 -0.2668 -0.0228 -1.0006
 2097SOL     OW 6478   3.049   1.827   4.637 -0.2179 -0.6194 -0.1508
 2097SOL    HW1 6479   3.141   1.850   4.624 -0.5584 -0.5856 -3.2494
 2097SOL    HW2 6480   3.028   1.860   4.725  2.5980 -0.3109  0.4941
 2098SOL     OW 6481   2.062   0.281   1.264  0.0100 -0.4596  0.0130
 2098SOL    HW1 6482   2.013   0.287   1.346 -0.9837  0.8493 -0.6279
 2098SOL    HW2 6483   2.147   0.320   1.285 -0.7331  1.2252  0.1058
 2099SOL     OW 6484   1.972   3.297   2.438 -0.3934  0.0316 -0.2930
 2099SOL    HW1 6485   1.983   3.392   2.426 -0.0124  0.2342  1.4167
 2099SOL    HW2 6486   1.978   3.261   2.349 -0.6423  1.6104 -0.9858
 2100SOL     OW 6487   2.409   3.387   3.127 -0.1603 -0.3378 -0.1258
 2100SOL    HW1 6488   2.480   3.375   3.063 -0.4569 -0.6533 -0.4011
 2100SOL    HW2 6489   2.419   3.314   3.188 -0.5334 -0.6534 -0.4385
 2101SOL     OW 6490   3.293   1.202   1.537 -0.3232  0.1005  0.1603
 2101SOL    HW1 6491   3.249   1.264   1.595 -1.9120 -0.6974 -0.1388
 2101SOL    HW2 6492   3.380   1.240   1.523 -0.8313  1.6393  0.9267
 2102SOL     OW 6493   0.490   1.176   0.379 -0.4232 -0.2715 -0.2433
 2102SOL    HW1 6494   0.532   1.094   0.353 -1.3911 -1.2164  1.0264
 2102SOL    HW2 6495   0.557   1.222   0.430  0.5817  0.3984 -2.0681
 2103SOL     OW 6496   0.508   2.502   0.492  0.5001  0.2459 -0.7995
 2103SOL    HW1 6497   0.548   2.421   0.460 -1.1725 -1.0485  0.2376
 2103SOL    HW2 6498   0.541   2.511   0.582  0.6322  0.6986 -0.8896
 2104SOL     OW 6499   1.077   1.065   4.625 -0.2371 -0.7353 -0.5089
 2104SOL    HW1 6500   1.053   1.031   4.538  1.2561 -1.2347 -0.7601
 2104SOL    HW2 6501   1.154   1.014   4.650 -2.2599 -2.6806  2.4333
 2105SOL     OW 6502   3.325   3.248   0.229  0.1305 -0.6855 -0.6319
 2105SOL    HW1 6503   3.347   3.338   0.254 -2.7394  0.0313 -0.2935
 2105SOL    HW2 6504   3.339   3.197   0.309  0.2894 -0.2407 -0.3687
 2106SOL     OW 6505   1.873   2.023   0.698 -0.2808 -0.1875 -0.3658
 2106SOL    HW1 6506   1.818   2.065   0.631 -2.0747  0.8343  1.6443
 2106SOL    HW2 6507   1.836   1.936   0.709 -0.4257 -0.1049 -0.2024
 2107SOL     OW 6508   2.178   3.153   3.023 -0.4366 -0.1911  0.0003
 2107SOL    HW1 6509   2.172   3.189   3.112  1.4445  0.9820 -0.3088
 2107SOL    HW2 6510   2.266   3.116   3.018 -0.0376  0.8971 -1.7628
 2108SOL     OW 6511   4.725   1.334   0.551  0.2713  0.4185  0.1505
 2108SOL    HW1 6512   4.660   1.296   0.609 -0.0445 -1.4003 -1.3145
 2108SOL    HW2 6513   4.674   1.391   0.493  0.1712  0.0762 -0.1025
 2109SOL     OW 6514   0.043   2.299   1.813 -1.0710 -0.6836 -0.0752
 2109SOL    HW1 6515   0.068   2.390   1.797 -1.8960 -0.3731  0.3853
 2109SOL    HW2 6516  -0.011   2.301   1.892 -0.5889 -1.6576  0.3039
 2110SOL     OW 6517   1.307   1.591   4.043  0.0057  0.4530 -0.3883
 2110SOL    HW1 6518   1.232   1.618   3.989 -0.0810  1.5693  0.2598
 2110SOL    HW2 6519   1.267   1.558   4.124  0.1949  0.6393 -0.2181
 2111SOL     OW 6520   4.595   0.020   0.193  0.4253 -0.0850 -0.3969
 2111SOL    HW1 6521   4.512  -0.025   0.207  1.6615 -2.1101  0.9760
 2111SOL    HW2 6522   4.624  -0.011   0.107 -0.6226  1.3613 -1.3105
 2112SOL     OW 6523   2.887   3.599   0.446 -0.0552 -0.5107  0.1093
 2112SOL    HW1 6524   2.924   3.523   0.491  0.6710 -1.4145 -1.8997
 2112SOL    HW2 6525   2.916   3.590   0.355 -0.1599  2.0600 -0.2571
 2113SOL     OW 6526   3.396   2.769   2.242  0.4629  0.2249  0.3319
 2113SOL    HW1 6527   3.478   2.737   2.278  0.9375 -0.5448 -1.3404
 2113SOL    HW2 6528   3.340   2.783   2.319  1.9895  0.3671  1.4694
 2114SOL     OW 6529   4.439   3.462   0.225 -0.4179  0.3970 -0.2433
 2114SOL    HW1 6530   4.411   3.518   0.297  1.6923  0.6486  0.4449
 2114SOL    HW2 6531   4.394   3.378   0.240  2.0232 -0.5158  3.0416
 2115SOL     OW 6532   0.474   2.420   0.848  0.2851 -0.3980  0.6886
 2115SOL    HW1 6533   0.497   2.496   0.901  1.8772  0.1743 -0.7472
 2115SOL    HW2 6534   0.395   2.447   0.802  1.2871  0.7345 -0.4232
 2116SOL     OW 6535   3.838   4.592   4.707 -0.1774  0.0871  0.3244
 2116SOL    HW1 6536   3.800   4.647   4.639 -3.1181 -0.6023  1.2320
 2116SOL    HW2 6537   3.830   4.503   4.673  0.0350 -0.1200  0.8074
 2117SOL     OW 6538   3.442   2.441   2.378 -0.4294  0.3202 -0.3168
 2117SOL    HW1 6539   3.522   2.475   2.419 -0.0297 -2.6446  1.6653
 2117SOL    HW2 6540   3.373   2.461   2.441 -0.4882 -0.8166  0.0027
 2118SOL     OW 6541   3.384   4.689   0.906 -0.1835  0.8933  1.0441
 2118SOL    HW1 6542   3.387   4.761   0.843 -1.1450  1.3462  1.4944
 2118SOL    HW2 6543   3.426   4.724   0.984 -1.3597  1.2657  1.5330
 2119SOL     OW 6544   4.018   2.223   3.380  0.0343  0.2651 -0.2577
 2119SOL    HW1 6545   4.018   2.181   3.294  0.8193 -0.8320  0.2458
 2119SOL    HW2 6546   4.045   2.313   3.363  1.6818 -0.3260 -1.0295
 2120SOL     OW 6547   0.798   3.903   1.626 -0.4709  0.1397 -0.5842
 2120SOL    HW1 6548   0.756   3.825   1.590 -0.8749  0.9011 -1.8248
 2120SOL    HW2 6549   0.725   3.960   1.650 -0.1750  0.2143  0.1662
 2121SOL     OW 6550   2.208   0.013   1.263 -0.4815  0.2293 -0.0863
 2121SOL    HW1 6551   2.181  -0.026   1.346  1.1277  1.7953  1.2759
 2121SOL    HW2 6552   2.256  -0.057   1.219 -1.2751 -0.6018  0.3298
 2122SOL     OW 6553   0.116   3.284   3.607  0.3964 -0.0122  0.4046
 2122SOL    HW1 6554   0.068   3.287   3.524  0.0587 -1.0857  0.5457
 2122SOL    HW2 6555   0.208   3.282   3.580  0.3548  1.1193  0.1111
 2123SOL     OW 6556   1.780   0.420   1.671 -0.0867 -0.2367 -0.5056
 2123SOL    HW1 6557   1.735   0.431   1.755  0.5204 -1.9290  0.0812
 2123SOL    HW2 6558   1.871   0.404   1.695  0.1903 -0.2287 -1.5246
 2124SOL     OW 6559   2.403   3.487   3.987 -0.2649  0.6817 -0.3239
 2124SOL    HW1 6560   2.361   3.445   4.063 -0.1587 -0.1398 -0.7119
 2124SOL    HW2 6561   2.467   3.423   3.956 -0.2008  1.0727 -1.0226
 2125SOL     OW 6562   3.520   2.338   3.407 -0.2379  0.3990  0.6922
 2125SOL    HW1 6563   3.609   2.340   3.440 -0.3815  0.3080  1.0882
 2125SOL    HW2 6564   3.496   2.430   3.394 -0.3913  0.4663  1.4152
 2126SOL     OW 6565   1.935   0.442   4.672  0.3177  0.0935  0.3776
 2126SOL    HW1 6566   1.854   0.458   4.622  1.2954 -0.7758 -1.6153
 2126SOL    HW2 6567   1.970   0.530   4.689 -0.8700  0.4674  1.0216
 2127SOL     OW 6568   0.650   3.149   1.837 -0.2573  0.1349 -0.1569
 2127SOL    HW1 6569   0.671   3.211   1.767  0.6581  0.7255  0.6112
 2127SOL    HW2 6570   0.559   3.167   1.859 -0.2168  0.7098 -0.4444
 2128SOL     OW 6571   3.120   3.200   3.732  0.3828 -0.2540 -0.8100
 2128SOL    HW1 6572   3.062   3.126   3.717  0.2962 -0.0674 -1.4474
 2128SOL    HW2 6573   3.144   3.194   3.824  1.8810 -2.1676 -1.2621
 2129SOL     OW 6574   0.481   3.602   0.367  0.4149  0.2628 -0.4684
 2129SOL    HW1 6575   0.557   3.625   0.420  0.6002 -1.6523  0.1940
 2129SOL    HW2 6576   0.468   3.509   0.384 -1.6071  0.3693 -1.1899
 2130SOL     OW 6577   2.711   1.667   1.705  0.1634  0.2698  0.0846
 2130SOL    HW1 6578   2.742   1.593   1.653 -0.5910 -1.6311  2.1392
 2130SOL    HW2 6579   2.645   1.709   1.650 -0.1380 -1.2416 -0.7635
 2131SOL     OW 6580   4.903   0.276   1.647  0.1997  0.0599  0.3479
 2131SOL    HW1 6581   4.849   0.244   1.718  1.5360 -0.3338  1.2164
 2131SOL    HW2 6582   4.975   0.214   1.641  2.3752  2.3305  1.4703
 2132SOL     OW 6583   0.963   3.463   1.855  0.0679  0.2315 -0.0893
 2132SOL    HW1 6584   0.957   3.426   1.766 -0.9707 -1.7756  0.7392
 2132SOL    HW2 6585   0.908   3.541   1.852  0.4100  0.4462 -1.3231
 2133SOL     OW 6586   0.957   0.843   1.329  0.5313 -0.2490  0.1170
 2133SOL    HW1 6587   0.879   0.898   1.341 -0.1103 -1.0807 -0.1547
 2133SOL    HW2 6588   0.975   0.848   1.235  1.1708  0.4138  0.2667
 2134SOL     OW 6589   4.509   0.940   4.543 -0.4289  0.6159  0.1524
 2134SOL    HW1 6590   4.602   0.959   4.559 -0.3180 -0.4728  0.8429
 2134SOL    HW2 6591   4.503   0.933   4.447  0.8458 -2.2467  0.1772
 2135SOL     OW 6592   0.937   0.187   4.809  0.1660 -0.7014  0.1238
 2135SOL    HW1 6593   1.001   0.141   4.754 -0.1668 -0.6942 -0.2743
 2135SOL    HW2 6594   0.985   0.262   4.844  0.7129 -1.3396  0.7775
 2136SOL     OW 6595   4.890   1.206   0.753 -0.4735  0.1014 -0.6247
 2136SOL    HW1 6596   4.948   1.130   0.743 -0.6713 -0.4430  1.7621
 2136SOL    HW2 6597   4.900   1.255   0.672  0.7487 -1.7369 -1.6486
 2137SOL     OW 6598   4.671   1.114   0.217 -0.2018 -0.4117  0.1146
 2137SOL    HW1 6599   4.722   1.082   0.291 -0.8665  0.3570  0.9223
 2137SOL    HW2 6600   4.588   1.068   0.223  0.2735 -1.5068 -1.0828
 2138SOL     OW 6601   1.425   1.816   1.252  1.0869  0.2403  0.3090
 2138SOL    HW1 6602   1.517   1.790   1.252  0.9463 -0.2833  0.7036
 2138SOL    HW2 6603   1.410   1.853   1.165  1.8178  0.8813  0.4345
 2139SOL     OW 6604   3.262   3.080   4.296  0.3699  0.0112  0.4689
 2139SOL    HW1 6605   3.254   3.142   4.369 -0.6053 -0.4170  0.7395
 2139SOL    HW2 6606   3.334   3.023   4.322  0.1582 -0.0181  1.0096
 2140SOL     OW 6607   2.984   4.789   4.698  0.0446  0.2429  0.0950
 2140SOL    HW1 6608   2.967   4.882   4.711  1.2318  0.4760  0.1167
 2140SOL    HW2 6609   2.903   4.754   4.660 -0.5882  1.1745  0.5611
 2141SOL     OW 6610   2.079   4.381   2.609 -0.0733 -0.0764  0.2435
 2141SOL    HW1 6611   2.153   4.357   2.665 -2.1223 -0.9247  2.8212
 2141SOL    HW2 6612   2.072   4.476   2.616  0.4654 -0.0488  0.3977
 2142SOL     OW 6613   3.059   2.394   2.067 -0.6710 -0.4820 -0.3943
 2142SOL    HW1 6614   3.098   2.322   2.116 -0.0504 -0.1970 -0.4665
 2142SOL    HW2 6615   3.028   2.353   1.986 -2.0925 -1.0380  0.3845
 2143SOL     OW 6616   3.120   2.153   2.202 -0.1706  0.4071 -0.0266
 2143SOL    HW1 6617   3.132   2.086   2.270  1.6063  0.6209 -0.0872
 2143SOL    HW2 6618   3.028   2.144   2.176  0.3096 -3.0151 -1.0574
 2144SOL     OW 6619   3.197   4.188   2.523  0.1250  0.3651  0.4333
 2144SOL    HW1 6620   3.189   4.210   2.431 -0.9220  0.6123  0.5683
 2144SOL    HW2 6621   3.266   4.122   2.526 -0.3359 -0.1943 -0.6270
 2145SOL     OW 6622   3.660   0.998   0.216  0.0648  0.0118 -0.2825
 2145SOL    HW1 6623   3.687   0.988   0.307  0.2257  0.7459 -0.2384
 2145SOL    HW2 6624   3.572   0.959   0.212  0.2362 -0.4104  0.0814
 2146SOL     OW 6625   4.334   0.718   4.568 -0.1749  0.1303 -0.4224
 2146SOL    HW1 6626   4.253   0.756   4.534 -1.1064 -0.9118  0.5605
 2146SOL    HW2 6627   4.397   0.791   4.568 -0.5721  0.5361 -2.8362
 2147SOL     OW 6628   3.102   0.620   2.650 -0.3082 -0.2207 -0.2987
 2147SOL    HW1 6629   3.113   0.714   2.635  0.6944 -0.2598  0.0622
 2147SOL    HW2 6630   3.016   0.599   2.613 -0.2079  0.6848 -1.0986
 2148SOL     OW 6631   3.160   4.146   1.726 -0.2198 -0.1983  0.3066
 2148SOL    HW1 6632   3.088   4.105   1.774  0.5644 -0.1341  1.5915
 2148SOL    HW2 6633   3.212   4.072   1.695  0.0447 -0.2243  0.7996
 2149SOL     OW 6634   1.117   4.206   0.030 -0.1399 -0.3154 -0.1941
 2149SOL    HW1 6635   1.181   4.172  -0.033 -0.9356  0.1038 -1.2505
 2149SOL    HW2 6636   1.143   4.167   0.114  0.1914 -1.8812 -0.9965
 2150SOL     OW 6637   3.786   2.197   1.216 -0.0584 -0.1972  0.2611
 2150SOL    HW1 6638   3.765   2.104   1.225  0.2871 -0.0796  2.7619
 2150SOL    HW2 6639   3.878   2.199   1.191 -0.3651 -0.5137 -0.9680
 2151SOL     OW 6640   1.290   1.189   3.335  0.0329 -0.7270  0.1863
 2151SOL    HW1 6641   1.349   1.161   3.265  0.2857  0.5145 -0.1262
 2151SOL    HW2 6642   1.341   1.178   3.415  0.1099 -1.1783  0.0761
 2152SOL     OW 6643   0.271   2.655   4.560 -0.1004 -0.2568 -0.3549
 2152SOL    HW1 6644   0.230   2.729   4.605  0.7454 -0.3802  0.6478
 2152SOL    HW2 6645   0.257   2.673   4.467 -2.2628 -0.2153 -0.0687
 2153SOL     OW 6646   3.676   3.147   0.602 -0.2069 -0.4365 -0.0188
 2153SOL    HW1 6647   3.679   3.212   0.673 -1.8701 -0.5527  0.1914
 2153SOL    HW2 6648   3.749   3.087   0.622 -1.2565 -1.0838  2.2380
 2154SOL     OW 6649   4.783   0.071   1.807  0.1071  0.5461  0.2676
 2154SOL    HW1 6650   4.770  -0.009   1.756 -1.1398  0.5281  0.5677
 2154SOL    HW2 6651   4.857   0.052   1.864  0.1115 -0.2374  0.0103
 2155SOL     OW 6652   3.405   0.529   2.435 -0.2782  0.5513 -0.1207
 2155SOL    HW1 6653   3.458   0.545   2.514  0.8397  0.0010 -0.7408
 2155SOL    HW2 6654   3.423   0.605   2.379 -0.2059  0.3998 -0.3032
 2156SOL     OW 6655   3.900   3.756   2.367  0.0907 -0.3538  0.3100
 2156SOL    HW1 6656   3.879   3.665   2.388  0.3483 -0.3109  0.7445
 2156SOL    HW2 6657   3.915   3.755   2.272  0.8876 -0.9225  0.4334
 2157SOL     OW 6658   0.041   4.586   4.220 -0.6210  0.1201 -0.3259
 2157SOL    HW1 6659  -0.054   4.591   4.227 -0.8189 -1.6366 -1.2000
 2157SOL    HW2 6660   0.061   4.623   4.134 -0.4584  0.7626 -0.0234
 2158SOL     OW 6661   0.217   4.060   3.073  0.3190 -0.1891  0.3255
 2158SOL    HW1 6662   0.302   4.054   3.117  2.2969  1.3924 -2.9436
 2158SOL    HW2 6663   0.201   3.971   3.040  2.5987  0.2216 -2.1161
 2159SOL     OW 6664   3.245   4.388   3.629 -0.5904 -0.0483  0.3388
 2159SOL    HW1 6665   3.327   4.418   3.669 -0.3920  2.2322 -1.5713
 2159SOL    HW2 6666   3.272   4.324   3.563 -0.2144  1.1916 -0.7539
 2160SOL     OW 6667   3.425   2.492   0.347 -0.0134 -0.6241  0.5701
 2160SOL    HW1 6668   3.446   2.582   0.371  1.1925 -0.1391 -1.9486
 2160SOL    HW2 6669   3.376   2.500   0.265 -1.3895 -2.2225  1.1849
 2161SOL     OW 6670   0.659   1.936   2.366 -0.0668 -0.3910  0.7729
 2161SOL    HW1 6671   0.665   2.010   2.426  0.2399 -0.1538  0.4522
 2161SOL    HW2 6672   0.660   1.859   2.423 -0.4900 -0.1496  1.1121
 2162SOL     OW 6673   4.857   0.791   1.475  0.2549  0.5528  0.3643
 2162SOL    HW1 6674   4.866   0.709   1.524 -0.2914  0.7066  0.7217
 2162SOL    HW2 6675   4.944   0.805   1.437  0.0443 -0.8092 -0.6939
 2163SOL     OW 6676   4.090   1.821   0.623 -0.4183  0.3666  0.1460
 2163SOL    HW1 6677   4.150   1.836   0.696 -0.3000  1.6326 -0.1825
 2163SOL    HW2 6678   4.141   1.841   0.545 -0.3190 -1.7055 -0.3760
 2164SOL     OW 6679   0.920   0.853   2.096  0.0011  0.2870 -0.5138
 2164SOL    HW1 6680   0.863   0.925   2.068  1.3302  0.5587 -2.8302
 2164SOL    HW2 6681   0.899   0.781   2.036  1.4247  0.1033 -0.8221
 2165SOL     OW 6682   2.779   3.286   4.232  0.0561  0.1509  0.7520
 2165SOL    HW1 6683   2.736   3.206   4.261 -3.7307  1.1363 -1.4416
 2165SOL    HW2 6684   2.734   3.356   4.279  0.2708  1.2054 -0.5344
 2166SOL     OW 6685   2.035   0.602   2.481 -0.1320 -0.8548 -0.7435
 2166SOL    HW1 6686   1.959   0.660   2.484  0.2708 -0.3359 -0.4110
 2166SOL    HW2 6687   2.012   0.531   2.541  0.4498  0.3176  0.9347
 2167SOL     OW 6688   2.452   4.256   0.498 -0.4738  0.6002  0.0965
 2167SOL    HW1 6689   2.402   4.178   0.519  0.3847  0.0511  0.1645
 2167SOL    HW2 6690   2.507   4.271   0.575 -1.1169  1.6754  0.3647
 2168SOL     OW 6691   4.832   2.161   2.466  0.5676 -0.3816 -0.0739
 2168SOL    HW1 6692   4.850   2.249   2.433  0.7366 -0.0040  0.9796
 2168SOL    HW2 6693   4.741   2.166   2.497 -0.2751 -1.2926 -2.2194
 2169SOL     OW 6694   0.943   2.840   3.125 -0.4695  0.1423  0.0908
 2169SOL    HW1 6695   0.903   2.870   3.206 -1.4085  0.7902 -0.5881
 2169SOL    HW2 6696   1.032   2.875   3.127 -0.1719 -0.6379  1.2564
 2170SOL     OW 6697   3.074   0.777   3.110  0.0540  0.0925  0.0771
 2170SOL    HW1 6698   3.076   0.795   3.204 -2.5573  2.0316 -0.1067
 2170SOL    HW2 6699   3.143   0.832   3.074 -0.7141  1.5255  0.6672
 2171SOL     OW 6700   4.520   0.076   4.370  0.0346  0.1245  0.0149
 2171SOL    HW1 6701   4.536   0.169   4.355  0.9557  0.1301  0.9299
 2171SOL    HW2 6702   4.448   0.074   4.432 -0.2968  0.2051 -0.3592
 2172SOL     OW 6703   1.272   0.430   2.969  0.2100  0.4953  0.5833
 2172SOL    HW1 6704   1.183   0.436   3.002 -0.0810 -2.0260  0.4659
 2172SOL    HW2 6705   1.315   0.367   3.028  0.8582 -0.9620 -1.3323
 2173SOL     OW 6706   2.803   3.256   1.414  0.0320  0.0960  1.0436
 2173SOL    HW1 6707   2.727   3.228   1.464  0.5136 -1.4278  0.9668
 2173SOL    HW2 6708   2.870   3.275   1.480 -0.3229  1.2704  1.1014
 2174SOL     OW 6709   1.547   2.104   3.387  0.4343 -0.2966  0.2587
 2174SOL    HW1 6710   1.615   2.100   3.453  2.2027  1.4484 -1.3113
 2174SOL    HW2 6711   1.558   2.024   3.336  1.2379 -0.1057  0.1194
 2175SOL     OW 6712   0.360   3.026   3.790  0.0261 -0.4088  0.2902
 2175SOL    HW1 6713   0.309   3.056   3.865 -0.7541  0.8007 -0.6791
 2175SOL    HW2 6714   0.308   2.954   3.753 -0.1306 -0.3029  0.3010
 2176SOL     OW 6715   3.428   2.591   3.316 -0.0962 -0.1554  0.6159
 2176SOL    HW1 6716   3.433   2.601   3.221  1.1770 -0.0953  0.6677
 2176SOL    HW2 6717   3.481   2.663   3.350 -1.3139  0.3830  1.4164
 2177SOL     OW 6718   4.857   1.170   2.476 -0.0233  0.1525 -0.8120
 2177SOL    HW1 6719   4.793   1.185   2.545  0.8083 -0.2402  0.0763
 2177SOL    HW2 6720   4.936   1.143   2.523  0.5523 -0.1446 -1.9239
 2178SOL     OW 6721   3.531   4.470   2.392 -0.4429  0.5618 -0.4893
 2178SOL    HW1 6722   3.459   4.518   2.351 -1.0656  1.0092  1.0297
 2178SOL    HW2 6723   3.529   4.499   2.484 -0.1455 -1.5729  0.2414
 2179SOL     OW 6724   1.961   1.330   2.611  0.0534 -0.3696 -0.8619
 2179SOL    HW1 6725   1.889   1.366   2.560 -0.1419  1.3399  0.5075
 2179SOL    HW2 6726   1.923   1.311   2.697  1.3520  1.4190  0.1824
 2180SOL     OW 6727   2.030   3.490   4.814  0.6077 -0.8010  0.1313
 2180SOL    HW1 6728   2.043   3.577   4.853 -0.4181  0.1674 -1.5866
 2180SOL    HW2 6729   2.114   3.471   4.771  0.8017 -0.6163  0.4220
 2181SOL     OW 6730   4.190   1.655   2.810  0.1690 -0.1077  0.1470
 2181SOL    HW1 6731   4.106   1.608   2.812  1.1492 -1.9906 -0.7376
 2181SOL    HW2 6732   4.169   1.739   2.769 -1.1430 -0.8804 -0.8486
 2182SOL     OW 6733   1.434   0.040   0.784  0.1690  0.3177  0.1800
 2182SOL    HW1 6734   1.385   0.121   0.801 -2.7538 -1.2131 -0.1907
 2182SOL    HW2 6735   1.455   0.006   0.871  2.5253  2.0024  0.3407
 2183SOL     OW 6736   4.928   0.491   3.522  0.0950 -0.6655 -0.3056
 2183SOL    HW1 6737   5.017   0.524   3.510  0.1446 -0.3727  0.7346
 2183SOL    HW2 6738   4.926   0.463   3.614 -0.4506 -2.0371 -0.7145
 2184SOL     OW 6739   1.789   2.952   3.519  0.3269 -0.4068 -0.0137
 2184SOL    HW1 6740   1.789   2.858   3.506  0.8201 -0.8110  2.3828
 2184SOL    HW2 6741   1.863   2.969   3.578  0.9794  1.6569 -1.2939
 2185SOL     OW 6742   2.151   2.413   3.516 -0.3596 -0.2302  0.4195
 2185SOL    HW1 6743   2.152   2.434   3.423  1.2892 -0.8968  0.2624
 2185SOL    HW2 6744   2.131   2.496   3.559  0.5757  0.4784 -0.4524
 2186SOL     OW 6745   2.086   2.624   3.669  0.0021  0.3223 -0.0575
 2186SOL    HW1 6746   2.099   2.712   3.704  0.9136  0.3247 -0.3704
 2186SOL    HW2 6747   2.147   2.569   3.718  3.5724  0.8028 -3.4221
 2187SOL     OW 6748   0.556   2.122   4.029  0.2477 -0.1220  0.0034
 2187SOL    HW1 6749   0.536   2.097   4.119 -1.7804 -0.4266 -0.4828
 2187SOL    HW2 6750   0.531   2.215   4.025 -1.1159 -0.4986 -0.6142
 2188SOL     OW 6751   1.541   2.959   4.359  0.1514  0.1591  0.3862
 2188SOL    HW1 6752   1.547   3.001   4.445  1.0680 -0.9046  0.8734
 2188SOL    HW2 6753   1.589   2.877   4.370 -0.0452 -0.1648 -1.0473
 2189SOL     OW 6754   1.843   3.673   0.109  0.2858  0.2575  0.4561
 2189SOL    HW1 6755   1.773   3.612   0.086 -0.5941  0.6895  1.9044
 2189SOL    HW2 6756   1.831   3.690   0.202  2.2205  0.4899  0.7053
 2190SOL     OW 6757   3.038   2.731   1.790 -0.3796 -0.4054 -0.4718
 2190SOL    HW1 6758   3.039   2.677   1.870  0.3359  0.2879  0.0035
 2190SOL    HW2 6759   3.131   2.750   1.774 -0.5501 -0.2478 -1.2758
 2191SOL     OW 6760   1.521   1.882   4.402 -1.2764  0.3492 -0.0511
 2191SOL    HW1 6761   1.505   1.860   4.494 -0.4517  1.5002  0.4000
 2191SOL    HW2 6762   1.586   1.817   4.374 -0.7448  0.6252  0.5025
 2192SOL     OW 6763   1.470   3.008   3.738 -0.0990  0.0755  0.8421
 2192SOL    HW1 6764   1.435   3.015   3.649  1.3760  0.3663  0.2633
 2192SOL    HW2 6765   1.565   3.009   3.726  0.1264  1.2716  2.5190
 2193SOL     OW 6766   1.447   0.735   1.822 -0.1641  0.2464  0.3283
 2193SOL    HW1 6767   1.358   0.749   1.791  0.4706  3.0714 -0.4612
 2193SOL    HW2 6768   1.437   0.720   1.916 -1.5011  0.2259  0.1965
 2194SOL     OW 6769   0.598   1.857   0.732  0.2522  0.2465 -0.1852
 2194SOL    HW1 6770   0.677   1.909   0.745  0.3505  0.1345 -0.3227
 2194SOL    HW2 6771   0.582   1.860   0.638  1.3161 -1.4720 -0.4586
 2195SOL     OW 6772   2.737   3.626   3.833 -0.5351  0.0426 -0.8858
 2195SOL    HW1 6773   2.812   3.574   3.860 -0.6484 -0.3451 -1.2966
 2195SOL    HW2 6774   2.720   3.685   3.907  0.1044  0.0631 -0.7535
 2196SOL     OW 6775   1.540   3.821   4.562 -0.0342 -0.1981  0.5536
 2196SOL    HW1 6776   1.567   3.852   4.648  1.1550 -0.3576  0.2531
 2196SOL    HW2 6777   1.511   3.900   4.516  1.6720  0.2898  0.2649
 2197SOL     OW 6778   4.403   2.879   4.045  0.3657 -0.1203 -0.1008
 2197SOL    HW1 6779   4.337   2.811   4.047 -0.4024  0.5107 -1.9697
 2197SOL    HW2 6780   4.475   2.845   4.099  0.4054 -2.8208 -1.6939
 2198SOL     OW 6781   4.737   4.524   0.997  0.3203 -0.3203 -0.2067
 2198SOL    HW1 6782   4.651   4.517   0.955  0.2613  0.3529 -0.2080
 2198SOL    HW2 6783   4.726   4.484   1.083 -0.4401  1.1927  0.4319
 2199SOL     OW 6784   0.896   3.936   0.495 -0.3020  0.4212 -0.5164
 2199SOL    HW1 6785   0.909   3.916   0.402 -1.5445  2.6342 -1.2480
 2199SOL    HW2 6786   0.956   3.878   0.541 -0.5434 -1.6504 -2.6106
 2200SOL     OW 6787   1.742   0.911   0.125  0.8717 -0.4341  0.5802
 2200SOL    HW1 6788   1.686   0.973   0.171  2.1049  0.0298  1.5294
 2200SOL    HW2 6789   1.709   0.825   0.151 -2.2389 -0.3625 -2.4136
 2201SOL     OW 6790   0.646   4.338   3.207  0.1213  0.7423 -0.3579
 2201SOL    HW1 6791   0.610   4.287   3.280 -0.1785  0.7276 -0.5128
 2201SOL    HW2 6792   0.673   4.421   3.247  2.4485 -0.2321  0.2816
 2202SOL     OW 6793   2.574   0.527   1.841  0.0957  0.6490  0.5210
 2202SOL    HW1 6794   2.619   0.529   1.926 -0.9658  0.8923  1.0945
 2202SOL    HW2 6795   2.517   0.451   1.846 -1.0508  1.4927  0.6074
 2203SOL     OW 6796   1.843   4.343   0.871 -0.5978 -0.5867  0.5378
 2203SOL    HW1 6797   1.770   4.281   0.875 -1.3576  0.0607 -1.6613
 2203SOL    HW2 6798   1.849   4.367   0.779  0.2557  1.9029  1.1530
 2204SOL     OW 6799   4.477   3.686   4.565  0.2808  0.4053  0.1042
 2204SOL    HW1 6800   4.381   3.679   4.558  0.0614 -1.8011  3.1910
 2204SOL    HW2 6801   4.492   3.778   4.589 -1.0345  0.8015 -0.4793
 2205SOL     OW 6802   4.105   2.323   1.241 -0.2241 -0.0948 -0.1137
 2205SOL    HW1 6803   4.090   2.254   1.177  0.1722  1.0675 -1.4938
 2205SOL    HW2 6804   4.042   2.391   1.219  1.3686  1.2540 -0.6738
 2206SOL     OW 6805   4.587   2.981   3.141  0.2426  0.7532  0.4895
 2206SOL    HW1 6806   4.534   3.000   3.219 -2.2211 -0.5271 -0.7678
 2206SOL    HW2 6807   4.584   2.886   3.132 -1.2714  0.9517 -2.2325
 2207SOL     OW 6808   1.627   1.385   4.273 -0.1307 -0.0179  0.2183
 2207SOL    HW1 6809   1.646   1.306   4.324  0.2254 -0.5446 -0.7019
 2207SOL    HW2 6810   1.537   1.408   4.297 -1.0347 -1.9422 -1.0441
 2208SOL     OW 6811   3.262   1.438   4.786 -0.3738 -0.1774 -0.4483
 2208SOL    HW1 6812   3.265   1.501   4.714 -1.5061  0.5120  0.0710
 2208SOL    HW2 6813   3.331   1.375   4.766 -0.0463  0.5239 -1.6385
 2209SOL     OW 6814   0.591   2.155   3.704  0.3452  0.1228 -0.1855
 2209SOL    HW1 6815   0.621   2.108   3.781  1.4542  1.2621  0.1086
 2209SOL    HW2 6816   0.670   2.194   3.667 -0.1684 -0.3690 -1.8925
 2210SOL     OW 6817   1.174   2.269   1.648 -0.3788 -0.4214 -0.3309
 2210SOL    HW1 6818   1.196   2.187   1.693 -0.0208  0.2697  0.7968
 2210SOL    HW2 6819   1.130   2.241   1.567 -0.4308 -1.7109  0.1186
 2211SOL     OW 6820   3.563   3.578   0.002 -0.0702 -0.0362 -0.1180
 2211SOL    HW1 6821   3.538   3.487   0.019  0.7289 -0.5436 -1.4797
 2211SOL    HW2 6822   3.601   3.576  -0.086  0.0578  1.6027 -0.1252
 2212SOL     OW 6823   3.941   2.437   3.167 -0.4394  0.0020 -0.0539
 2212SOL    HW1 6824   3.907   2.479   3.247  0.5592  2.9126 -1.0000
 2212SOL    HW2 6825   3.867   2.436   3.107 -1.0841 -1.8142  0.7232
 2213SOL     OW 6826   2.219   0.174   0.956  0.0921  0.2011 -0.5929
 2213SOL    HW1 6827   2.257   0.261   0.960 -0.3687  0.3573  2.0081
 2213SOL    HW2 6828   2.292   0.117   0.929  0.2423  1.3834 -2.9286
 2214SOL     OW 6829   1.840   0.917   1.169 -0.1181  0.4938 -0.0490
 2214SOL    HW1 6830   1.884   0.852   1.225 -1.7906 -0.7693 -0.1400
 2214SOL    HW2 6831   1.912   0.970   1.135  1.2572 -0.8643  0.5811
 2215SOL     OW 6832   3.237   0.171   2.754  0.4949  0.4333  0.1132
 2215SOL    HW1 6833   3.235   0.248   2.697 -0.5605  0.4539  0.1512
 2215SOL    HW2 6834   3.144   0.151   2.770  0.7528 -0.8892  0.0501
 2216SOL     OW 6835   2.222   4.189   1.344 -0.0938  0.0081  0.1832
 2216SOL    HW1 6836   2.212   4.212   1.251  1.4146  0.6961  0.1580
 2216SOL    HW2 6837   2.134   4.195   1.380 -1.1325 -2.5014 -1.6509
 2217SOL     OW 6838   1.020   3.280   1.384  0.2924  0.3078 -0.0096
 2217SOL    HW1 6839   1.019   3.190   1.417 -0.6602 -0.3008 -1.6194
 2217SOL    HW2 6840   1.074   3.276   1.305 -1.0227  0.7951 -0.9694
 2218SOL     OW 6841   0.832   3.676   1.827 -0.2403 -0.1705 -0.2191
 2218SOL    HW1 6842   0.748   3.690   1.782 -0.4445  0.4009  0.3243
 2218SOL    HW2 6843   0.870   3.764   1.832 -0.4926 -0.1265  1.2492
 2219SOL     OW 6844   4.154   2.786   2.591  0.4029  0.2707  0.2547
 2219SOL    HW1 6845   4.173   2.782   2.685  1.1634  0.7373  0.1347
 2219SOL    HW2 6846   4.059   2.784   2.585  0.3495  0.2418  1.0379
 2220SOL     OW 6847   0.689   3.353   0.013 -0.3907  0.2316  0.1427
 2220SOL    HW1 6848   0.654   3.440  -0.011 -0.7739  0.4468  1.4098
 2220SOL    HW2 6849   0.690   3.305  -0.069 -3.4062  0.3214 -0.0840
 2221SOL     OW 6850   0.436   4.051   4.887  0.7423  0.7157 -0.1224
 2221SOL    HW1 6851   0.489   4.093   4.955  0.4564  1.1403 -0.1591
 2221SOL    HW2 6852   0.500   4.021   4.822  0.8975  2.0149 -0.6033
 2222SOL     OW 6853   2.803   3.147   2.092 -0.3160  0.1171 -0.0990
 2222SOL    HW1 6854   2.834   3.230   2.056 -1.0219 -0.0517 -1.1268
 2222SOL    HW2 6855   2.879   3.088   2.085  0.4450  0.8703  1.3916
 2223SOL     OW 6856   1.919   3.405   2.126 -0.0748 -0.4839 -0.2301
 2223SOL    HW1 6857   2.007   3.421   2.161 -0.1748 -0.5380  0.0492
 2223SOL    HW2 6858   1.863   3.467   2.173  0.0599  0.7218 -1.5897
 2224SOL     OW 6859   1.675   1.811   0.979 -0.2366  0.6774  0.6488
 2224SOL    HW1 6860   1.604   1.873   0.998  0.4992  1.1340  2.0127
 2224SOL    HW2 6861   1.753   1.865   0.974  0.0617  0.1504 -0.6615
 2225SOL     OW 6862   2.258   1.381   2.625 -0.0590  0.5465  0.2715
 2225SOL    HW1 6863   2.317   1.350   2.556 -0.1710 -0.5519  0.6513
 2225SOL    HW2 6864   2.170   1.366   2.589 -0.1768  2.8117 -0.5810
 2226SOL     OW 6865   2.451   4.460   4.009  0.6350 -0.1289  0.0031
 2226SOL    HW1 6866   2.450   4.420   3.922  1.4906  0.3892 -0.2522
 2226SOL    HW2 6867   2.456   4.554   3.993 -1.5418  0.1350  0.6006
 2227SOL     OW 6868   4.725   3.885   2.278 -0.4743  0.0835  0.2065
 2227SOL    HW1 6869   4.780   3.829   2.332  0.2203  1.2978  0.8004
 2227SOL    HW2 6870   4.764   3.972   2.286  0.8927  0.0214 -3.8321
 2228SOL     OW 6871   0.693   1.266   2.274 -0.2558  0.0201 -0.2632
 2228SOL    HW1 6872   0.765   1.322   2.247 -0.8984  0.8167 -0.3876
 2228SOL    HW2 6873   0.731   1.208   2.340  0.7925 -0.4499 -1.2500
 2229SOL     OW 6874   4.488   4.003   3.192 -0.9038  0.8057  0.0962
 2229SOL    HW1 6875   4.467   4.014   3.100 -0.1975 -0.8345 -0.2846
 2229SOL    HW2 6876   4.536   3.920   3.197  2.0103  2.4077  1.4362
 2230SOL     OW 6877   1.323   0.070   2.397 -0.0986  0.3731  0.5799
 2230SOL    HW1 6878   1.358   0.158   2.410  0.9012  0.1030 -0.1649
 2230SOL    HW2 6879   1.267   0.078   2.319  0.2458  0.2822  0.3227
 2231SOL     OW 6880   1.674   0.355   0.297 -0.5863  0.6420 -0.2563
 2231SOL    HW1 6881   1.622   0.308   0.232  0.5530 -0.2444 -0.5534
 2231SOL    HW2 6882   1.749   0.299   0.313  0.8280  2.3491 -0.6168
 2232SOL     OW 6883   2.203   3.093   2.363 -0.0547 -0.7012  0.4700
 2232SOL    HW1 6884   2.285   3.105   2.411  0.2953 -1.1312  0.0027
 2232SOL    HW2 6885   2.179   3.002   2.380 -0.0268 -0.7999 -0.0077
 2233SOL     OW 6886   0.263   2.191   2.205 -0.9047 -0.0016 -0.0774
 2233SOL    HW1 6887   0.321   2.198   2.281 -1.2142  0.5393  0.1160
 2233SOL    HW2 6888   0.254   2.097   2.189  1.4838 -0.1063 -1.2268
 2234SOL     OW 6889   2.735   0.481   2.058 -0.0571 -0.4962  0.1475
 2234SOL    HW1 6890   2.828   0.478   2.034  1.1403  1.7684  3.7571
 2234SOL    HW2 6891   2.711   0.389   2.069  2.2331 -1.0970  0.6483
 2235SOL     OW 6892   1.351   4.766   4.268  0.1209 -0.1565 -0.4877
 2235SOL    HW1 6893   1.351   4.859   4.289 -1.5259 -0.0949 -0.6825
 2235SOL    HW2 6894   1.417   4.757   4.199  0.9739  0.6865  0.1978
 2236SOL     OW 6895   4.570   4.024   4.161 -0.9607  0.1170 -0.4434
 2236SOL    HW1 6896   4.514   4.009   4.238  0.3338  1.7214  0.8961
 2236SOL    HW2 6897   4.538   3.961   4.096 -2.8907 -0.4974  0.9795
 2237SOL     OW 6898   0.357   1.227   0.083 -0.6404 -0.6459 -0.0473
 2237SOL    HW1 6899   0.400   1.155   0.037 -0.3888 -0.8817  0.5479
 2237SOL    HW2 6900   0.408   1.238   0.163 -0.3097  0.5853 -0.3924
 2238SOL     OW 6901   4.201   1.673   1.500  0.6925 -0.2117 -0.3896
 2238SOL    HW1 6902   4.146   1.727   1.443 -0.8634  1.8080  2.7100
 2238SOL    HW2 6903   4.143   1.603   1.530  0.8451 -0.0382  0.3168
 2239SOL     OW 6904   2.136   2.200   0.366 -0.7653 -0.0998  0.0802
 2239SOL    HW1 6905   2.151   2.129   0.304  0.1326  1.7602 -1.9474
 2239SOL    HW2 6906   2.149   2.280   0.315 -4.3523  1.6456  1.5555
 2240SOL     OW 6907   3.934   4.677   0.809  0.1877  0.4280 -0.0880
 2240SOL    HW1 6908   3.949   4.602   0.868  0.5790  1.2792  0.9296
 2240SOL    HW2 6909   3.945   4.640   0.722 -3.5080 -1.6150  0.0926
 2241SOL     OW 6910   2.414   3.065   1.411  0.2499  0.1546  0.2931
 2241SOL    HW1 6911   2.493   3.053   1.358  0.7823  0.3652  1.0122
 2241SOL    HW2 6912   2.433   3.143   1.464 -0.3628  0.0967  0.6017
 2242SOL     OW 6913   1.141   0.580   3.459 -0.3338 -0.2605  0.4399
 2242SOL    HW1 6914   1.094   0.572   3.377  0.9896 -0.1345 -0.3675
 2242SOL    HW2 6915   1.152   0.490   3.490  0.8534 -0.4823 -0.5468
 2243SOL     OW 6916   4.811   2.599   1.543 -0.3983 -0.0130 -0.2870
 2243SOL    HW1 6917   4.785   2.611   1.634  0.6336 -3.3186  0.5690
 2243SOL    HW2 6918   4.738   2.635   1.492 -2.1351 -0.3049  1.8705
 2244SOL     OW 6919   4.925   3.224   1.755 -0.0940 -0.1861  0.1846
 2244SOL    HW1 6920   4.961   3.161   1.693 -0.4928  0.3694 -0.6307
 2244SOL    HW2 6921   4.841   3.187   1.782 -0.3692  0.0389 -0.3622
 2245SOL     OW 6922   1.954   0.292   0.937  1.0282 -0.9222  0.4672
 2245SOL    HW1 6923   1.877   0.295   0.995  0.6500 -1.0199 -0.0255
 2245SOL    HW2 6924   2.001   0.373   0.957  0.2949 -0.3883  0.1036
 2246SOL     OW 6925   2.933   3.830   2.608 -0.3017  0.2922  0.2133
 2246SOL    HW1 6926   2.964   3.740   2.600  0.3066  0.5774 -0.7069
 2246SOL    HW2 6927   3.010   3.884   2.594 -0.7621  0.9689  0.2273
 2247SOL     OW 6928   3.935   3.862   2.899  0.0937 -0.6012  0.3583
 2247SOL    HW1 6929   3.921   3.875   2.805  0.7895  0.6030  0.4011
 2247SOL    HW2 6930   3.946   3.951   2.934  2.2461 -1.1310  1.1789
 2248SOL     OW 6931   0.587   2.422   4.230 -0.3187 -0.4790  0.0503
 2248SOL    HW1 6932   0.559   2.332   4.244 -0.1532 -0.6462 -0.6426
 2248SOL    HW2 6933   0.549   2.447   4.145 -1.3827  0.5248  0.7863
 2249SOL     OW 6934   4.039   0.159   2.207 -0.0715 -0.1581 -0.3961
 2249SOL    HW1 6935   4.025   0.244   2.166  0.3793  0.7307  1.2087
 2249SOL    HW2 6936   4.110   0.119   2.157 -0.2514  0.4262 -1.1315
 2250SOL     OW 6937   1.387   3.450   2.035 -0.3393  0.2790 -0.2040
 2250SOL    HW1 6938   1.309   3.486   1.992  0.3970 -1.2152 -3.0189
 2250SOL    HW2 6939   1.418   3.522   2.090 -1.1370  2.5954 -2.5452
 2251SOL     OW 6940   0.664   0.550   2.603  0.2137  0.9059 -0.1387
 2251SOL    HW1 6941   0.650   0.633   2.557  0.4468  0.3406 -1.2434
 2251SOL    HW2 6942   0.750   0.559   2.643  0.2050  1.2169 -0.1840
 2252SOL     OW 6943   1.629   4.500   3.405  0.3493  0.2299 -0.3304
 2252SOL    HW1 6944   1.548   4.551   3.402  1.1395  1.5154 -0.3158
 2252SOL    HW2 6945   1.646   4.477   3.313 -0.7853 -1.3346 -0.2004
 2253SOL     OW 6946   3.278   3.746   3.277  0.0268 -0.0731 -0.0365
 2253SOL    HW1 6947   3.201   3.803   3.278  1.4362  1.9381 -0.1851
 2253SOL    HW2 6948   3.303   3.742   3.184  0.6793  0.1594  0.1220
 2254SOL     OW 6949   4.177   0.426   2.986 -0.0821  0.3925 -0.1177
 2254SOL    HW1 6950   4.117   0.499   3.003  1.3071  1.5679 -0.0635
 2254SOL    HW2 6951   4.257   0.448   3.034  0.9484 -0.3563 -1.4110
 2255SOL     OW 6952   2.641   2.815   3.807 -0.5431 -0.4237 -0.7989
 2255SOL    HW1 6953   2.729   2.793   3.836 -1.0165 -0.9504  0.3320
 2255SOL    HW2 6954   2.653   2.882   3.741  0.6921 -0.2861 -0.4565
 2256SOL     OW 6955   0.621   3.033   3.856  0.3846  0.6773 -0.1564
 2256SOL    HW1 6956   0.629   2.953   3.908  0.8204  0.6821 -0.2115
 2256SOL    HW2 6957   0.537   3.025   3.812  0.6165  0.0545 -0.4901
 2257SOL     OW 6958   0.435   3.419   1.247  0.1450  0.6440 -0.3543
 2257SOL    HW1 6959   0.477   3.334   1.259 -1.6492  0.0426  2.6669
 2257SOL    HW2 6960   0.381   3.408   1.168  2.7981  0.3704 -2.2838
 2258SOL     OW 6961   0.185   2.851   1.724 -0.1904 -0.5024  0.0947
 2258SOL    HW1 6962   0.236   2.932   1.717  0.5159 -0.9713 -0.3059
 2258SOL    HW2 6963   0.150   2.852   1.813  0.3812 -0.0895  0.3173
 2259SOL     OW 6964   1.936   3.625   2.376 -0.0091 -0.1446  0.2369
 2259SOL    HW1 6965   1.995   3.670   2.317  0.3819  0.5544  1.1433
 2259SOL    HW2 6966   1.848   3.653   2.349  0.1660  0.1521 -0.0194
 2260SOL     OW 6967   2.291   0.526   0.586  0.2668 -0.0636  0.1002
 2260SOL    HW1 6968   2.298   0.584   0.510 -0.6485 -0.1721 -0.0719
 2260SOL    HW2 6969   2.246   0.448   0.554 -0.6514  0.1270  0.8830
 2261SOL     OW 6970   3.621   3.893   2.886 -0.1115 -0.9854 -0.3372
 2261SOL    HW1 6971   3.656   3.971   2.843 -2.2789  0.1087 -0.2563
 2261SOL    HW2 6972   3.668   3.888   2.968  0.6100 -0.2047 -0.6881
 2262SOL     OW 6973   3.177   3.244   4.037 -0.0331 -0.4205  0.4851
 2262SOL    HW1 6974   3.157   3.201   4.121  2.8005  0.0342  1.5176
 2262SOL    HW2 6975   3.100   3.297   4.018 -1.0009 -0.9813  2.5169
 2263SOL     OW 6976   1.042   3.336   3.679 -0.1847 -0.3611 -0.8316
 2263SOL    HW1 6977   0.961   3.386   3.695 -0.3262 -0.7918 -0.1375
 2263SOL    HW2 6978   1.059   3.293   3.763  2.2365  1.8171 -0.0656
 2264SOL     OW 6979   1.068   2.265   3.060  0.2717  0.7707  0.1324
 2264SOL    HW1 6980   1.139   2.232   3.115 -0.4313 -0.5273  0.3025
 2264SOL    HW2 6981   1.023   2.329   3.115 -0.2540 -0.3080  1.0225
 2265SOL     OW 6982   1.810   4.786   1.656 -0.1704  0.1327 -0.0865
 2265SOL    HW1 6983   1.734   4.844   1.665  0.0879  0.4736 -0.0766
 2265SOL    HW2 6984   1.860   4.800   1.737 -0.6410 -0.8899  0.3940
 2266SOL     OW 6985   3.479   4.214   2.273 -0.2175  0.3989 -0.0643
 2266SOL    HW1 6986   3.384   4.222   2.265 -0.1703  0.2561 -0.8644
 2266SOL    HW2 6987   3.508   4.299   2.306 -0.6609  0.3130  0.5541
 2267SOL     OW 6988   3.426   0.848   2.563  0.6069  0.0452  0.4254
 2267SOL    HW1 6989   3.368   0.853   2.639 -0.6589 -0.4174 -0.4869
 2267SOL    HW2 6990   3.489   0.778   2.585 -0.4020 -0.8220  0.6304
 2268SOL     OW 6991   1.981   3.401   2.980 -0.1522 -0.5920  0.0922
 2268SOL    HW1 6992   1.958   3.448   2.900 -1.9731 -1.0641  0.3075
 2268SOL    HW2 6993   2.042   3.333   2.951 -1.9438 -1.7324 -1.2075
 2269SOL     OW 6994   1.434   4.551   0.794  0.0822  0.0279  0.0051
 2269SOL    HW1 6995   1.447   4.607   0.870 -0.6735  1.7403 -1.0575
 2269SOL    HW2 6996   1.512   4.496   0.790  0.3953  0.3084  1.6594
 2270SOL     OW 6997   0.396   2.552   2.291  0.0653 -0.2832  0.1345
 2270SOL    HW1 6998   0.320   2.515   2.247 -0.0137 -0.2185  0.2154
 2270SOL    HW2 6999   0.401   2.504   2.374 -0.3387  0.2319  0.4644
 2271SOL     OW 7000   3.839   1.048   2.468  0.4353  0.1556 -0.0825
 2271SOL    HW1 7001   3.905   1.034   2.535 -0.3061 -0.4661  0.5414
 2271SOL    HW2 7002   3.819   0.960   2.435  0.9554  0.4736 -1.2845
 2272SOL     OW 7003   4.431   3.466   4.895 -0.2058  0.8471  0.1353
 2272SOL    HW1 7004   4.363   3.400   4.881  0.4592  0.4999 -1.8610
 2272SOL    HW2 7005   4.446   3.467   4.989  1.1524 -3.3020  0.1574
 2273SOL     OW 7006   0.764   2.720   1.322  0.3761 -0.3576 -0.0001
 2273SOL    HW1 7007   0.694   2.657   1.335  1.0018 -0.9100  0.7325
 2273SOL    HW2 7008   0.734   2.774   1.248 -0.3311 -1.2538 -0.3810
 2274SOL     OW 7009   2.101   2.373   4.630 -0.2732  0.0111 -0.0762
 2274SOL    HW1 7010   2.134   2.339   4.713 -0.2413  1.1477  0.3922
 2274SOL    HW2 7011   2.175   2.365   4.569  0.6055  1.6245  0.7101
 2275SOL     OW 7012   1.763   4.152   2.535 -0.0070 -0.1253  0.4182
 2275SOL    HW1 7013   1.762   4.216   2.464 -0.5793 -1.3922 -0.7704
 2275SOL    HW2 7014   1.856   4.131   2.547  0.0214 -0.9400 -0.9759
 2276SOL     OW 7015   3.118   0.933   3.638  0.0534 -0.1416  0.2612
 2276SOL    HW1 7016   3.103   1.026   3.656 -1.7153 -0.2797 -0.2678
 2276SOL    HW2 7017   3.047   0.888   3.684  1.4377 -1.3411  1.2996
 2277SOL     OW 7018   0.146   2.472   3.807 -0.3487  0.7332  0.0564
 2277SOL    HW1 7019   0.230   2.508   3.835 -0.0547  1.0075 -1.1054
 2277SOL    HW2 7020   0.081   2.522   3.856  0.1399  1.0945  0.3477
 2278SOL     OW 7021   3.414   3.725   2.324  0.1641 -0.5093 -0.2178
 2278SOL    HW1 7022   3.502   3.743   2.359  0.9143 -0.3730 -2.0444
 2278SOL    HW2 7023   3.362   3.801   2.349  1.0840  0.2978 -0.7027
 2279SOL     OW 7024   4.378   0.311   0.160  0.3374  0.0751 -0.3411
 2279SOL    HW1 7025   4.451   0.371   0.171  0.2540 -0.0124  0.7801
 2279SOL    HW2 7026   4.377   0.258   0.240  1.6693 -2.8470 -2.0813
 2280SOL     OW 7027   4.925   2.348   0.233 -0.7128  0.4001  0.2013
 2280SOL    HW1 7028   4.935   2.363   0.327  1.7575 -0.6954  0.1872
 2280SOL    HW2 7029   4.876   2.266   0.227 -2.4264  1.3498  0.4463
 2281SOL     OW 7030   3.535   4.746   4.782 -0.5464  0.4771 -0.4124
 2281SOL    HW1 7031   3.626   4.759   4.810 -0.8718  0.7278  0.5705
 2281SOL    HW2 7032   3.499   4.684   4.846 -1.4512  1.4603  0.0600
 2282SOL     OW 7033   0.470   0.979   1.742 -0.0217  0.3436  0.2671
 2282SOL    HW1 7034   0.475   1.053   1.803  0.4871  0.4140  0.1420
 2282SOL    HW2 7035   0.462   1.020   1.656  1.8384  0.3000  0.0324
 2283SOL     OW 7036   2.408   2.762   1.601  0.5530 -0.2005  0.1734
 2283SOL    HW1 7037   2.324   2.771   1.646  0.7566 -1.5707  0.8624
 2283SOL    HW2 7038   2.399   2.681   1.550  2.3789 -1.8976  2.3778
 2284SOL     OW 7039   4.035   3.980   0.102 -0.0314 -0.1643  0.3007
 2284SOL    HW1 7040   3.988   4.057   0.069  0.4036 -0.4458 -1.0518
 2284SOL    HW2 7041   4.089   4.013   0.174  1.0545  1.0759 -1.0208
 2285SOL     OW 7042   0.545   3.075   4.536  0.2573  0.3082 -0.1798
 2285SOL    HW1 7043   0.548   3.170   4.527  1.4377  0.2278 -0.8380
 2285SOL    HW2 7044   0.563   3.060   4.629  0.3185  0.7273 -0.1214
 2286SOL     OW 7045   4.524   1.900   2.342  0.2663 -0.0521  0.2664
 2286SOL    HW1 7046   4.504   1.994   2.336  1.1641  0.0812 -0.7458
 2286SOL    HW2 7047   4.572   1.880   2.262 -0.9514 -1.6498 -0.1274
 2287SOL     OW 7048   1.238   1.000   3.941  0.1686  0.1307  0.1369
 2287SOL    HW1 7049   1.250   1.080   3.991 -1.4218  0.2312  0.4092
 2287SOL    HW2 7050   1.232   1.029   3.850 -2.7628  0.6850  0.3983
 2288SOL     OW 7051   2.245   2.455   3.821  0.5409  0.3752 -0.3193
 2288SOL    HW1 7052   2.257   2.361   3.808  0.2773  0.2703  0.1739
 2288SOL    HW2 7053   2.313   2.496   3.768 -0.5107 -0.0319 -2.0992
 2289SOL     OW 7054   3.398   3.775   3.533  0.0453  0.2486  0.1757
 2289SOL    HW1 7055   3.354   3.737   3.458 -0.3769 -1.4326  1.2208
 2289SOL    HW2 7056   3.410   3.702   3.594 -1.0370  1.8176  2.4209
 2290SOL     OW 7057   3.799   0.342   3.524 -0.4110 -0.0115  0.0955
 2290SOL    HW1 7058   3.799   0.274   3.591 -2.7178  0.5258  0.7167
 2290SOL    HW2 7059   3.808   0.294   3.441  0.7643 -0.8073  0.6492
 2291SOL     OW 7060   3.082   1.730   4.172 -0.0248  0.0277 -0.1529
 2291SOL    HW1 7061   3.021   1.687   4.112 -1.2716  1.1325  0.2912
 2291SOL    HW2 7062   3.076   1.823   4.150  0.3637  0.3155  0.9184
 2292SOL     OW 7063   1.950   4.411   0.191  0.3859 -0.5036  0.2822
 2292SOL    HW1 7064   2.002   4.350   0.244  2.8319  0.0996 -1.2491
 2292SOL    HW2 7065   1.921   4.477   0.253  0.2989 -1.5759  1.4344
 2293SOL     OW 7066   3.088   1.020   1.493 -0.9487 -0.1215 -0.3700
 2293SOL    HW1 7067   3.030   1.050   1.562 -0.1148  3.8650 -1.1731
 2293SOL    HW2 7068   3.168   1.070   1.505  0.9242 -2.5512 -1.6790
 2294SOL     OW 7069   0.400   1.578   0.577  0.2643  0.3673  0.4237
 2294SOL    HW1 7070   0.372   1.487   0.571 -0.9805  0.8231 -2.8314
 2294SOL    HW2 7071   0.319   1.629   0.567  1.1782  1.7949 -0.0985
 2295SOL     OW 7072   3.953   1.922   3.339  0.1383  0.5470  0.2717
 2295SOL    HW1 7073   4.046   1.922   3.361 -0.0194 -0.5656  1.0527
 2295SOL    HW2 7074   3.950   1.935   3.244  1.0786  0.6240  0.2460
 2296SOL     OW 7075   2.614   2.514   3.412 -0.7730  0.0698  0.1352
 2296SOL    HW1 7076   2.557   2.522   3.336  0.8753 -0.6348 -1.2333
 2296SOL    HW2 7077   2.588   2.432   3.453 -0.9639 -0.0810 -0.2853
 2297SOL     OW 7078   1.759   2.328   1.833 -0.2901 -0.3189  0.1308
 2297SOL    HW1 7079   1.782   2.409   1.880  1.3342 -0.7791  0.1948
 2297SOL    HW2 7080   1.665   2.335   1.818 -0.1784  1.6411  0.0494
 2298SOL     OW 7081   1.155   2.663   3.236  0.1056 -0.0780  0.4136
 2298SOL    HW1 7082   1.160   2.750   3.197 -0.0739 -0.2379  0.0323
 2298SOL    HW2 7083   1.244   2.629   3.230 -0.2811 -0.8516 -1.5956
 2299SOL     OW 7084   4.443   4.677   1.140 -0.3527 -0.0804 -0.2696
 2299SOL    HW1 7085   4.471   4.768   1.149  1.6298 -0.4421 -1.9622
 2299SOL    HW2 7086   4.491   4.644   1.064 -3.0990 -1.7833 -1.4257
 2300SOL     OW 7087   0.333   1.144   1.211  0.0164  0.6035 -0.0262
 2300SOL    HW1 7088   0.265   1.204   1.181  0.0719  0.4015 -0.5630
 2300SOL    HW2 7089   0.301   1.057   1.188  0.1901  0.4646  0.2496
 2301SOL     OW 7090   4.940   0.318   0.326  0.1373  0.2993  0.4934
 2301SOL    HW1 7091   4.954   0.353   0.238 -0.1036 -0.6931  0.0493
 2301SOL    HW2 7092   4.914   0.227   0.312  0.9644 -0.1295  1.6303
 2302SOL     OW 7093   2.894   4.046   3.513 -0.2460  0.5726 -0.1548
 2302SOL    HW1 7094   2.801   4.028   3.501  0.2846 -0.9915 -2.8889
 2302SOL    HW2 7095   2.929   3.965   3.551  0.1013  0.8814  0.1868
 2303SOL     OW 7096   1.869   4.773   2.381 -0.2790 -0.5986  0.0005
 2303SOL    HW1 7097   1.805   4.714   2.420 -0.1504  0.8415  2.6888
 2303SOL    HW2 7098   1.820   4.853   2.361 -0.1471 -0.9960 -2.1129
 2304SOL     OW 7099   1.652   4.693   0.130  0.3430 -0.3292 -0.0849
 2304SOL    HW1 7100   1.697   4.761   0.080 -0.8718  0.3642 -0.2808
 2304SOL    HW2 7101   1.710   4.674   0.203  0.9395  0.5570 -0.3111
 2305SOL     OW 7102   1.762   0.127   3.308 -0.5283 -0.5652 -0.0244
 2305SOL    HW1 7103   1.776   0.211   3.265  0.9511 -0.3918  0.7318
 2305SOL    HW2 7104   1.850   0.094   3.325 -1.0151 -0.8149  2.4578
 2306SOL     OW 7105   2.517   4.063   3.317 -0.5266 -0.1596 -0.5855
 2306SOL    HW1 7106   2.564   4.026   3.391  0.6639  1.8590 -0.2576
 2306SOL    HW2 7107   2.561   4.146   3.300 -2.8199  0.9608 -1.4795
 2307SOL     OW 7108   1.067   0.113   2.498 -0.5404  0.1867 -0.3798
 2307SOL    HW1 7109   1.088   0.061   2.575 -2.2846 -1.5949 -1.0229
 2307SOL    HW2 7110   1.147   0.111   2.445 -0.1297 -0.6504  0.2518
 2308SOL     OW 7111   4.140   4.129   0.295 -0.3608  0.1842  0.0767
 2308SOL    HW1 7112   4.183   4.061   0.347  1.5219 -0.2747 -1.9206
 2308SOL    HW2 7113   4.205   4.198   0.287 -1.4991  1.3115  0.3043
 2309SOL     OW 7114   2.141   2.463   3.247 -0.2912 -0.4930  0.4380
 2309SOL    HW1 7115   2.132   2.543   3.196  0.0536 -0.7672 -0.0717
 2309SOL    HW2 7116   2.068   2.408   3.218  0.9864 -1.4133 -1.2367
 2310SOL     OW 7117   2.793   0.872   4.504  0.1584  0.2976 -0.3945
 2310SOL    HW1 7118   2.776   0.814   4.577  0.5102 -0.8708 -1.2073
 2310SOL    HW2 7119   2.886   0.896   4.513  0.2312  0.0635 -0.5162
 2311SOL     OW 7120   3.031   3.359   4.702  0.1721  0.5588 -0.3933
 2311SOL    HW1 7121   3.047   3.332   4.612  3.0918  0.8164 -0.0539
 2311SOL    HW2 7122   3.102   3.421   4.722 -2.0014  2.7374  1.2245
 2312SOL     OW 7123   1.267   0.640   4.712  0.2939 -0.1047 -0.3340
 2312SOL    HW1 7124   1.241   0.568   4.769  1.8060  0.6669  1.4391
 2312SOL    HW2 7125   1.321   0.599   4.645  1.2897 -0.6541  0.7610
 2313SOL     OW 7126   0.456   3.842   3.590  0.3727 -0.2753 -1.2453
 2313SOL    HW1 7127   0.380   3.790   3.615 -0.6162  1.2523 -0.9458
 2313SOL    HW2 7128   0.521   3.822   3.657 -1.4343  1.9610  1.4495
 2314SOL     OW 7129   0.069   4.240   4.171  0.2123 -0.6190  0.5248
 2314SOL    HW1 7130   0.128   4.212   4.241  0.3499  0.0400  0.6800
 2314SOL    HW2 7131   0.018   4.312   4.210  0.8538  0.3036 -0.2860
 2315SOL     OW 7132   3.340   1.703   1.053 -0.0772 -0.9176 -0.1583
 2315SOL    HW1 7133   3.399   1.681   0.981 -1.1906 -1.6696 -0.8748
 2315SOL    HW2 7134   3.393   1.756   1.112  0.9211 -0.4142 -1.4507
 2316SOL     OW 7135   0.854   2.214   3.578  0.2627  0.0559  0.0660
 2316SOL    HW1 7136   0.934   2.259   3.550 -0.8713  2.9175  1.0177
 2316SOL    HW2 7137   0.820   2.174   3.498  1.3491  0.9556 -0.8836
 2317SOL     OW 7138   2.724   1.056   3.713 -0.7325 -0.2889  0.3416
 2317SOL    HW1 7139   2.684   1.078   3.629 -1.4905  0.6502  0.9269
 2317SOL    HW2 7140   2.795   1.119   3.723 -1.0341 -0.0009  0.6825
 2318SOL     OW 7141   2.735   4.657   2.984  1.0406 -0.0387 -0.0344
 2318SOL    HW1 7142   2.807   4.615   2.937  0.2718 -2.1223  0.5357
 2318SOL    HW2 7143   2.696   4.717   2.921  0.8050 -1.8581 -1.7003
 2319SOL     OW 7144   0.719   0.516   1.749 -0.1653  0.5170 -0.2945
 2319SOL    HW1 7145   0.656   0.587   1.743 -2.2357 -1.2511 -0.9043
 2319SOL    HW2 7146   0.666   0.437   1.760  2.0661 -0.7899  2.3845
 2320SOL     OW 7147   2.775   3.727   4.582 -0.2965 -0.3514 -0.2795
 2320SOL    HW1 7148   2.731   3.780   4.650 -0.3196 -1.3102  0.4696
 2320SOL    HW2 7149   2.866   3.723   4.611 -0.3558 -0.9637 -0.1812
 2321SOL     OW 7150   2.048   0.146   2.670  0.0006  0.2003 -0.5329
 2321SOL    HW1 7151   2.130   0.097   2.677 -0.0832 -0.6308 -3.5732
 2321SOL    HW2 7152   1.981   0.078   2.662 -0.3856  0.7477 -2.6056
 2322SOL     OW 7153   2.095   3.788   0.348  0.5468 -0.2588 -0.4947
 2322SOL    HW1 7154   2.178   3.759   0.310  1.1919 -0.6597  1.1212
 2322SOL    HW2 7155   2.110   3.880   0.370  1.1010 -0.7017  1.1039
 2323SOL     OW 7156   3.852   1.935   0.533  0.2872 -0.0256 -0.8582
 2323SOL    HW1 7157   3.808   1.856   0.501 -1.0311  0.3260  0.0179
 2323SOL    HW2 7158   3.943   1.908   0.545 -0.1930 -1.4895 -0.3260
 2324SOL     OW 7159   2.595   0.983   1.456  0.0850 -0.0286 -0.2897
 2324SOL    HW1 7160   2.608   1.077   1.465 -1.7575  0.3760 -1.4116
 2324SOL    HW2 7161   2.503   0.969   1.479  0.0443 -1.4032 -1.1862
 2325SOL     OW 7162   0.234   1.893   0.089 -0.2971  0.6691  0.0573
 2325SOL    HW1 7163   0.191   1.906   0.004 -0.7724  0.0331  0.1898
 2325SOL    HW2 7164   0.200   1.809   0.120  1.5298 -0.1819 -0.1214
 2326SOL     OW 7165   4.374   2.283   2.539  0.3083 -0.0474 -0.5054
 2326SOL    HW1 7166   4.422   2.365   2.523  0.1975  0.3540  1.1090
 2326SOL    HW2 7167   4.305   2.307   2.600  0.4988 -1.4224  0.2772
 2327SOL     OW 7168   1.313   2.107   2.400  0.8495 -0.0646  0.0910
 2327SOL    HW1 7169   1.358   2.022   2.395  0.0307 -0.4703 -0.8694
 2327SOL    HW2 7170   1.342   2.154   2.322  2.0209  0.9393  1.0930
 2328SOL     OW 7171   1.232   1.120   2.211 -0.1852 -0.0535  0.4015
 2328SOL    HW1 7172   1.260   1.046   2.265  0.3369 -0.6987 -0.7035
 2328SOL    HW2 7173   1.178   1.080   2.143  0.6954  0.4783 -0.6366
 2329SOL     OW 7174   2.816   0.425   0.679 -0.4285  0.0985  0.4309
 2329SOL    HW1 7175   2.721   0.437   0.672 -0.5771  3.0023  4.0712
 2329SOL    HW2 7176   2.853   0.497   0.628 -0.2522  0.0280  0.4592
 2330SOL     OW 7177   2.403   4.103   4.448 -0.0459 -0.2447 -0.6360
 2330SOL    HW1 7178   2.319   4.093   4.493 -1.2878 -0.8574 -2.9489
 2330SOL    HW2 7179   2.396   4.186   4.402 -0.4567 -1.4299 -2.8342
 2331SOL     OW 7180   0.239   3.810   1.874 -0.2223  0.3963  0.2706
 2331SOL    HW1 7181   0.248   3.757   1.794 -0.7738  0.2886  0.2723
 2331SOL    HW2 7182   0.328   3.836   1.896 -0.0231  0.0924 -0.1575
 2332SOL     OW 7183   4.032   1.466   4.142  0.6766 -0.2927  0.1202
 2332SOL    HW1 7184   4.049   1.523   4.066 -0.4619 -1.9420 -1.4400
 2332SOL    HW2 7185   4.068   1.381   4.116  0.6513 -0.7905  1.6380
 2333SOL     OW 7186   3.154   1.078   4.696  0.1247  0.0630  0.4348
 2333SOL    HW1 7187   3.093   1.004   4.702 -0.4866  0.6193  1.3117
 2333SOL    HW2 7188   3.101   1.155   4.717  0.8036  0.7373 -0.2251
 2334SOL     OW 7189   1.428   2.180   0.474 -0.1206  0.0112  0.0011
 2334SOL    HW1 7190   1.344   2.134   0.472 -0.1284  0.0272 -0.0422
 2334SOL    HW2 7191   1.427   2.227   0.557  0.6088 -1.4243  0.8636
 2335SOL     OW 7192   2.516   2.559   1.007  0.6235  0.3114  0.2596
 2335SOL    HW1 7193   2.424   2.574   0.983  0.2693 -2.3148 -0.2263
 2335SOL    HW2 7194   2.526   2.606   1.090 -0.4801  2.4818 -0.7348
 2336SOL     OW 7195   0.201   4.186   4.408  0.2621 -0.3458 -0.0221
 2336SOL    HW1 7196   0.173   4.172   4.498 -1.1082  2.5796  0.1224
 2336SOL    HW2 7197   0.289   4.224   4.415  0.0129  0.2117  0.1151
 2337SOL     OW 7198   1.429   1.451   3.197 -0.3424 -0.4555 -0.2571
 2337SOL    HW1 7199   1.357   1.513   3.186 -0.4353 -0.1659  1.6219
 2337SOL    HW2 7200   1.389   1.375   3.240  0.7304  0.4476  2.5297
 2338SOL     OW 7201   1.749   1.450   0.736 -0.1035 -0.3316 -0.6992
 2338SOL    HW1 7202   1.737   1.482   0.646  0.9697 -0.7498 -1.0141
 2338SOL    HW2 7203   1.771   1.358   0.726 -0.7674 -0.5797  0.0543
 2339SOL     OW 7204   1.795   3.759   1.055 -0.3087 -0.2007  0.2776
 2339SOL    HW1 7205   1.735   3.763   0.980 -0.6924  1.8964  0.6472
 2339SOL    HW2 7206   1.824   3.849   1.068 -1.3850 -0.2117  3.5684
 2340SOL     OW 7207   2.917   3.725   4.067 -0.0991 -0.2275 -0.1370
 2340SOL    HW1 7208   2.927   3.649   4.010  0.5956 -0.3551  0.1544
 2340SOL    HW2 7209   2.822   3.739   4.071 -0.5154 -2.9241  2.2517
 2341SOL     OW 7210   0.679   1.300   1.795  0.4788 -0.7352 -0.0446
 2341SOL    HW1 7211   0.717   1.253   1.720  1.2302  0.6366 -0.5656
 2341SOL    HW2 7212   0.755   1.334   1.842 -0.0560 -0.0245  0.3151
 2342SOL     OW 7213   4.656   4.433   4.449 -0.2984 -0.1034  0.5952
 2342SOL    HW1 7214   4.729   4.371   4.444 -1.4805 -1.4534 -2.9402
 2342SOL    HW2 7215   4.689   4.514   4.411 -0.8889 -1.1626 -2.4193
 2343SOL     OW 7216   4.255   0.481   1.943  0.3232  0.1028 -0.3087
 2343SOL    HW1 7217   4.288   0.403   1.897 -0.3024 -0.7027  0.5678
 2343SOL    HW2 7218   4.273   0.553   1.883 -0.6779 -0.9341 -1.9427
 2344SOL     OW 7219   3.294   0.704   3.625  0.4635 -0.2702  0.9662
 2344SOL    HW1 7220   3.271   0.795   3.644  0.7749 -0.1247  0.6535
 2344SOL    HW2 7221   3.325   0.670   3.709  1.2732  0.2042  0.8780
 2345SOL     OW 7222   0.664   0.952   0.287 -0.0334  0.2899 -0.1140
 2345SOL    HW1 7223   0.716   1.023   0.249 -0.6284  2.4735  2.8551
 2345SOL    HW2 7224   0.728   0.885   0.309  0.7239  0.4467 -1.6909
 2346SOL     OW 7225   1.532   0.829   2.515  0.5052  0.6195 -0.0660
 2346SOL    HW1 7226   1.443   0.815   2.547  1.1857 -0.4079  1.4632
 2346SOL    HW2 7227   1.573   0.886   2.580  2.1573 -2.1697  1.5109
 2347SOL     OW 7228   2.431   2.645   4.372 -0.5846  0.5824  0.2466
 2347SOL    HW1 7229   2.391   2.714   4.320  0.1734 -0.0865 -1.2977
 2347SOL    HW2 7230   2.517   2.632   4.333  0.2540  0.4329  2.0552
 2348SOL     OW 7231   3.902   3.352   0.482  0.2533 -0.2647 -0.4642
 2348SOL    HW1 7232   3.809   3.359   0.463  0.0746 -0.7351  0.1815
 2348SOL    HW2 7233   3.946   3.387   0.404 -0.4484 -0.9034 -1.1616
 2349SOL     OW 7234   1.837   2.071   0.415 -0.1843 -0.0323  0.0789
 2349SOL    HW1 7235   1.777   2.124   0.362 -0.6471 -0.0216  0.6127
 2349SOL    HW2 7236   1.923   2.111   0.400 -0.7143  1.8823  1.6639
 2350SOL     OW 7237   3.368   3.025   2.813  0.1099  0.4640  0.1262
 2350SOL    HW1 7238   3.442   3.082   2.833 -1.2526  1.8062  1.7499
 2350SOL    HW2 7239   3.291   3.075   2.842 -1.2829 -1.6337  0.3049
 2351SOL     OW 7240   1.411   4.732   2.427  0.3546  0.2251 -0.2529
 2351SOL    HW1 7241   1.330   4.683   2.440  0.0584  0.3419 -1.5603
 2351SOL    HW2 7242   1.383   4.823   2.417  0.8054  0.5197  0.9865
 2352SOL     OW 7243   2.621   2.791   3.485  0.1596 -0.0449 -0.1637
 2352SOL    HW1 7244   2.624   2.698   3.463  0.7317 -0.2534  0.7683
 2352SOL    HW2 7245   2.694   2.830   3.437 -0.8387  0.1654 -1.5709
 2353SOL     OW 7246   0.139   1.504   4.364  0.5892  0.1927  0.1070
 2353SOL    HW1 7247   0.054   1.473   4.394  0.9645 -1.0407 -0.0220
 2353SOL    HW2 7248   0.129   1.515   4.270  0.4581  0.4388  0.1498
 2354SOL     OW 7249   1.537   0.016   4.128  0.3483  0.0503 -0.3738
 2354SOL    HW1 7250   1.616   0.040   4.176  0.5255  1.1003 -1.1319
 2354SOL    HW2 7251   1.467   0.068   4.168 -0.1922 -1.5982  0.9391
 2355SOL     OW 7252   3.775   4.005   0.880 -0.0927  0.0332  0.3767
 2355SOL    HW1 7253   3.765   4.009   0.785  0.3391 -0.7269  0.2984
 2355SOL    HW2 7254   3.846   3.944   0.895 -0.3297 -0.0573  1.2036
 2356SOL     OW 7255   0.872   0.515   3.904 -0.5104  0.2270 -0.6661
 2356SOL    HW1 7256   0.800   0.518   3.840  0.3618 -0.8847 -1.7598
 2356SOL    HW2 7257   0.937   0.576   3.869 -0.9622  1.4134  0.4481
 2357SOL     OW 7258   4.780   0.161   1.393 -0.2384 -0.1834  0.3080
 2357SOL    HW1 7259   4.711   0.228   1.391 -0.4466 -0.4040 -0.4369
 2357SOL    HW2 7260   4.814   0.164   1.482  0.6094  1.7600 -0.0172
 2358SOL     OW 7261   4.487   2.547   1.538 -0.2934 -0.1954  0.2533
 2358SOL    HW1 7262   4.528   2.468   1.573  3.5313  0.1936 -2.6911
 2358SOL    HW2 7263   4.414   2.515   1.485  1.3607 -1.8962 -1.1335
 2359SOL     OW 7264   2.631   1.714   3.966 -0.3014 -0.1273 -0.0629
 2359SOL    HW1 7265   2.695   1.758   3.909 -0.9904  0.0814 -0.6830
 2359SOL    HW2 7266   2.673   1.715   4.052  0.8924 -0.7197 -0.6089
 2360SOL     OW 7267   4.152   3.316   2.852  0.0892  0.0923  0.6573
 2360SOL    HW1 7268   4.164   3.304   2.947 -3.2636  2.1434  1.5305
 2360SOL    HW2 7269   4.097   3.242   2.826  0.1171  0.1206  0.5196
 2361SOL     OW 7270   2.997   1.388   2.583 -0.3751 -0.5344  0.0169
 2361SOL    HW1 7271   2.926   1.382   2.647 -0.6368  0.0705 -0.2182
 2361SOL    HW2 7272   2.963   1.344   2.506 -0.4010 -0.4592 -0.0143
 2362SOL     OW 7273   3.698   1.869   3.397  0.5040 -0.2295  0.1430
 2362SOL    HW1 7274   3.789   1.866   3.369  0.3279 -0.9925 -0.3703
 2362SOL    HW2 7275   3.668   1.957   3.374  0.7441 -0.3977 -0.8536
 2363SOL     OW 7276   4.926   1.296   3.165 -0.4439  0.1456  0.1589
 2363SOL    HW1 7277   4.929   1.267   3.073  0.8945 -0.7056  0.4377
 2363SOL    HW2 7278   4.981   1.374   3.166 -0.5253  0.2008  0.2087
 2364SOL     OW 7279   1.323   0.111   3.515 -1.1193  0.0518  0.7301
 2364SOL    HW1 7280   1.387   0.076   3.577 -1.6840 -1.0534  0.7066
 2364SOL    HW2 7281   1.366   0.104   3.430 -0.1135  2.1005  1.0016
 2365SOL     OW 7282   4.409   3.367   2.772  0.2514  1.0552  0.6664
 2365SOL    HW1 7283   4.403   3.455   2.735 -0.4261  0.4236 -0.8283
 2365SOL    HW2 7284   4.320   3.349   2.804  0.3661  0.8764  0.8858
 2366SOL     OW 7285   2.531   1.251   4.646  0.2545 -0.4440 -0.4241
 2366SOL    HW1 7286   2.437   1.262   4.629  0.1012  0.3808  0.8428
 2366SOL    HW2 7287   2.557   1.332   4.690  0.9851 -1.7194  1.6000
 2367SOL     OW 7288   1.973   1.807   3.645 -0.2559  0.1466 -0.1441
 2367SOL    HW1 7289   1.904   1.831   3.707 -0.5199 -0.3714 -0.2300
 2367SOL    HW2 7290   2.028   1.884   3.639  0.3924 -0.1430  1.5796
 2368SOL     OW 7291   2.272   3.586   4.212  0.0509  0.1276  0.1359
 2368SOL    HW1 7292   2.265   3.650   4.284 -0.4736  0.2183  0.0030
 2368SOL    HW2 7293   2.287   3.639   4.134 -1.3065  0.1626 -0.1228
 2369SOL     OW 7294   2.608   3.638   2.655 -0.2333 -0.0344  0.4678
 2369SOL    HW1 7295   2.578   3.714   2.605 -0.8532 -0.2308  0.5363
 2369SOL    HW2 7296   2.567   3.647   2.741  0.4243  0.0344  0.7870
 2370SOL     OW 7297   4.064   4.309   1.163  0.0188  0.4366  0.6352
 2370SOL    HW1 7298   4.100   4.397   1.157  0.8786  0.0149 -1.3038
 2370SOL    HW2 7299   3.997   4.306   1.095 -0.2557 -0.2747  0.9364
 2371SOL     OW 7300   2.135   1.692   3.255 -0.3038 -0.5498 -0.1713
 2371SOL    HW1 7301   2.185   1.691   3.173  1.2784 -0.8115  0.7489
 2371SOL    HW2 7302   2.123   1.600   3.277  0.1064 -0.4754  0.3710
 2372SOL     OW 7303   0.858   2.769   0.745  0.1790  0.1362 -0.5636
 2372SOL    HW1 7304   0.880   2.695   0.801  0.5412  0.7427  0.1250
 2372SOL    HW2 7305   0.767   2.754   0.719 -1.0788  1.3019  2.6535
 2373SOL     OW 7306   3.092   3.453   3.278  0.6750  0.4934 -0.3680
 2373SOL    HW1 7307   3.176   3.420   3.246 -0.8823 -2.9297 -1.4729
 2373SOL    HW2 7308   3.061   3.510   3.208  1.3503  0.4739 -0.6956
 2374SOL     OW 7309   3.217   2.269   4.562 -0.1455  0.0991 -0.1773
 2374SOL    HW1 7310   3.269   2.190   4.577 -1.0196 -0.3427  0.6646
 2374SOL    HW2 7311   3.267   2.338   4.605 -0.6385 -0.4757  1.4319
 2375SOL     OW 7312   1.751   3.291   0.628  0.4775 -0.2736  0.6028
 2375SOL    HW1 7313   1.827   3.234   0.643 -0.3502 -1.2466  1.1891
 2375SOL    HW2 7314   1.693   3.239   0.573  1.4412  1.5338 -2.2994
 2376SOL     OW 7315   4.646   3.470   2.527 -0.0397 -0.0348 -0.2832
 2376SOL    HW1 7316   4.629   3.437   2.616 -1.3896  1.0827 -0.0774
 2376SOL    HW2 7317   4.733   3.438   2.506 -0.3577 -1.7725  0.7630
 2377SOL     OW 7318   2.998   1.951   1.432 -0.4708 -0.9047  0.1257
 2377SOL    HW1 7319   3.057   1.932   1.360 -0.2076 -0.4963  0.2254
 2377SOL    HW2 7320   3.043   2.020   1.482 -2.1810  1.3831 -1.2686
 2378SOL     OW 7321   2.780   3.229   0.634  0.6020  0.0736  0.2357
 2378SOL    HW1 7322   2.721   3.303   0.620  1.1217  0.1708 -1.7915
 2378SOL    HW2 7323   2.726   3.162   0.675 -0.6928  0.5113 -0.6857
 2379SOL     OW 7324   0.653   3.683   1.467 -0.7871 -0.4598  0.1497
 2379SOL    HW1 7325   0.638   3.614   1.533 -1.3465  0.6342  1.2057
 2379SOL    HW2 7326   0.565   3.703   1.434 -0.7526  0.4731  0.6114
 2380SOL     OW 7327   0.250   1.583   1.800 -0.0979  0.4617  0.9619
 2380SOL    HW1 7328   0.159   1.580   1.831  0.6484  0.1365  3.2782
 2380SOL    HW2 7329   0.245   1.630   1.717 -2.2288  1.5556  1.6229
 2381SOL     OW 7330   4.607   0.550   0.427  0.3935 -0.1889  0.5196
 2381SOL    HW1 7331   4.535   0.599   0.466  1.4224  0.6675  1.3905
 2381SOL    HW2 7332   4.680   0.612   0.426  1.7356 -1.6824  1.6437
 2382SOL     OW 7333   3.101   3.355   2.456  0.0218 -0.2221 -0.1149
 2382SOL    HW1 7334   3.191   3.373   2.426  0.2808 -0.7850  0.3051
 2382SOL    HW2 7335   3.097   3.260   2.464 -0.8255 -0.2496 -0.7563
 2383SOL     OW 7336   1.043   2.954   2.532 -0.1745 -1.0178 -0.7329
 2383SOL    HW1 7337   1.131   2.988   2.514 -0.2438 -0.3328  0.1333
 2383SOL    HW2 7338   1.049   2.860   2.514  0.6060 -0.9000 -1.1319
 2384SOL     OW 7339   1.196   2.930   3.132  0.0640  0.0916 -0.0427
 2384SOL    HW1 7340   1.275   2.971   3.097 -0.8520  1.3956 -0.6401
 2384SOL    HW2 7341   1.176   2.979   3.212 -0.5328  0.2151 -0.2659
 2385SOL     OW 7342   2.964   0.178   2.821  0.3238  0.6961 -0.2395
 2385SOL    HW1 7343   2.932   0.128   2.897 -0.6691  1.6197 -0.0283
 2385SOL    HW2 7344   2.957   0.270   2.847 -0.1054  1.0366 -1.4754
 2386SOL     OW 7345   4.281   3.982   3.905 -0.1960 -0.1087 -0.1089
 2386SOL    HW1 7346   4.374   3.972   3.887 -0.1442  1.0650 -0.5907
 2386SOL    HW2 7347   4.259   3.907   3.959  0.8142 -0.9179 -0.7846
 2387SOL     OW 7348   1.477   4.175   3.328 -0.2132 -0.4487 -0.3649
 2387SOL    HW1 7349   1.456   4.082   3.341  1.2476 -0.7483  0.0645
 2387SOL    HW2 7350   1.487   4.185   3.234 -1.4023 -0.4760 -0.5070
 2388SOL     OW 7351   1.510   1.378   1.584 -0.1180 -0.3047  0.1197
 2388SOL    HW1 7352   1.527   1.355   1.493  0.0376  2.4306 -0.6464
 2388SOL    HW2 7353   1.595   1.375   1.626  0.2572  0.8281 -0.4993
 2389SOL     OW 7354   0.954   0.723   2.339  0.4279 -0.0502  0.4354
 2389SOL    HW1 7355   0.922   0.776   2.412  0.6691  0.1299  0.4121
 2389SOL    HW2 7356   0.947   0.780   2.263  1.6359  0.3133  0.5750
 2390SOL     OW 7357   2.314   3.806   4.939  0.4347  0.3714  0.5984
 2390SOL    HW1 7358   2.307   3.794   5.033  1.3800  0.5875  0.7059
 2390SOL    HW2 7359   2.224   3.807   4.908  0.0732  1.3326  1.6269
 2391SOL     OW 7360   3.999   1.637   3.915 -0.2501  0.5938 -0.5684
 2391SOL    HW1 7361   3.963   1.569   3.858  1.0786 -0.1447 -0.5498
 2391SOL    HW2 7362   4.079   1.666   3.871  1.5102 -0.8637  1.4360
 2392SOL     OW 7363   4.646   4.655   1.989  0.1765 -0.1386  0.2097
 2392SOL    HW1 7364   4.620   4.712   2.062  0.1228  1.2841 -0.8807
 2392SOL    HW2 7365   4.587   4.679   1.918 -1.2638 -3.0509  0.2693
 2393SOL     OW 7366   4.491   3.195   4.281 -0.4479  0.5056 -0.2137
 2393SOL    HW1 7367   4.515   3.219   4.371 -1.6213 -3.7820  1.4938
 2393SOL    HW2 7368   4.573   3.203   4.232  0.7223  1.0297  1.7044
 2394SOL     OW 7369   4.199   4.562   1.158  0.4094  0.3605  0.4215
 2394SOL    HW1 7370   4.129   4.624   1.175 -0.3443 -0.8239  1.9018
 2394SOL    HW2 7371   4.280   4.613   1.163 -0.2682  1.4761  0.1051
 2395SOL     OW 7372   3.800   3.694   3.848  0.6425 -0.0001 -0.1089
 2395SOL    HW1 7373   3.865   3.764   3.852  2.6796 -1.8201  0.0351
 2395SOL    HW2 7374   3.760   3.702   3.761  2.5171 -0.0775 -1.0079
 2396SOL     OW 7375   4.821   0.578   4.455 -1.0822 -0.2858  0.3682
 2396SOL    HW1 7376   4.726   0.581   4.461 -1.1031  0.2220 -0.1267
 2396SOL    HW2 7377   4.840   0.599   4.364 -0.4889 -0.2081  0.5038
 2397SOL     OW 7378   4.830   4.200   3.642  0.0294 -0.6145 -0.5266
 2397SOL    HW1 7379   4.792   4.130   3.588  0.2605 -0.2468 -1.1811
 2397SOL    HW2 7380   4.904   4.232   3.590 -0.2998  0.3646 -0.4016
 2398SOL     OW 7381   3.879   4.735   4.237  0.3062 -0.3944  0.2277
 2398SOL    HW1 7382   3.956   4.781   4.202 -0.8241 -1.0579 -3.6276
 2398SOL    HW2 7383   3.902   4.643   4.230 -0.7144 -0.5923 -0.8347
 2399SOL     OW 7384   4.387   4.839   1.512 -0.1977  0.3900 -0.1523
 2399SOL    HW1 7385   4.335   4.789   1.575 -0.0902 -0.2609 -0.5680
 2399SOL    HW2 7386   4.429   4.773   1.458  1.0694  0.9102  0.1628
 2400SOL     OW 7387   4.580   0.270   2.839 -0.2260  0.4999 -0.3669
 2400SOL    HW1 7388   4.501   0.303   2.796  1.5584  2.0403 -2.7579
 2400SOL    HW2 7389   4.597   0.333   2.910 -1.3680 -0.1203  0.4757
 2401SOL     OW 7390   3.554   2.566   3.624 -0.1207 -0.3797 -0.3285
 2401SOL    HW1 7391   3.565   2.490   3.682 -4.1587 -0.5314  0.4991
 2401SOL    HW2 7392   3.461   2.587   3.628  0.1253  2.2665 -3.5801
 2402SOL     OW 7393   4.363   1.772   3.169 -0.7657 -0.4831 -0.0894
 2402SOL    HW1 7394   4.314   1.817   3.239 -0.0108 -0.6108  0.5377
 2402SOL    HW2 7395   4.441   1.738   3.213 -0.0413 -0.1617 -1.1042
 2403SOL     OW 7396   1.181   3.762   3.152 -0.6250 -0.5677  1.1449
 2403SOL    HW1 7397   1.252   3.823   3.171 -0.1246 -0.3730 -1.0246
 2403SOL    HW2 7398   1.205   3.682   3.198  0.5147 -0.1988  1.2204
 2404SOL     OW 7399   4.206   0.127   4.092  0.2161 -0.9620 -0.2867
 2404SOL    HW1 7400   4.137   0.191   4.077 -1.0308 -1.7064  1.8912
 2404SOL    HW2 7401   4.287   0.177   4.081 -0.6604  0.3317 -1.2339
 2405SOL     OW 7402   4.480   2.180   3.134 -0.3052  0.4015 -0.9610
 2405SOL    HW1 7403   4.518   2.213   3.215  1.1674  0.0454 -1.4603
 2405SOL    HW2 7404   4.553   2.134   3.091 -1.6066 -1.2978 -1.4708
 2406SOL     OW 7405   4.383   3.746   4.923 -0.7693  0.2206 -0.2372
 2406SOL    HW1 7406   4.288   3.738   4.919 -0.7557  0.4402 -1.7677
 2406SOL    HW2 7407   4.415   3.657   4.913 -0.8162  0.2767 -0.9665
 2407SOL     OW 7408   2.352   0.511   3.493  0.1004 -0.0912  0.0616
 2407SOL    HW1 7409   2.426   0.462   3.529 -0.2674 -0.8779 -0.2260
 2407SOL    HW2 7410   2.359   0.598   3.532  0.2951 -0.6126  1.2195
 2408SOL     OW 7411   1.592   3.384   1.571 -0.2513  0.1568  0.3578
 2408SOL    HW1 7412   1.641   3.334   1.637 -0.5466  0.2521  0.6528
 2408SOL    HW2 7413   1.517   3.329   1.549 -0.2136  0.1747  0.1856
 2409SOL     OW 7414   0.225   1.661   2.219 -0.7807  0.2198  0.0985
 2409SOL    HW1 7415   0.189   1.580   2.256  0.5178 -0.6336 -0.4332
 2409SOL    HW2 7416   0.265   1.705   2.294  0.3969 -0.6970  0.0261
 2410SOL     OW 7417   2.415   2.860   4.624 -0.5178 -0.1049 -0.2616
 2410SOL    HW1 7418   2.501   2.820   4.615 -0.9702 -1.5031  1.1990
 2410SOL    HW2 7419   2.356   2.803   4.574 -0.8059  0.0943 -0.1514
 2411SOL     OW 7420   0.819   2.261   4.770 -0.1417 -0.4672 -0.1133
 2411SOL    HW1 7421   0.813   2.210   4.689  0.1024 -1.2751  0.3723
 2411SOL    HW2 7422   0.903   2.237   4.808 -0.7935 -1.0532  1.0166
 2412SOL     OW 7423   4.801   0.996   3.571  0.6479  0.2204 -0.0801
 2412SOL    HW1 7424   4.748   1.069   3.603  0.1988  0.1780 -0.7021
 2412SOL    HW2 7425   4.737   0.929   3.548  0.9835  0.1003 -0.6679
 2413SOL     OW 7426   3.456   4.345   4.623  0.3118  0.0778 -0.7092
 2413SOL    HW1 7427   3.386   4.348   4.558  0.0560 -0.1411 -0.4429
 2413SOL    HW2 7428   3.518   4.413   4.593  0.3025 -0.1613 -1.2931
 2414SOL     OW 7429   2.476   3.092   2.985  0.1503 -0.4583 -0.8973
 2414SOL    HW1 7430   2.487   3.185   2.966  0.2714 -0.4992 -1.0262
 2414SOL    HW2 7431   2.522   3.079   3.068 -0.1349 -0.3389 -0.7199
 2415SOL     OW 7432   3.441   1.132   2.544  0.2795 -0.3123  0.4746
 2415SOL    HW1 7433   3.455   1.042   2.571 -0.9240 -0.3513  1.0559
 2415SOL    HW2 7434   3.361   1.158   2.589  1.0686  1.3357  1.0099
 2416SOL     OW 7435   4.291   4.784   1.993 -0.3473  0.8537  0.0000
 2416SOL    HW1 7436   4.298   4.879   2.006 -0.6768  1.1602 -1.8541
 2416SOL    HW2 7437   4.295   4.748   2.082  3.6272  2.3010  0.6284
 2417SOL     OW 7438   2.821   2.290   3.454 -0.4759  0.2089  0.7525
 2417SOL    HW1 7439   2.843   2.358   3.390  0.4512 -0.4396  0.3626
 2417SOL    HW2 7440   2.834   2.208   3.407 -0.3560 -0.2672  1.5972
 2418SOL     OW 7441   1.993   1.325   1.495  0.5450 -0.4157 -0.5229
 2418SOL    HW1 7442   2.045   1.327   1.575  0.6554 -0.1308 -0.6002
 2418SOL    HW2 7443   2.054   1.351   1.426  1.1697 -3.1097 -1.1289
 2419SOL     OW 7444   3.775   0.297   0.813  0.0448 -0.5969  0.5086
 2419SOL    HW1 7445   3.720   0.262   0.883 -0.2455  1.5887  1.4474
 2419SOL    HW2 7446   3.865   0.282   0.843 -0.0534 -1.2600  0.4891
 2420SOL     OW 7447   1.834   1.508   0.465 -0.2653  0.2315 -0.1500
 2420SOL    HW1 7448   1.815   1.602   0.470  0.3821  0.4668 -1.6929
 2420SOL    HW2 7449   1.930   1.504   0.460 -0.3425 -0.4406 -1.2162
 2421SOL     OW 7450   2.480   2.018   4.369 -0.2400  0.7866 -0.1279
 2421SOL    HW1 7451   2.389   1.992   4.382 -0.1526  0.5183 -0.0523
 2421SOL    HW2 7452   2.482   2.059   4.283  0.1442 -1.8429 -1.4594
 2422SOL     OW 7453   0.551   0.739   1.719 -0.1012  0.2077  0.0693
 2422SOL    HW1 7454   0.486   0.708   1.656  0.5217  0.1818 -0.5854
 2422SOL    HW2 7455   0.519   0.825   1.747 -0.9079 -0.2310  0.5031
 2423SOL     OW 7456   4.710   4.817   3.044  0.3257  0.4686  0.3108
 2423SOL    HW1 7457   4.724   4.733   3.088 -0.8369  0.0940  0.0242
 2423SOL    HW2 7458   4.747   4.882   3.103  1.0645 -0.2285  0.6313
 2424SOL     OW 7459   1.972   1.623   4.827  0.1874 -0.0158 -0.0682
 2424SOL    HW1 7460   2.000   1.554   4.767  0.0601  0.4242 -0.6539
 2424SOL    HW2 7461   1.906   1.583   4.883 -2.3245  0.4063 -2.5163
 2425SOL     OW 7462   1.551   2.798   1.660 -0.5436 -0.0017 -0.4908
 2425SOL    HW1 7463   1.623   2.841   1.614 -1.3252  2.8385  0.7180
 2425SOL    HW2 7464   1.592   2.762   1.739 -0.0388 -0.6758 -1.0460
 2426SOL     OW 7465   2.946   2.609   1.545  0.0148  0.1221 -0.2834
 2426SOL    HW1 7466   2.972   2.659   1.622  2.2873 -0.7657 -0.3847
 2426SOL    HW2 7467   3.017   2.546   1.532 -1.3142 -1.1547 -1.8826
 2427SOL     OW 7468   0.044   1.899   1.208  0.0089  0.4268 -0.2589
 2427SOL    HW1 7469  -0.008   1.913   1.288 -0.5894 -3.3181  0.1864
 2427SOL    HW2 7470   0.017   1.813   1.177  1.4592  1.0378 -3.6431
 2428SOL     OW 7471   2.889   1.215   4.047 -0.3425  0.5099 -0.1676
 2428SOL    HW1 7472   2.968   1.161   4.044 -0.7711 -0.1086 -0.3236
 2428SOL    HW2 7473   2.886   1.258   3.961 -0.6951 -0.2131 -0.5214
 2429SOL     OW 7474   3.764   1.609   1.224  0.0516  0.3364  0.2251
 2429SOL    HW1 7475   3.678   1.567   1.214 -0.4048  1.0687  0.9270
 2429SOL    HW2 7476   3.752   1.697   1.188  1.1199 -0.2294 -1.6319
 2430SOL     OW 7477   0.030   0.456   0.076 -0.3286  0.0096  0.0877
 2430SOL    HW1 7478  -0.023   0.390   0.032  1.4839 -0.6140 -1.2794
 2430SOL    HW2 7479   0.110   0.462   0.024  2.3145 -1.2547  3.6043
 2431SOL     OW 7480   2.596   4.775   2.795  0.1245 -0.0916 -0.0541
 2431SOL    HW1 7481   2.529   4.836   2.765  0.2182 -0.3366 -0.7902
 2431SOL    HW2 7482   2.647   4.755   2.716  0.9679 -0.0212  0.4678
 2432SOL     OW 7483   2.683   4.135   4.061  0.2846  0.2531  0.4248
 2432SOL    HW1 7484   2.707   4.198   4.129 -0.1915  0.8759  0.0234
 2432SOL    HW2 7485   2.592   4.157   4.038 -0.1915 -1.1250  0.8807
 2433SOL     OW 7486   0.408   2.223   1.441 -0.0096  0.3954  0.0325
 2433SOL    HW1 7487   0.326   2.259   1.474 -0.2417  0.3776 -0.5133
 2433SOL    HW2 7488   0.381   2.149   1.387  0.4065 -0.0069  0.3659
 2434SOL     OW 7489   1.783   0.806   1.606 -0.1234 -0.1754  0.1202
 2434SOL    HW1 7490   1.737   0.889   1.596 -0.2459 -0.2645 -0.0507
 2434SOL    HW2 7491   1.822   0.811   1.694 -0.8241 -0.2808  0.4416
 2435SOL     OW 7492   3.583   4.404   4.359 -0.3431 -0.7225 -0.8280
 2435SOL    HW1 7493   3.584   4.499   4.360 -2.2629 -0.6529 -1.7847
 2435SOL    HW2 7494   3.490   4.381   4.359  0.0473 -2.6433  1.1057
 2436SOL     OW 7495   1.725   4.327   2.328  0.4640  0.0781 -0.4348
 2436SOL    HW1 7496   1.773   4.354   2.249  0.2396 -1.3973 -1.1154
 2436SOL    HW2 7497   1.643   4.290   2.295 -0.3740  0.9197  0.6162
 2437SOL     OW 7498   1.093   2.621   3.499 -0.2092  0.3038 -0.1243
 2437SOL    HW1 7499   1.187   2.631   3.508 -0.2803 -0.0973  1.2781
 2437SOL    HW2 7500   1.078   2.619   3.405  0.8402  3.4487 -0.4637
 2438SOL     OW 7501   0.919   2.571   0.921 -0.8161  0.0711 -0.2038
 2438SOL    HW1 7502   0.841   2.519   0.900 -0.5264 -0.1084 -0.8400
 2438SOL    HW2 7503   0.936   2.552   1.013  0.2072 -2.2134 -0.7968
 2439SOL     OW 7504   0.410   2.807   4.797 -0.4307 -0.5253 -0.1816
 2439SOL    HW1 7505   0.342   2.850   4.745  0.0792 -1.3241 -1.5626
 2439SOL    HW2 7506   0.455   2.750   4.734  0.8701 -0.7518  0.9324
 2440SOL     OW 7507   0.928   1.846   4.665 -0.4680  0.2161 -0.3882
 2440SOL    HW1 7508   1.018   1.878   4.655 -0.4995  0.3595 -0.2061
 2440SOL    HW2 7509   0.927   1.806   4.752  0.3511 -2.7422 -1.5790
 2441SOL     OW 7510   1.982   4.762   2.129 -0.5520  0.2964 -0.1500
 2441SOL    HW1 7511   2.062   4.812   2.143 -0.7131  0.4243  0.3333
 2441SOL    HW2 7512   1.929   4.778   2.207 -0.6366 -0.5821 -0.0205
 2442SOL     OW 7513   1.692   2.958   2.120 -0.4315  0.1701  0.3916
 2442SOL    HW1 7514   1.631   3.020   2.160 -0.1004  1.1406 -0.5532
 2442SOL    HW2 7515   1.695   2.884   2.181 -0.7694  1.1199  1.6008
 2443SOL     OW 7516   2.635   4.648   1.707  0.0742 -0.2665 -0.0035
 2443SOL    HW1 7517   2.703   4.586   1.731  1.2542 -0.3090 -3.0398
 2443SOL    HW2 7518   2.669   4.734   1.734 -0.1299 -0.5952  1.3322
 2444SOL     OW 7519   3.267   3.573   1.142  0.4004  0.3402 -0.1665
 2444SOL    HW1 7520   3.207   3.647   1.139 -1.8222 -1.3981 -1.6365
 2444SOL    HW2 7521   3.239   3.522   1.218 -0.1424 -0.5795 -0.9684
 2445SOL     OW 7522   0.024   4.434   2.816  0.2100  0.2497 -0.0563
 2445SOL    HW1 7523   0.079   4.401   2.888  0.1378 -2.3324 -1.0840
 2445SOL    HW2 7524   0.086   4.476   2.756  0.9946 -1.7474 -0.7131
 2446SOL     OW 7525   1.239   1.410   0.356 -0.6218 -0.7086 -0.1818
 2446SOL    HW1 7526   1.261   1.455   0.438 -0.3099  0.1406 -0.7271
 2446SOL    HW2 7527   1.246   1.477   0.289 -2.9220 -0.8767 -0.6707
 2447SOL     OW 7528   1.679   4.429   4.432  0.4578 -0.4749  0.8982
 2447SOL    HW1 7529   1.642   4.502   4.382 -2.7627  0.0711  3.6550
 2447SOL    HW2 7530   1.695   4.361   4.367 -0.6252  1.1712 -1.2184
 2448SOL     OW 7531   4.777   0.237   1.029 -0.1425  0.1641 -0.6443
 2448SOL    HW1 7532   4.683   0.250   1.041 -0.1870 -0.5162 -0.1988
 2448SOL    HW2 7533   4.786   0.199   0.942 -0.4309 -1.3031 -0.0464
 2449SOL     OW 7534   4.607   0.368   1.459 -0.1982 -0.0758 -0.6772
 2449SOL    HW1 7535   4.590   0.422   1.382 -1.7144  1.3203  0.5450
 2449SOL    HW2 7536   4.542   0.397   1.523  1.9825 -0.0239  1.7017
 2450SOL     OW 7537   2.672   4.591   4.818 -0.4638  0.4791 -0.0571
 2450SOL    HW1 7538   2.676   4.657   4.749  1.4270  1.8645  1.2612
 2450SOL    HW2 7539   2.722   4.517   4.784 -0.5203  0.6900 -0.6003
 2451SOL     OW 7540   0.794   3.325   2.040  0.2793  0.7791  0.0613
 2451SOL    HW1 7541   0.846   3.373   1.976 -1.6596  3.7506  0.5110
 2451SOL    HW2 7542   0.745   3.262   1.988  0.4463  1.5505 -1.0773
 2452SOL     OW 7543   2.046   4.119   2.580 -0.0478  0.6685 -0.7479
 2452SOL    HW1 7544   2.075   4.205   2.608  0.0307 -0.3343  2.7192
 2452SOL    HW2 7545   2.126   4.071   2.558  0.1223  0.7692 -0.3495
 2453SOL     OW 7546   4.786   0.314   0.571 -0.5087 -0.1178 -0.2343
 2453SOL    HW1 7547   4.780   0.410   0.567 -1.7449 -0.1882 -0.7725
 2453SOL    HW2 7548   4.833   0.290   0.491 -0.9253  0.0129 -0.5294
 2454SOL     OW 7549   4.165   0.950   1.832  0.2398 -0.8355 -0.3097
 2454SOL    HW1 7550   4.254   0.984   1.833  0.0386 -0.2938 -0.5016
 2454SOL    HW2 7551   4.114   1.018   1.788 -0.3676 -0.8788  0.3138
 2455SOL     OW 7552   0.703   4.031   1.917  0.3672  0.4557  0.3552
 2455SOL    HW1 7553   0.700   3.957   1.978 -1.4138  0.0307 -0.1879
 2455SOL    HW2 7554   0.779   4.082   1.946  0.2679 -0.3363  2.2034
 2456SOL     OW 7555   0.489   4.684   1.616 -0.0129 -0.3053  0.8491
 2456SOL    HW1 7556   0.549   4.729   1.675 -0.4218  0.6766  0.5376
 2456SOL    HW2 7557   0.543   4.657   1.542  0.3146 -0.7032  1.2284
 2457SOL     OW 7558   3.865   4.920   3.825 -0.5799 -0.2601 -0.2019
 2457SOL    HW1 7559   3.883   4.842   3.877  1.5046  0.8490  0.8155
 2457SOL    HW2 7560   3.942   4.930   3.769 -0.2212  1.7566  0.5881
 2458SOL     OW 7561   0.115   4.632   0.197  0.1700 -0.5792  0.1030
 2458SOL    HW1 7562   0.174   4.647   0.270 -0.0489 -1.3307  0.4417
 2458SOL    HW2 7563   0.122   4.539   0.178  1.0355 -0.2256 -1.5443
 2459SOL     OW 7564   4.878   4.113   2.360 -0.2608  0.4164  0.9481
 2459SOL    HW1 7565   4.832   4.188   2.397  0.6484  1.2994  0.3450
 2459SOL    HW2 7566   4.949   4.151   2.308  0.3744 -0.8631  0.8202
 2460SOL     OW 7567   4.434   2.159   2.120  0.4247 -0.7423 -0.0618
 2460SOL    HW1 7568   4.401   2.101   2.052  0.0280 -0.1911 -0.3462
 2460SOL    HW2 7569   4.374   2.233   2.120  0.4111 -0.7391  0.9015
 2461SOL     OW 7570   2.627   4.716   4.160  0.1654 -0.1830  0.2107
 2461SOL    HW1 7571   2.676   4.653   4.212  1.6134  1.0910  0.4717
 2461SOL    HW2 7572   2.667   4.711   4.073  0.1046  0.1743  0.1625
 2462SOL     OW 7573   2.835   0.668   3.020  0.7419  0.2737  0.1170
 2462SOL    HW1 7574   2.776   0.678   3.095  0.0170 -1.1936 -0.2280
 2462SOL    HW2 7575   2.922   0.688   3.055  0.2561  0.9229  1.0074
 2463SOL     OW 7576   1.842   2.335   4.475 -0.3518 -0.1236  0.2226
 2463SOL    HW1 7577   1.837   2.346   4.380 -0.4598 -1.3580  0.0680
 2463SOL    HW2 7578   1.928   2.367   4.499 -0.3134  0.1693 -0.3052
 2464SOL     OW 7579   1.466   1.246   1.981  0.3454 -0.0465 -0.2091
 2464SOL    HW1 7580   1.481   1.226   2.074  1.0388 -0.1226 -0.3335
 2464SOL    HW2 7581   1.505   1.172   1.935 -2.5561 -1.5596 -0.5061
 2465SOL     OW 7582   4.822   0.997   0.471  0.4202  0.0330 -0.5958
 2465SOL    HW1 7583   4.816   0.903   0.452  0.4710  0.0191 -0.5441
 2465SOL    HW2 7584   4.737   1.019   0.510  0.4160  0.0035 -0.5879
 2466SOL     OW 7585   4.175   0.096   2.968  0.0462  0.0775  0.2511
 2466SOL    HW1 7586   4.153   0.029   2.903  1.0658 -0.1292  0.0988
 2466SOL    HW2 7587   4.218   0.165   2.917  0.4020  0.1399  0.6315
 2467SOL     OW 7588   4.023   1.680   4.595  0.4300 -0.2673  0.1366
 2467SOL    HW1 7589   4.061   1.766   4.611 -1.9015  1.2763 -1.7923
 2467SOL    HW2 7590   4.078   1.641   4.527  1.5226 -0.3603  1.0517
 2468SOL     OW 7591   2.741   1.518   3.753 -0.8844 -0.0524  0.2370
 2468SOL    HW1 7592   2.674   1.576   3.789 -0.1209  1.5323 -0.7891
 2468SOL    HW2 7593   2.696   1.470   3.684 -1.7412 -1.3654  1.6511
 2469SOL     OW 7594   0.489   3.946   3.134  0.1938 -0.1961 -0.2867
 2469SOL    HW1 7595   0.566   4.002   3.133 -0.1218  0.3256  1.2911
 2469SOL    HW2 7596   0.518   3.864   3.094  0.8526  0.8261 -2.0092
 2470SOL     OW 7597   1.642   1.032   2.670 -0.1077  0.0570  0.2493
 2470SOL    HW1 7598   1.568   1.000   2.723  1.1332 -1.8295  0.9358
 2470SOL    HW2 7599   1.652   1.124   2.696 -2.0606  0.3016  0.2904
 2471SOL     OW 7600   4.210   2.868   1.770  0.3702  0.1046 -0.1985
 2471SOL    HW1 7601   4.166   2.787   1.794  0.7485 -0.4033 -1.1659
 2471SOL    HW2 7602   4.186   2.929   1.839 -1.7804 -0.1576 -0.6384
 2472SOL     OW 7603   0.505   1.990   2.746  0.1207 -0.2235  0.2038
 2472SOL    HW1 7604   0.448   2.033   2.810  0.6019 -0.1088  0.5634
 2472SOL    HW2 7605   0.496   1.897   2.764  1.2825 -0.1380  1.3465
 2473SOL     OW 7606   0.812   3.934   2.244 -0.0591 -0.6780  0.9113
 2473SOL    HW1 7607   0.847   3.952   2.331 -0.8252 -1.8380  1.4890
 2473SOL    HW2 7608   0.889   3.934   2.186  0.2246  2.2918  1.1501
 2474SOL     OW 7609   3.624   4.518   1.728 -0.4697 -0.5901 -0.3461
 2474SOL    HW1 7610   3.651   4.609   1.716 -3.1212  0.3138 -0.1233
 2474SOL    HW2 7611   3.690   4.481   1.788  1.5667  0.6456 -1.7175
 2475SOL     OW 7612   0.878   1.416   4.625  0.2376  0.2329 -0.1493
 2475SOL    HW1 7613   0.807   1.464   4.667 -1.1693 -1.2067 -0.7776
 2475SOL    HW2 7614   0.856   1.415   4.532  0.8471 -0.5708 -0.3014
 2476SOL     OW 7615   3.267   2.637   3.647 -0.1531 -0.0093  0.3001
 2476SOL    HW1 7616   3.189   2.629   3.702  0.9859  0.3778  2.0398
 2476SOL    HW2 7617   3.233   2.644   3.558 -2.0522 -0.9370  0.9031
 2477SOL     OW 7618   1.677   2.503   2.045 -0.7334  0.0625 -0.1454
 2477SOL    HW1 7619   1.707   2.519   2.135  0.7137  1.1612 -0.7857
 2477SOL    HW2 7620   1.582   2.517   2.049 -0.5574  1.1902  0.9958
 2478SOL     OW 7621   1.379   2.116   0.109 -0.5225 -0.1788  0.4807
 2478SOL    HW1 7622   1.314   2.128   0.177  0.4631 -0.2514  1.4614
 2478SOL    HW2 7623   1.430   2.040   0.137 -0.4322 -0.5492 -0.6148
 2479SOL     OW 7624   0.969   4.103   0.994  0.3405  0.0937  0.1904
 2479SOL    HW1 7625   0.886   4.107   0.946  0.4284 -0.4969 -0.0104
 2479SOL    HW2 7626   0.954   4.040   1.064  0.5067  0.2695  0.3883
 2480SOL     OW 7627   3.057   1.243   3.008 -0.5794  0.1166 -0.1299
 2480SOL    HW1 7628   3.119   1.315   3.023 -1.4231  0.6562  0.9066
 2480SOL    HW2 7629   3.075   1.181   3.078 -1.4916  0.4856  0.4447
 2481SOL     OW 7630   0.603   0.799   2.085 -0.0367  0.3894 -0.1438
 2481SOL    HW1 7631   0.511   0.825   2.080 -0.2220 -0.3629 -1.1478
 2481SOL    HW2 7632   0.646   0.852   2.018 -0.1202 -0.6480 -1.0527
 2482SOL     OW 7633   1.602   1.018   1.857  0.0904 -0.0926  0.1042
 2482SOL    HW1 7634   1.696   1.035   1.870  0.4664 -0.0730 -2.1988
 2482SOL    HW2 7635   1.596   0.923   1.846  0.4649  0.1786 -3.3984
 2483SOL     OW 7636   2.385   0.229   2.457 -0.3167 -0.4356 -0.0161
 2483SOL    HW1 7637   2.391   0.189   2.543 -0.6216 -0.5735 -0.0565
 2483SOL    HW2 7638   2.310   0.288   2.463 -2.3147 -2.6822 -1.0519
 2484SOL     OW 7639   4.200   2.768   0.297 -0.3714 -0.3449  0.6668
 2484SOL    HW1 7640   4.198   2.752   0.203  0.7060  1.3243  0.3176
 2484SOL    HW2 7641   4.261   2.841   0.308  0.7830 -1.5242  2.8279
 2485SOL     OW 7642   3.299   4.110   0.409 -0.0119  0.2723 -0.0149
 2485SOL    HW1 7643   3.304   4.067   0.494  0.4093 -0.1072 -0.2218
 2485SOL    HW2 7644   3.353   4.055   0.352 -0.1882  0.5913 -0.4952
 2486SOL     OW 7645   1.516   0.123   3.858 -0.5941  0.0826 -0.3701
 2486SOL    HW1 7646   1.435   0.170   3.877 -0.8943 -0.3058 -0.6617
 2486SOL    HW2 7647   1.546   0.092   3.943 -1.9059 -1.6195 -0.4783
 2487SOL     OW 7648   2.632   0.758   0.911  0.1011 -0.3074  0.4657
 2487SOL    HW1 7649   2.591   0.777   0.827 -1.6993 -0.8915  1.1601
 2487SOL    HW2 7650   2.723   0.739   0.890 -0.4289 -0.9619 -1.4101
 2488SOL     OW 7651   2.375   0.540   2.298 -0.1395  0.0613 -0.0142
 2488SOL    HW1 7652   2.345   0.598   2.367 -1.1502 -1.1240  0.5942
 2488SOL    HW2 7653   2.297   0.524   2.244  0.2179 -0.3987 -0.4085
 2489SOL     OW 7654   3.735   4.660   3.427 -0.0018 -0.3152  0.4048
 2489SOL    HW1 7655   3.671   4.699   3.487 -1.1861  0.5370 -1.3259
 2489SOL    HW2 7656   3.699   4.573   3.409 -0.8977  0.2903 -0.8333
 2490SOL     OW 7657   0.326   1.765   2.493 -0.1121  0.3246 -0.2063
 2490SOL    HW1 7658   0.246   1.726   2.529  0.6407  0.3997  1.6519
 2490SOL    HW2 7659   0.337   1.846   2.542  0.9866  0.4169 -0.5805
 2491SOL     OW 7660   0.439   2.718   3.560  0.2750 -0.3886 -0.1014
 2491SOL    HW1 7661   0.477   2.754   3.479 -1.7643 -0.0226 -0.9402
 2491SOL    HW2 7662   0.429   2.625   3.542  0.0762 -0.3544 -0.1683
 2492SOL     OW 7663   2.670   3.894   3.517  0.4537  0.0921 -0.2370
 2492SOL    HW1 7664   2.651   3.899   3.611 -0.2554 -0.0882 -0.3619
 2492SOL    HW2 7665   2.639   3.808   3.491  0.1935  0.3318 -0.7351
 2493SOL     OW 7666   0.034   1.392   1.565  0.0789 -0.3915  0.2264
 2493SOL    HW1 7667  -0.041   1.451   1.576  0.1944  0.1752 -1.6830
 2493SOL    HW2 7668   0.069   1.383   1.654  0.3846  2.8876  0.5801
 2494SOL     OW 7669   3.737   1.932   0.143  0.1010  0.2420 -0.8378
 2494SOL    HW1 7670   3.725   2.021   0.178 -2.3239 -0.2797 -0.1591
 2494SOL    HW2 7671   3.668   1.923   0.077  0.4019 -1.0752 -0.9973
 2495SOL     OW 7672   2.770   0.874   0.177  0.1394  0.6539 -0.2663
 2495SOL    HW1 7673   2.846   0.817   0.175 -0.7312 -0.5439 -0.5600
 2495SOL    HW2 7674   2.738   0.874   0.087  0.2450  1.7915 -0.3147
 2496SOL     OW 7675   3.642   0.159   3.655  0.5497  0.1596  0.3123
 2496SOL    HW1 7676   3.602   0.203   3.579  1.2709  0.5031  0.1183
 2496SOL    HW2 7677   3.637   0.066   3.634  0.7146  0.2516 -0.1460
 2497SOL     OW 7678   3.601   4.499   0.516 -0.3502 -0.7694  0.3863
 2497SOL    HW1 7679   3.509   4.510   0.489 -0.5802 -1.4263  0.8834
 2497SOL    HW2 7680   3.629   4.588   0.538 -0.6038 -0.4330 -0.5666
 2498SOL     OW 7681   1.889   2.164   4.066  0.5355  0.3779  0.5338
 2498SOL    HW1 7682   1.931   2.154   3.981  1.1787  1.4603  0.6968
 2498SOL    HW2 7683   1.796   2.147   4.050  0.7045  0.2197 -0.3044
 2499SOL     OW 7684   1.430   4.462   2.592 -0.3034 -0.0448 -0.0492
 2499SOL    HW1 7685   1.425   4.366   2.597  1.4103 -0.2138 -0.8324
 2499SOL    HW2 7686   1.343   4.488   2.562 -1.5746 -1.1213  2.3365
 2500SOL     OW 7687   0.122   1.478   0.875  0.4813 -0.1358 -0.4620
 2500SOL    HW1 7688   0.157   1.561   0.905  1.6076 -0.3380 -1.1708
 2500SOL    HW2 7689   0.149   1.471   0.783 -1.6100 -0.2120 -1.1353
 2501SOL     OW 7690   2.134   0.762   1.139 -0.7266 -0.1794 -0.5272
 2501SOL    HW1 7691   2.157   0.764   1.046  0.3801 -1.3479 -0.3077
 2501SOL    HW2 7692   2.116   0.854   1.161  0.6102  0.3668 -1.5226
 2502SOL     OW 7693   0.781   3.620   4.591  0.4329  0.2229 -0.3068
 2502SOL    HW1 7694   0.818   3.704   4.617 -1.8035  0.7197  1.6494
 2502SOL    HW2 7695   0.783   3.567   4.670 -1.8702 -0.0936 -0.3958
 2503SOL     OW 7696   3.977   4.513   0.298  0.0601 -0.4761  0.5430
 2503SOL    HW1 7697   3.987   4.591   0.243 -2.1163  0.4867  1.3977
 2503SOL    HW2 7698   3.957   4.443   0.236 -0.2492  0.1353 -0.0693
 2504SOL     OW 7699   3.332   4.498   0.410  0.0548 -0.1045 -0.2945
 2504SOL    HW1 7700   3.329   4.544   0.326 -3.0773 -1.0717 -0.8462
 2504SOL    HW2 7701   3.322   4.405   0.387  1.4151 -0.6415  1.0790
 2505SOL     OW 7702   3.065   3.260   0.211  0.2973 -0.1912 -0.2121
 2505SOL    HW1 7703   3.160   3.266   0.203  0.5011 -1.9698  0.6164
 2505SOL    HW2 7704   3.036   3.229   0.125  0.1842  2.4211 -1.2150
 2506SOL     OW 7705   3.238   4.462   0.809  0.3715  0.3682  0.0169
 2506SOL    HW1 7706   3.241   4.539   0.866  2.3156  0.3828 -0.0644
 2506SOL    HW2 7707   3.319   4.467   0.758  0.0563 -1.2221 -0.6839
 2507SOL     OW 7708   3.320   3.128   1.126  0.2034  0.5980 -0.3328
 2507SOL    HW1 7709   3.371   3.108   1.047 -0.4249 -0.6363 -0.4398
 2507SOL    HW2 7710   3.251   3.063   1.127  0.6107  0.1522  1.6339
 2508SOL     OW 7711   2.440   3.708   2.879  0.6581  0.0583  0.2072
 2508SOL    HW1 7712   2.381   3.634   2.893  1.4483 -0.4833  0.7997
 2508SOL    HW2 7713   2.383   3.782   2.859 -0.1799 -0.5717  0.2436
 2509SOL     OW 7714   2.109   2.773   3.368 -0.5736 -0.0832  0.0052
 2509SOL    HW1 7715   2.180   2.751   3.429 -0.0865 -0.9040 -0.8122
 2509SOL    HW2 7716   2.135   2.858   3.332 -0.9392  0.4759  1.0250
 2510SOL     OW 7717   4.512   4.827   2.565 -0.2279  0.5258 -0.0534
 2510SOL    HW1 7718   4.565   4.867   2.635  0.2430  0.3507 -0.3097
 2510SOL    HW2 7719   4.522   4.733   2.578 -0.5365  0.4917 -0.0603
 2511SOL     OW 7720   2.787   1.989   0.433 -0.0607 -0.3292  1.1359
 2511SOL    HW1 7721   2.882   1.999   0.445  0.0174 -1.2761  1.3621
 2511SOL    HW2 7722   2.767   1.903   0.470 -0.9619 -0.2697  0.8056
 2512SOL     OW 7723   0.585   0.328   4.317 -0.1278 -0.2210  0.2207
 2512SOL    HW1 7724   0.559   0.330   4.225  0.6330  0.8037  0.0134
 2512SOL    HW2 7725   0.507   0.299   4.363 -0.9142  0.4897 -0.6168
 2513SOL     OW 7726   1.034   2.356   3.985  0.6500  0.0828 -0.4015
 2513SOL    HW1 7727   1.025   2.261   3.979 -1.6134  0.2029  0.1037
 2513SOL    HW2 7728   0.972   2.389   3.920 -0.4939  1.1942  1.1881
 2514SOL     OW 7729   3.662   3.359   2.375 -0.0058  0.3562  0.3372
 2514SOL    HW1 7730   3.700   3.428   2.430 -2.0873  2.2905 -0.4943
 2514SOL    HW2 7731   3.731   3.340   2.311  0.9454  1.0272  1.1341
 2515SOL     OW 7732   2.662   1.595   0.236  0.2902  0.0255  0.4220
 2515SOL    HW1 7733   2.669   1.500   0.226  0.2102  0.1867 -1.5573
 2515SOL    HW2 7734   2.568   1.613   0.231  0.3043  0.2087  0.7937
 2516SOL     OW 7735   1.469   1.857   2.417  0.6141 -0.0976 -0.0791
 2516SOL    HW1 7736   1.406   1.787   2.433 -0.4477  0.9872  0.7050
 2516SOL    HW2 7737   1.488   1.892   2.505 -1.1550  2.4843 -0.6078
 2517SOL     OW 7738   4.229   4.703   1.732 -0.3806 -0.1868  0.2606
 2517SOL    HW1 7739   4.210   4.610   1.726 -2.8435  0.2765 -0.3776
 2517SOL    HW2 7740   4.278   4.713   1.814  1.2855 -2.1857 -0.4285
 2518SOL     OW 7741   4.280   2.410   3.241 -0.2277  0.5212 -0.4716
 2518SOL    HW1 7742   4.359   2.426   3.190  1.6838 -0.2969  2.0030
 2518SOL    HW2 7743   4.254   2.496   3.273  0.0607  0.7192 -0.7700
 2519SOL     OW 7744   1.013   2.136   2.498  0.2993 -0.7235  0.1411
 2519SOL    HW1 7745   0.966   2.054   2.482 -0.0393 -0.7820  1.3486
 2519SOL    HW2 7746   1.087   2.133   2.436 -0.9247 -0.8910 -1.3871
 2520SOL     OW 7747   2.265   4.635   2.009 -0.3323  0.5756  0.8694
 2520SOL    HW1 7748   2.317   4.596   1.939 -0.5834 -0.5971  1.2978
 2520SOL    HW2 7749   2.255   4.726   1.985  1.5068  0.7234  0.5208
 2521SOL     OW 7750   3.348   0.785   1.072 -0.3629  0.2264  0.8312
 2521SOL    HW1 7751   3.284   0.852   1.051  0.5926  1.2525  1.0962
 2521SOL    HW2 7752   3.418   0.798   1.008  0.0452 -0.2172  1.1794
 2522SOL     OW 7753   0.558   3.922   4.254 -0.1797  0.5749 -0.0585
 2522SOL    HW1 7754   0.474   3.883   4.230  0.1141  1.2883 -2.5549
 2522SOL    HW2 7755   0.547   4.016   4.234  0.8701  0.8427  0.5704
 2523SOL     OW 7756   2.872   4.139   0.086 -0.1730  0.3827 -0.5027
 2523SOL    HW1 7757   2.911   4.226   0.078 -2.5281  1.4273 -1.6914
 2523SOL    HW2 7758   2.839   4.136   0.176  1.7752 -0.1768  0.2307
 2524SOL     OW 7759   3.841   2.491   2.021  0.4029  0.4350  1.0420
 2524SOL    HW1 7760   3.846   2.435   2.099 -0.9944 -1.8416 -0.3895
 2524SOL    HW2 7761   3.767   2.456   1.971  1.7780  1.2385 -1.7498
 2525SOL     OW 7762   2.233   1.950   1.292 -0.4584  0.2532 -0.0423
 2525SOL    HW1 7763   2.162   1.890   1.273  0.2922 -1.2100  1.4890
 2525SOL    HW2 7764   2.296   1.936   1.221 -1.4134  1.1668 -1.1066
 2526SOL     OW 7765   3.701   1.196   4.003 -0.0330  0.4697 -0.4753
 2526SOL    HW1 7766   3.612   1.211   4.034 -0.7674 -3.3956 -0.1877
 2526SOL    HW2 7767   3.755   1.253   4.056 -1.7733 -1.7561  4.2905
 2527SOL     OW 7768   1.069   2.996   4.022 -0.1057 -0.0749 -0.3650
 2527SOL    HW1 7769   0.996   3.052   3.996 -0.9273 -1.9059 -2.3518
 2527SOL    HW2 7770   1.130   3.055   4.066 -2.6404  1.5750  1.2327
 2528SOL     OW 7771   2.659   2.799   4.891  0.1199 -0.0218  0.0753
 2528SOL    HW1 7772   2.605   2.736   4.939  0.7013 -0.1151  0.6212
 2528SOL    HW2 7773   2.714   2.839   4.958  0.4405  0.3625 -0.4138
 2529SOL     OW 7774   3.493   0.069   0.448  0.2925  0.1958 -0.3718
 2529SOL    HW1 7775   3.542  -0.004   0.411  0.0284 -0.2493  0.1349
 2529SOL    HW2 7776   3.413   0.074   0.395 -0.3224 -0.7655  0.4231
 2530SOL     OW 7777   2.465   2.391   0.290 -0.1526  0.1675  0.0448
 2530SOL    HW1 7778   2.374   2.401   0.265  0.2490  0.7321 -1.2779
 2530SOL    HW2 7779   2.480   2.296   0.289 -0.7356  0.0656  0.3694
 2531SOL     OW 7780   3.045   1.467   0.682 -0.0192 -0.9265  0.0880
 2531SOL    HW1 7781   3.095   1.499   0.756  0.4377 -0.8553 -0.2441
 2531SOL    HW2 7782   2.980   1.535   0.665  1.3862  0.2012 -1.0542
 2532SOL     OW 7783   2.600   1.232   1.512 -0.6262  0.2393  0.0374
 2532SOL    HW1 7784   2.671   1.293   1.533  0.0757 -0.6412  0.2807
 2532SOL    HW2 7785   2.520   1.284   1.523 -0.0901  0.8765  1.1058
 2533SOL     OW 7786   0.858   3.512   2.962 -0.2206 -0.5788  0.1169
 2533SOL    HW1 7787   0.804   3.587   2.939 -0.4021 -1.2613 -1.8851
 2533SOL    HW2 7788   0.907   3.492   2.883  1.4166 -1.2885  1.2449
 2534SOL     OW 7789   1.995   4.190   3.571  0.6496  0.0089 -0.6063
 2534SOL    HW1 7790   1.920   4.237   3.535  1.2082  0.9485 -0.5786
 2534SOL    HW2 7791   2.040   4.155   3.495  0.2256 -0.5103 -0.6268
 2535SOL     OW 7792   3.853   0.684   0.027  0.2937  0.8390 -0.3387
 2535SOL    HW1 7793   3.828   0.775   0.010  0.4284  0.7206 -1.2415
 2535SOL    HW2 7794   3.804   0.633  -0.038  0.3099  0.2719  0.0799
 2536SOL     OW 7795   0.728   3.433   4.376 -0.1552 -0.1267  0.0049
 2536SOL    HW1 7796   0.741   3.496   4.446 -1.2751  0.1227  0.0096
 2536SOL    HW2 7797   0.808   3.381   4.375  0.0843  0.1963  1.1298
 2537SOL     OW 7798   3.165   0.128   1.373  0.9108  0.3134  0.2671
 2537SOL    HW1 7799   3.179   0.190   1.301 -1.9015 -0.6648 -1.2755
 2537SOL    HW2 7800   3.164   0.042   1.331  0.0975 -0.3665  1.5979
 2538SOL     OW 7801   3.980   1.445   2.656 -0.4454  0.3985  0.4082
 2538SOL    HW1 7802   3.929   1.519   2.687 -0.8373  1.3941 -2.3373
 2538SOL    HW2 7803   3.995   1.463   2.563  0.3657 -2.4538 -0.1158
 2539SOL     OW 7804   1.653   0.647   0.173 -0.2893  0.2391  0.5612
 2539SOL    HW1 7805   1.671   0.585   0.243 -1.1572 -0.6348  0.0353
 2539SOL    HW2 7806   1.635   0.593   0.096 -1.4179  1.1034  0.1787
 2540SOL     OW 7807   1.973   3.498   1.361  0.2743 -0.1065 -0.2928
 2540SOL    HW1 7808   1.948   3.536   1.445 -0.3842 -2.4200  0.6461
 2540SOL    HW2 7809   2.047   3.440   1.381  0.7316  0.0267 -1.4894
 2541SOL     OW 7810   2.039   1.467   0.213 -0.2867 -0.1961  0.3243
 2541SOL    HW1 7811   1.953   1.488   0.177 -0.5710  1.0044  1.6175
 2541SOL    HW2 7812   2.092   1.545   0.197  0.7011 -1.0645 -0.7887
 2542SOL     OW 7813   2.993   3.379   0.551  0.0340 -0.3675  0.7392
 2542SOL    HW1 7814   3.082   3.345   0.554  0.6581  1.2184  1.8790
 2542SOL    HW2 7815   2.943   3.321   0.608  0.6049 -0.5763  1.0291
 2543SOL     OW 7816   1.091   3.679   4.485  0.5410 -0.0645 -0.0503
 2543SOL    HW1 7817   1.055   3.611   4.429  2.0501  0.2480 -1.4652
 2543SOL    HW2 7818   1.150   3.729   4.429  0.7256  1.4202  1.3557
 2544SOL     OW 7819   1.914   0.251   4.453 -0.4025 -0.2360  0.4442
 2544SOL    HW1 7820   1.921   0.301   4.535  3.2605 -0.7999  0.6598
 2544SOL    HW2 7821   1.971   0.298   4.392  0.4292 -2.2104 -0.3847
 2545SOL     OW 7822   3.291   1.772   3.657  0.0991  0.2185  0.3047
 2545SOL    HW1 7823   3.385   1.786   3.665  0.3306 -0.8368 -0.3501
 2545SOL    HW2 7824   3.269   1.801   3.568 -0.0238 -0.3859  0.1345
 2546SOL     OW 7825   3.985   0.212   3.124  0.5372  0.8693 -1.1604
 2546SOL    HW1 7826   4.037   0.149   3.073 -1.4441 -0.7724 -1.2935
 2546SOL    HW2 7827   3.950   0.272   3.058 -0.9479 -0.4598 -1.6474
 2547SOL     OW 7828   4.723   2.290   2.039  0.2350 -0.1936  0.3945
 2547SOL    HW1 7829   4.787   2.256   2.103  0.3250  1.2124  1.0789
 2547SOL    HW2 7830   4.666   2.347   2.090  1.2900  2.2785 -1.0161
 2548SOL     OW 7831   0.739   2.778   1.624  0.7241 -0.0716  0.5634
 2548SOL    HW1 7832   0.830   2.750   1.633  1.0978  1.0887  0.4596
 2548SOL    HW2 7833   0.712   2.746   1.538 -0.2231 -3.8143  2.0566
 2549SOL     OW 7834   1.412   4.230   1.080 -0.0864 -0.2675 -0.6337
 2549SOL    HW1 7835   1.477   4.300   1.074  1.1163 -1.3704 -1.1719
 2549SOL    HW2 7836   1.448   4.160   1.025 -0.9721 -1.4979  0.2892
 2550SOL     OW 7837   0.158   0.005   1.019 -0.3121 -0.1804  0.0651
 2550SOL    HW1 7838   0.097  -0.066   1.038 -1.7938  0.9870 -0.1782
 2550SOL    HW2 7839   0.126   0.078   1.072 -1.4466  1.5997 -2.8591
 2551SOL     OW 7840   0.641   0.921   1.220 -0.5968 -0.2350 -0.1719
 2551SOL    HW1 7841   0.613   0.830   1.229  2.3653 -1.5016 -2.1947
 2551SOL    HW2 7842   0.589   0.954   1.147 -1.4969 -0.3366  0.3993
 2552SOL     OW 7843   3.672   0.447   0.171  0.3886 -0.5009 -0.2744
 2552SOL    HW1 7844   3.705   0.378   0.228 -0.4553 -2.0340 -1.5414
 2552SOL    HW2 7845   3.705   0.528   0.209  2.2580 -1.6573  0.7152
 2553SOL     OW 7846   1.405   2.550   4.613  0.3834  0.2873 -0.5012
 2553SOL    HW1 7847   1.434   2.571   4.524 -0.6331  3.1397 -0.2455
 2553SOL    HW2 7848   1.452   2.469   4.635  3.5574  1.4961 -2.2050
 2554SOL     OW 7849   4.294   1.485   0.889  0.2824  0.2846  0.0520
 2554SOL    HW1 7850   4.227   1.477   0.956  0.6234  3.1941  0.8710
 2554SOL    HW2 7851   4.376   1.468   0.936  0.3423 -0.5895 -0.3427
 2555SOL     OW 7852   2.459   2.150   0.016  0.5137 -0.1826 -0.1291
 2555SOL    HW1 7853   2.544   2.189  -0.003  0.9923 -1.1155  0.0231
 2555SOL    HW2 7854   2.473   2.098   0.095 -0.3210  0.0374  0.1729
 2556SOL     OW 7855   2.309   3.586   4.730 -0.0479  0.0132  0.5439
 2556SOL    HW1 7856   2.333   3.607   4.639 -1.0538 -0.8609  0.0627
 2556SOL    HW2 7857   2.282   3.670   4.767  0.9356  0.4930  0.2370
 2557SOL     OW 7858   0.545   2.171   4.314 -0.2087 -0.5283  0.4936
 2557SOL    HW1 7859   0.484   2.101   4.337 -1.7954  0.3442 -0.9130
 2557SOL    HW2 7860   0.632   2.132   4.328 -1.0422 -2.5352  0.3931
 2558SOL     OW 7861   2.418   1.177   0.061 -1.0969 -0.7288  0.4761
 2558SOL    HW1 7862   2.327   1.177   0.092 -1.9465  0.3880 -1.7928
 2558SOL    HW2 7863   2.420   1.244  -0.007  0.9506 -2.0994 -0.9166
 2559SOL     OW 7864   4.070   1.357   3.406  0.2130  0.4492  0.2922
 2559SOL    HW1 7865   4.053   1.449   3.424  1.7482  0.5744  1.3149
 2559SOL    HW2 7866   4.165   1.352   3.392  0.1921 -1.0084  0.4753
 2560SOL     OW 7867   3.704   1.652   4.860  0.4978 -0.0999  0.0691
 2560SOL    HW1 7868   3.686   1.733   4.907  2.4877  0.4911 -0.0881
 2560SOL    HW2 7869   3.665   1.666   4.773 -1.5981 -0.4787  0.8904
 2561SOL     OW 7870   1.040   0.897   0.309 -0.0353  0.4808 -0.4246
 2561SOL    HW1 7871   1.113   0.917   0.368 -1.4129  4.1264  0.3319
 2561SOL    HW2 7872   1.075   0.911   0.222  0.8659 -0.5215 -0.2314
 2562SOL     OW 7873   2.930   0.223   1.561 -0.1312  0.4934 -0.4080
 2562SOL    HW1 7874   2.951   0.312   1.591  1.7444  1.1690 -3.3250
 2562SOL    HW2 7875   2.991   0.207   1.489 -1.2653 -2.7154 -0.8070
 2563SOL     OW 7876   4.592   4.130   2.545  0.1974  0.3465 -0.1624
 2563SOL    HW1 7877   4.661   4.067   2.566 -0.4645 -0.3789 -0.1211
 2563SOL    HW2 7878   4.636   4.215   2.547  1.3507 -0.1927 -1.2779
 2564SOL     OW 7879   4.019   1.010   1.209  0.0112 -0.6537 -0.2873
 2564SOL    HW1 7880   4.090   0.991   1.148  2.0600 -0.3794  1.9010
 2564SOL    HW2 7881   3.970   0.928   1.216 -1.6094 -0.1609 -3.7981
 2565SOL     OW 7882   3.886   0.778   1.135 -0.0972  0.2614 -0.5799
 2565SOL    HW1 7883   3.939   0.715   1.184 -0.0648  0.5338 -0.2606
 2565SOL    HW2 7884   3.840   0.725   1.070 -0.3000 -0.1351 -0.1243
 2566SOL     OW 7885   2.194   0.029   3.674  0.3621  0.5677  0.0666
 2566SOL    HW1 7886   2.242  -0.036   3.623 -0.8301 -0.6488  0.4338
 2566SOL    HW2 7887   2.243   0.035   3.757  0.9213  0.7345 -0.2716
 2567SOL     OW 7888   1.787   3.413   3.254 -0.4897  0.3326  0.0482
 2567SOL    HW1 7889   1.826   3.409   3.167  1.2320 -0.8968  0.8217
 2567SOL    HW2 7890   1.843   3.473   3.303  0.3192 -1.2094  1.0957
 2568SOL     OW 7891   0.986   0.820   0.702 -0.5540 -0.6449  0.1183
 2568SOL    HW1 7892   1.080   0.837   0.694 -0.5551 -0.4325  0.5604
 2568SOL    HW2 7893   0.976   0.730   0.672 -0.4387 -0.1624 -1.5212
 2569SOL     OW 7894   4.667   1.949   4.455 -0.4426  0.0012  0.4532
 2569SOL    HW1 7895   4.584   1.982   4.420  0.5545  1.9066 -0.2333
 2569SOL    HW2 7896   4.675   1.860   4.418 -1.8875  0.0129  0.0721
 2570SOL     OW 7897   4.352   2.563   1.955  0.0905 -0.3340  0.3715
 2570SOL    HW1 7898   4.263   2.597   1.968  1.0359  2.5928 -0.1622
 2570SOL    HW2 7899   4.382   2.542   2.044 -1.6823 -3.1357  0.4213
 2571SOL     OW 7900   4.766   2.567   0.412  0.0284 -0.1143 -0.2578
 2571SOL    HW1 7901   4.833   2.498   0.408 -1.3585 -1.5153 -0.6624
 2571SOL    HW2 7902   4.784   2.622   0.336  1.9803  0.7984  0.8229
 2572SOL     OW 7903   0.129   3.991   0.689  0.3058 -0.0030  0.0380
 2572SOL    HW1 7904   0.046   4.026   0.657  0.9214  1.8029  0.2816
 2572SOL    HW2 7905   0.195   4.055   0.660  1.4110 -0.5735  1.1757
 2573SOL     OW 7906   1.617   0.565   0.933  0.1497  0.1838  0.1712
 2573SOL    HW1 7907   1.582   0.652   0.950  0.5350  0.3277  0.2493
 2573SOL    HW2 7908   1.688   0.555   0.996  0.0749 -0.2075  0.1963
 2574SOL     OW 7909   2.014   3.211   4.300  0.2632  0.6960  0.3109
 2574SOL    HW1 7910   1.922   3.189   4.314  1.1200 -2.9396  1.3423
 2574SOL    HW2 7911   2.012   3.289   4.245 -3.4316 -0.2530 -1.2139
 2575SOL     OW 7912   3.167   3.056   2.331  0.5169 -0.1560 -0.4032
 2575SOL    HW1 7913   3.128   3.014   2.254  1.4515 -1.4352 -0.2195
 2575SOL    HW2 7914   3.251   3.090   2.301  0.3666  0.4002 -0.2160
 2576SOL     OW 7915   2.232   0.291   3.782 -0.4210 -0.5282  0.2781
 2576SOL    HW1 7916   2.313   0.260   3.823 -0.3155  0.1659  0.6009
 2576SOL    HW2 7917   2.242   0.270   3.689  0.0410 -0.6257  0.3487
 2577SOL     OW 7918   1.707   0.866   4.322  0.2613 -0.0360  0.5669
 2577SOL    HW1 7919   1.670   0.920   4.391 -1.3439  1.9698 -1.7208
 2577SOL    HW2 7920   1.792   0.905   4.303  0.9923 -0.9731  1.7320
 2578SOL     OW 7921   4.533   4.594   1.703 -0.2715  0.3356 -0.5040
 2578SOL    HW1 7922   4.492   4.609   1.617 -2.8013 -1.2048  0.3156
 2578SOL    HW2 7923   4.522   4.500   1.717  0.5820  0.4819  1.2848
 2579SOL     OW 7924   4.848   2.263   1.265 -0.0538 -0.6025  0.7302
 2579SOL    HW1 7925   4.850   2.289   1.357 -0.0563 -0.7075  0.7603
 2579SOL    HW2 7926   4.757   2.235   1.250  0.1451 -1.3857  0.9225
 2580SOL     OW 7927   2.945   0.173   2.164  0.5238  0.4703  0.3218
 2580SOL    HW1 7928   2.973   0.255   2.206 -0.0021  0.8900 -0.1211
 2580SOL    HW2 7929   2.963   0.105   2.229  2.6170  0.6869  0.0479
 2581SOL     OW 7930   3.896   3.467   3.774 -0.5318 -0.1313  0.3325
 2581SOL    HW1 7931   3.850   3.547   3.800  1.3651  0.7954  1.0213
 2581SOL    HW2 7932   3.880   3.406   3.846 -1.9030 -0.3753 -0.1477
 2582SOL     OW 7933   2.791   1.480   1.927  0.3705  0.2239  0.3540
 2582SOL    HW1 7934   2.806   1.386   1.939  0.5193  0.1499 -0.3906
 2582SOL    HW2 7935   2.700   1.486   1.896  0.4488  0.3019  0.1354
 2583SOL     OW 7936   2.874   1.695   2.103  0.2556 -0.7639 -0.3806
 2583SOL    HW1 7937   2.838   1.638   2.035 -0.3185 -1.9885  0.9082
 2583SOL    HW2 7938   2.891   1.637   2.177  0.4767  0.5998  0.6797
 2584SOL     OW 7939   3.719   2.766   0.083  0.7583  0.2662  0.4361
 2584SOL    HW1 7940   3.639   2.818   0.072  0.0973 -0.5851  1.1002
 2584SOL    HW2 7941   3.777   2.823   0.133  0.4530  0.7781  0.2172
 2585SOL     OW 7942   4.322   1.524   4.619  0.0079  0.4615  0.2393
 2585SOL    HW1 7943   4.294   1.451   4.675 -2.1632  0.8946 -0.2032
 2585SOL    HW2 7944   4.283   1.504   4.533 -1.4354  2.5507  0.3406
 2586SOL     OW 7945   1.597   0.156   4.402 -0.4450 -0.5993 -0.6532
 2586SOL    HW1 7946   1.558   0.171   4.488 -0.0865 -0.4204 -0.5178
 2586SOL    HW2 7947   1.642   0.238   4.381  1.2534 -1.3096 -0.0484
 2587SOL     OW 7948   4.052   3.583   1.006 -0.5284  0.1777  0.0275
 2587SOL    HW1 7949   4.063   3.552   1.096 -1.0555 -0.3422 -0.0783
 2587SOL    HW2 7950   4.126   3.641   0.991 -0.3430  0.1304  0.7412
 2588SOL     OW 7951   4.720   1.138   2.025 -0.1305  0.1780  0.1770
 2588SOL    HW1 7952   4.701   1.232   2.022 -0.1155  0.1896  0.3913
 2588SOL    HW2 7953   4.713   1.108   1.934  0.6791  0.5544 -0.0244
 2589SOL     OW 7954   3.860   2.189   0.454  0.0880 -0.5980 -0.1401
 2589SOL    HW1 7955   3.920   2.191   0.380  0.3444  0.7206  0.0825
 2589SOL    HW2 7956   3.874   2.103   0.494  1.3207 -0.5903 -0.5083
 2590SOL     OW 7957   4.762   2.985   0.179 -0.1380 -0.0157  0.3889
 2590SOL    HW1 7958   4.675   2.991   0.140  0.2181 -0.5615 -0.5294
 2590SOL    HW2 7959   4.747   2.948   0.265 -0.8681  0.4338  0.4652
 2591SOL     OW 7960   3.400   2.201   1.449  0.5588  0.0989 -0.0689
 2591SOL    HW1 7961   3.411   2.177   1.357  1.2464 -0.8205  0.2382
 2591SOL    HW2 7962   3.305   2.197   1.464  0.1546  2.7636 -1.3555
 2592SOL     OW 7963   4.741   1.308   4.802  0.8140  0.0376  0.2800
 2592SOL    HW1 7964   4.792   1.232   4.830  1.8769  0.1988 -1.0837
 2592SOL    HW2 7965   4.663   1.270   4.761 -0.1053 -0.2146  2.1811
 2593SOL     OW 7966   2.205   1.115   2.011 -0.3014 -0.3114  0.1102
 2593SOL    HW1 7967   2.209   1.210   2.022  1.2168 -0.4799  1.2490
 2593SOL    HW2 7968   2.145   1.085   2.079  1.2724 -0.3903  1.5080
 2594SOL     OW 7969   0.457   0.556   0.124 -0.0469  0.1050 -0.6942
 2594SOL    HW1 7970   0.457   0.651   0.115 -0.1571  0.2261  0.4076
 2594SOL    HW2 7971   0.391   0.538   0.191 -0.5693 -0.8126 -1.4309
 2595SOL     OW 7972   3.460   3.286   0.518 -0.1833  0.1268  0.1261
 2595SOL    HW1 7973   3.495   3.360   0.468 -2.7337  1.3428 -0.0017
 2595SOL    HW2 7974   3.538   3.240   0.550  1.9101 -1.7179 -6.1007
 2596SOL     OW 7975   3.672   0.373   4.463 -0.3852  0.4717 -0.0730
 2596SOL    HW1 7976   3.635   0.355   4.377  0.5403  0.7415 -0.5433
 2596SOL    HW2 7977   3.603   0.420   4.510 -1.2844 -0.6190 -0.2749
 2597SOL     OW 7978   0.970   3.045   4.338 -0.8190  0.0907  0.1052
 2597SOL    HW1 7979   0.882   3.080   4.325 -1.3067 -0.5662  1.3864
 2597SOL    HW2 7980   0.957   2.969   4.395  0.4768 -0.6290 -0.5002
 2598SOL     OW 7981   0.038   0.864   4.891  0.4058  0.2492  0.3376
 2598SOL    HW1 7982   0.048   0.846   4.798  2.1601 -0.0209  0.5492
 2598SOL    HW2 7983   0.022   0.958   4.896  2.3925  0.6440 -0.1376
 2599SOL     OW 7984   3.574   4.160   0.172 -0.2120 -0.0112 -0.3657
 2599SOL    HW1 7985   3.624   4.225   0.220  0.8980  1.1219 -2.8459
 2599SOL    HW2 7986   3.580   4.080   0.224  1.8523  0.8265  0.7789
 2600SOL     OW 7987   2.383   3.182   2.560 -0.6579  0.6015  0.2410
 2600SOL    HW1 7988   2.294   3.182   2.597 -1.2681  1.1533 -1.1566
 2600SOL    HW2 7989   2.433   3.236   2.621 -1.7286  1.8411  0.0667
 2601SOL     OW 7990   3.647   2.721   2.345  0.1895  0.4240  0.0645
 2601SOL    HW1 7991   3.676   2.639   2.304 -0.4942  0.8671 -1.3807
 2601SOL    HW2 7992   3.709   2.736   2.416  0.4947 -1.1938  0.1623
 2602SOL     OW 7993   3.796   0.784   4.258  0.2604 -0.2611 -0.1087
 2602SOL    HW1 7994   3.760   0.723   4.323 -0.3363 -0.5769 -0.7348
 2602SOL    HW2 7995   3.795   0.869   4.303 -1.4178 -0.2236 -0.1547
 2603SOL     OW 7996   2.177   1.313   2.927 -0.1574 -0.2427 -0.4502
 2603SOL    HW1 7997   2.176   1.333   2.833 -0.3319  0.0304 -0.3902
 2603SOL    HW2 7998   2.261   1.268   2.940  0.7220  1.2989 -0.4239
 2604SOL     OW 7999   2.240   4.920   4.569  0.1507 -0.6408  0.0668
 2604SOL    HW1 8000   2.243   5.004   4.522 -3.3369 -0.5806 -0.2524
 2604SOL    HW2 8001   2.330   4.887   4.563  1.3338  2.3913 -0.9832
 2605SOL     OW 8002   0.561   4.647   4.447  0.0071  0.1601  0.2546
 2605SOL    HW1 8003   0.502   4.722   4.449 -0.5605 -0.1638 -1.8948
 2605SOL    HW2 8004   0.518   4.584   4.389  2.0351 -0.4526 -0.6685
 2606SOL     OW 8005   0.223   1.371   1.394 -0.0900  0.2259 -0.4451
 2606SOL    HW1 8006   0.157   1.393   1.461 -0.0757 -0.2414 -0.2767
 2606SOL    HW2 8007   0.307   1.382   1.439 -0.1013 -1.4600  0.0592
 2607SOL     OW 8008   3.164   1.383   1.770  0.1177 -0.5760 -0.2111
 2607SOL    HW1 8009   3.255   1.406   1.790 -0.2128  0.8435 -0.2102
 2607SOL    HW2 8010   3.138   1.446   1.703 -0.7627 -1.1968 -0.4679
 2608SOL     OW 8011   1.797   3.179   1.360 -0.1769 -0.2417 -0.4834
 2608SOL    HW1 8012   1.713   3.223   1.371 -0.5442 -0.8495 -0.7716
 2608SOL    HW2 8013   1.799   3.156   1.267  0.9178  0.9713 -0.7838
 2609SOL     OW 8014   1.748   1.617   1.690  0.4626 -0.3645 -0.2788
 2609SOL    HW1 8015   1.759   1.665   1.608  0.2578 -0.4474 -0.3558
 2609SOL    HW2 8016   1.741   1.525   1.664  0.2273 -0.3741 -0.1821
 2610SOL     OW 8017   1.955   1.238   4.263 -0.4057  0.4904 -0.2507
 2610SOL    HW1 8018   2.013   1.314   4.272  1.1964 -0.6093 -0.8539
 2610SOL    HW2 8019   1.895   1.263   4.193  0.1431  1.1846 -0.4962
 2611SOL     OW 8020   3.991   0.938   2.104 -0.2334  0.3703 -0.3238
 2611SOL    HW1 8021   3.903   0.924   2.069 -0.5452  0.1153  0.5370
 2611SOL    HW2 8022   4.031   0.851   2.105  0.2548  0.5745 -1.2826
 2612SOL     OW 8023   4.701   3.272   4.122  0.4521 -0.2224  0.1221
 2612SOL    HW1 8024   4.730   3.185   4.095  0.1209  0.1824 -1.6548
 2612SOL    HW2 8025   4.776   3.329   4.102 -0.5683  0.4330 -2.1504
 2613SOL     OW 8026   0.996   0.850   1.052 -0.2322  0.1466  0.3891
 2613SOL    HW1 8027   1.078   0.840   1.004  0.5227  0.1893  1.6482
 2613SOL    HW2 8028   0.929   0.817   0.992  0.5033  1.4159 -1.2182
 2614SOL     OW 8029   2.502   1.470   2.245  0.1477  1.0569  0.0631
 2614SOL    HW1 8030   2.460   1.524   2.178  0.0719 -0.4665 -1.1919
 2614SOL    HW2 8031   2.595   1.472   2.223  0.3391  1.8270  0.8947
 2615SOL     OW 8032   3.540   3.935   3.356 -0.5727  0.0931  0.4552
 2615SOL    HW1 8033   3.496   3.885   3.424 -0.9974  2.5301  2.1040
 2615SOL    HW2 8034   3.472   3.953   3.291 -0.1225 -2.3905 -0.8035
 2616SOL     OW 8035   3.660   3.687   0.622 -0.2975  0.0747  0.5816
 2616SOL    HW1 8036   3.576   3.683   0.669 -0.8606  0.9894 -0.3045
 2616SOL    HW2 8037   3.688   3.778   0.632 -0.2289  0.1809 -0.5040
 2617SOL     OW 8038   1.996   1.263   0.592  0.1861  0.3431  0.2502
 2617SOL    HW1 8039   1.991   1.225   0.680 -0.0906  0.1509  0.1521
 2617SOL    HW2 8040   1.910   1.247   0.554  0.4094  0.1250 -0.1776
 2618SOL     OW 8041   1.323   1.603   2.419 -0.6901 -0.3154 -0.1112
 2618SOL    HW1 8042   1.289   1.556   2.494 -0.6131 -0.7649 -0.3557
 2618SOL    HW2 8043   1.250   1.609   2.358 -0.7197 -0.0534 -0.0528
 2619SOL     OW 8044   4.360   0.772   4.889  0.9174  0.1461  0.3637
 2619SOL    HW1 8045   4.364   0.792   4.795  0.2734  1.4744  0.5984
 2619SOL    HW2 8046   4.451   0.771   4.917  1.0442  2.4065  0.2193
 2620SOL     OW 8047   4.905   1.055   1.524 -0.3177  0.3371 -0.3445
 2620SOL    HW1 8048   4.915   1.102   1.441 -0.9361 -0.6700 -1.0238
 2620SOL    HW2 8049   4.887   0.964   1.497 -0.7020  0.0312  0.8961
 2621SOL     OW 8050   0.289   4.898   3.192 -0.4915  0.3944  0.6268
 2621SOL    HW1 8051   0.217   4.862   3.243 -0.5988  1.1403  1.0123
 2621SOL    HW2 8052   0.256   4.902   3.103 -1.7351  2.7679  1.1411
 2622SOL     OW 8053   3.766   3.016   2.774  0.2547  0.3112  0.1544
 2622SOL    HW1 8054   3.733   2.940   2.823 -0.2903  0.2069 -0.3709
 2622SOL    HW2 8055   3.694   3.079   2.776  0.7861  0.9159  0.7848
 2623SOL     OW 8056   2.667   1.581   2.434  0.9084  0.3370  0.0357
 2623SOL    HW1 8057   2.595   1.548   2.381  1.6516 -0.6521 -0.3917
 2623SOL    HW2 8058   2.641   1.670   2.457 -0.6586 -0.1727  0.3115
 2624SOL     OW 8059   3.504   1.495   1.150 -0.3800  0.4978 -0.2124
 2624SOL    HW1 8060   3.429   1.523   1.203 -0.8657 -0.5246 -0.3186
 2624SOL    HW2 8061   3.466   1.431   1.089  0.7944 -0.9837  0.5589
 2625SOL     OW 8062   2.597   3.358   2.937 -0.1423  0.5621 -0.0025
 2625SOL    HW1 8063   2.586   3.355   2.842 -1.2353  1.4218  0.0693
 2625SOL    HW2 8064   2.691   3.347   2.951 -0.2036 -1.8553 -1.0343
 2626SOL     OW 8065   4.893   3.065   3.646  0.6460 -0.1411 -0.0010
 2626SOL    HW1 8066   4.828   3.083   3.713  0.0144  1.5875 -1.0043
 2626SOL    HW2 8067   4.937   3.149   3.633 -1.1117  0.3922 -3.6421
 2627SOL     OW 8068   4.621   1.200   3.660  0.0035 -0.5680  0.0497
 2627SOL    HW1 8069   4.626   1.180   3.754  0.4900 -2.0907 -0.2685
 2627SOL    HW2 8070   4.531   1.227   3.646 -0.4204 -1.5712  0.7449
 2628SOL     OW 8071   2.874   3.270   3.975  0.5007  0.0170 -0.2271
 2628SOL    HW1 8072   2.793   3.248   3.929  0.4645 -0.2889 -0.0193
 2628SOL    HW2 8073   2.847   3.284   4.066  0.8072 -0.9109  0.0087
 2629SOL     OW 8074   4.019   3.072   0.441 -0.3059 -0.0608  0.5847
 2629SOL    HW1 8075   3.959   3.146   0.438  0.3079  0.4073 -0.8535
 2629SOL    HW2 8076   3.981   3.013   0.505 -1.2331  1.1273  1.1696
 2630SOL     OW 8077   2.085   2.980   1.951  0.8683 -0.2599 -0.2020
 2630SOL    HW1 8078   2.077   2.954   2.043 -0.8343 -0.2279 -0.3161
 2630SOL    HW2 8079   2.136   3.061   1.953  0.3275  0.0768  0.7860
 2631SOL     OW 8080   2.068   4.056   2.096  0.2606 -0.3002 -0.6893
 2631SOL    HW1 8081   2.095   4.010   2.175 -0.3371 -0.6434 -0.6739
 2631SOL    HW2 8082   2.009   4.124   2.126  0.3286 -0.1885 -0.8071
 2632SOL     OW 8083   1.095   0.816   1.565 -0.0231 -0.0353  0.2595
 2632SOL    HW1 8084   1.031   0.805   1.494  0.5869  0.9085 -0.4575
 2632SOL    HW2 8085   1.173   0.850   1.522  1.5189 -2.5984  0.8940
 2633SOL     OW 8086   1.677   3.161   0.132  0.2726 -0.2357 -0.2166
 2633SOL    HW1 8087   1.634   3.186   0.214  1.9730 -1.0957  1.0158
 2633SOL    HW2 8088   1.743   3.229   0.118  1.1561 -0.9952  0.1171
 2634SOL     OW 8089   0.366   4.808   4.303 -0.3499 -0.1898 -0.5913
 2634SOL    HW1 8090   0.337   4.744   4.238 -2.3429  0.2244 -0.1733
 2634SOL    HW2 8091   0.286   4.836   4.347  0.6397  1.5558  0.2163
 2635SOL     OW 8092   4.656   0.227   2.471 -0.3352  0.2424 -0.0156
 2635SOL    HW1 8093   4.646   0.207   2.378  1.0603  0.4454 -0.2212
 2635SOL    HW2 8094   4.625   0.147   2.515  1.3317 -0.8541 -0.7261
 2636SOL     OW 8095   1.672   1.351   0.331  0.1628  0.0627 -0.0078
 2636SOL    HW1 8096   1.739   1.417   0.344  0.6954  0.3763 -3.4454
 2636SOL    HW2 8097   1.605   1.395   0.280 -1.5406 -0.9606  1.2231
 2637SOL     OW 8098   2.763   4.687   4.581 -0.1821 -0.2560 -0.7009
 2637SOL    HW1 8099   2.825   4.681   4.509  1.7475 -3.3071  1.0026
 2637SOL    HW2 8100   2.690   4.631   4.554  0.3330 -1.0318 -0.5257
 2638SOL     OW 8101   1.842   3.502   4.146  0.3087  0.0979 -0.2560
 2638SOL    HW1 8102   1.786   3.580   4.149  0.0498 -0.0956  0.0036
 2638SOL    HW2 8103   1.785   3.431   4.118 -0.2394 -0.6242  2.3967
 2639SOL     OW 8104   0.857   1.213   3.834  0.0458 -0.5445  0.1162
 2639SOL    HW1 8105   0.917   1.287   3.845 -0.1488 -0.4469  0.5790
 2639SOL    HW2 8106   0.770   1.254   3.833 -0.1122 -0.8194  1.1163
 2640SOL     OW 8107   4.739   3.421   3.268 -0.0739  0.1259  0.6029
 2640SOL    HW1 8108   4.671   3.377   3.217  0.3980  0.3968 -0.2700
 2640SOL    HW2 8109   4.692   3.486   3.320 -0.2725  1.8524 -1.6307
 2641SOL     OW 8110   2.256   4.605   3.377  0.1517 -0.5927 -0.1068
 2641SOL    HW1 8111   2.226   4.693   3.353  0.1634 -0.2396  1.0989
 2641SOL    HW2 8112   2.272   4.561   3.293  1.9314  1.1651 -0.7782
 2642SOL     OW 8113   3.067   3.429   2.728  0.5196 -0.3287  0.7038
 2642SOL    HW1 8114   3.094   3.506   2.779  0.3867  0.0630  0.1952
 2642SOL    HW2 8115   3.086   3.454   2.637 -0.5526 -0.4732  0.4362
 2643SOL     OW 8116   1.108   4.820   0.392 -0.7353  0.0194  0.1692
 2643SOL    HW1 8117   1.110   4.849   0.301 -2.1465  0.7023  0.3228
 2643SOL    HW2 8118   1.189   4.853   0.430 -0.6602  0.7090 -0.5659
 2644SOL     OW 8119   4.712   3.114   1.832 -0.0841 -0.1529  0.2123
 2644SOL    HW1 8120   4.717   3.138   1.924  0.8132 -1.8154  0.6364
 2644SOL    HW2 8121   4.627   3.071   1.823  0.5094 -1.4751  0.6779
 2645SOL     OW 8122   3.704   2.437   2.551  0.5550 -0.1666  0.5960
 2645SOL    HW1 8123   3.627   2.432   2.608  0.8757  0.8674  1.1476
 2645SOL    HW2 8124   3.757   2.361   2.574 -0.8577 -1.6372 -0.6787
 2646SOL     OW 8125   3.779   0.336   2.481  0.7721 -0.2583  0.7360
 2646SOL    HW1 8126   3.864   0.359   2.518  0.6353 -0.6210  1.2874
 2646SOL    HW2 8127   3.787   0.356   2.387  1.3924 -0.1034  0.8196
 2647SOL     OW 8128   3.615   4.553   1.246  0.3920 -0.7388  0.0303
 2647SOL    HW1 8129   3.676   4.518   1.311  0.5326  0.2941  0.4727
 2647SOL    HW2 8130   3.535   4.503   1.260 -0.2475  0.7599  2.4003
 2648SOL     OW 8131   3.156   4.833   3.123  0.2451  0.1312  0.3917
 2648SOL    HW1 8132   3.072   4.827   3.170 -0.4992 -0.7140 -0.9788
 2648SOL    HW2 8133   3.222   4.808   3.187 -0.7541 -1.1414  0.9548
 2649SOL     OW 8134   0.606   0.580   0.741  1.0700 -0.1895  0.6613
 2649SOL    HW1 8135   0.554   0.551   0.666 -0.2949  1.7033  0.7995
 2649SOL    HW2 8136   0.693   0.545   0.724  0.9982  0.7033 -2.1914
 2650SOL     OW 8137   3.410   4.044   2.513  0.3765 -0.0824  0.0908
 2650SOL    HW1 8138   3.471   4.062   2.585  0.4145 -0.7930  0.2419
 2650SOL    HW2 8139   3.449   4.090   2.438  0.8841 -0.1863  0.2820
 2651SOL     OW 8140   1.774   0.417   3.236 -0.0455 -0.2698  0.0393
 2651SOL    HW1 8141   1.832   0.479   3.192  1.7308 -0.2140  2.2731
 2651SOL    HW2 8142   1.808   0.411   3.325 -3.1190 -0.7590  1.3095
 2652SOL     OW 8143   0.694   1.237   4.855 -0.4616 -0.5222 -0.2681
 2652SOL    HW1 8144   0.702   1.196   4.941  1.6953  0.6751  0.1744
 2652SOL    HW2 8145   0.763   1.196   4.803  0.2720  0.9455 -0.4782
 2653SOL     OW 8146   3.689   0.436   1.120 -0.0867 -0.6281 -0.2238
 2653SOL    HW1 8147   3.761   0.373   1.116  0.4053 -0.1487  0.6748
 2653SOL    HW2 8148   3.723   0.513   1.074 -1.0339 -1.2937 -2.1711
 2654SOL     OW 8149   0.305   2.009   1.294  0.2578 -0.4281  0.6452
 2654SOL    HW1 8150   0.385   1.959   1.280  0.6948  0.7491 -1.4787
 2654SOL    HW2 8151   0.234   1.946   1.280  0.8095 -0.7697 -0.7315
 2655SOL     OW 8152   2.895   2.248   0.583  0.3717  0.1687  0.0103
 2655SOL    HW1 8153   2.918   2.182   0.517  3.4603 -1.3088  2.3089
 2655SOL    HW2 8154   2.829   2.303   0.540  1.2521 -1.4299 -3.7978
 2656SOL     OW 8155   1.848   4.621   4.302 -0.4361  0.7097 -0.4874
 2656SOL    HW1 8156   1.789   4.686   4.340 -0.6300  0.5183 -0.4623
 2656SOL    HW2 8157   1.935   4.659   4.313 -0.5282  0.8550 -0.2480
 2657SOL     OW 8158   4.058   0.966   3.015 -0.3291 -0.1906 -0.2589
 2657SOL    HW1 8159   4.127   1.025   3.047  0.0916  0.2536 -1.8428
 2657SOL    HW2 8160   3.976   1.006   3.044  0.0263  0.1177  0.3373
 2658SOL     OW 8161   2.914   0.406   0.386 -0.1070 -0.3881  0.6090
 2658SOL    HW1 8162   2.931   0.499   0.403  0.4319 -0.3588 -0.0509
 2658SOL    HW2 8163   2.820   0.396   0.401 -0.2028  0.3090  0.5132
 2659SOL     OW 8164   3.323   2.496   1.023 -0.1524  0.2087  0.6870
 2659SOL    HW1 8165   3.408   2.510   0.980 -0.0047 -2.1336  0.0679
 2659SOL    HW2 8166   3.268   2.567   0.991  1.8389  2.5198  2.0202
 2660SOL     OW 8167   2.600   1.175   4.059  0.0778  0.9188 -0.3033
 2660SOL    HW1 8168   2.600   1.269   4.073  0.5164  0.6561  1.9159
 2660SOL    HW2 8169   2.693   1.152   4.051  0.1916  0.4130  1.8155
 2661SOL     OW 8170   2.605   1.701   0.495 -0.0389 -0.3033  0.0192
 2661SOL    HW1 8171   2.590   1.607   0.506 -0.6512 -0.0949  1.0732
 2661SOL    HW2 8172   2.640   1.709   0.406 -1.6363 -1.3481 -0.7449
 2662SOL     OW 8173   0.357   2.088   2.955 -0.0844  0.5432 -0.4342
 2662SOL    HW1 8174   0.405   2.152   3.008  1.0960  0.0883 -0.9253
 2662SOL    HW2 8175   0.266   2.119   2.957 -0.0124  0.7360  1.5367
 2663SOL     OW 8176   4.192   1.941   1.368 -0.3613  0.5727 -0.0159
 2663SOL    HW1 8177   4.281   1.928   1.403 -0.8262 -1.7508  0.4524
 2663SOL    HW2 8178   4.185   2.035   1.355  2.2118  0.8105 -0.1609
 2664SOL     OW 8179   3.260   3.689   0.369  0.0782 -0.0048 -0.4853
 2664SOL    HW1 8180   3.200   3.739   0.313  0.1108 -1.1906 -1.6394
 2664SOL    HW2 8181   3.254   3.730   0.455 -2.0499  0.1953 -0.6847
 2665SOL     OW 8182   0.190   3.790   2.687  0.7744 -0.0934  0.4898
 2665SOL    HW1 8183   0.159   3.701   2.702  2.1811 -1.0580 -1.7981
 2665SOL    HW2 8184   0.110   3.841   2.675 -0.1881 -2.1089 -3.2159
 2666SOL     OW 8185   2.594   0.720   2.644  0.0622 -0.1923 -0.4263
 2666SOL    HW1 8186   2.584   0.753   2.555 -2.3749 -0.8989 -0.4792
 2666SOL    HW2 8187   2.675   0.670   2.643  1.0163  1.3114 -1.7469
 2667SOL     OW 8188   4.657   1.056   3.915  0.0415  0.1455  0.0121
 2667SOL    HW1 8189   4.564   1.033   3.921  0.0118 -0.1278 -1.2286
 2667SOL    HW2 8190   4.700   0.975   3.888  0.4729  0.5771 -0.6166
 2668SOL     OW 8191   3.829   3.261   2.175  0.1394  0.1467 -0.2526
 2668SOL    HW1 8192   3.769   3.187   2.176  0.5428 -0.1827  0.7636
 2668SOL    HW2 8193   3.904   3.232   2.227 -0.1560  1.6339  1.0926
 2669SOL     OW 8194   4.128   0.900   4.400 -0.0624  0.1075 -0.2627
 2669SOL    HW1 8195   4.133   0.994   4.422 -0.0524 -0.1851  1.1088
 2669SOL    HW2 8196   4.047   0.870   4.442 -0.4166 -0.3659 -1.2642
 2670SOL     OW 8197   2.181   2.576   4.249  0.1676 -0.0295 -0.3514
 2670SOL    HW1 8198   2.094   2.617   4.248  0.7250  1.4835  2.3118
 2670SOL    HW2 8199   2.238   2.639   4.204  0.2204 -0.0426 -0.3029
 2671SOL     OW 8200   1.713   2.354   0.891  0.1148  0.2307  0.2652
 2671SOL    HW1 8201   1.741   2.383   0.978 -0.3720  0.7002  0.2711
 2671SOL    HW2 8202   1.784   2.298   0.860  0.7024  0.7912  0.5881
 2672SOL     OW 8203   2.232   0.279   3.443 -0.3687  0.2808  0.5327
 2672SOL    HW1 8204   2.296   0.221   3.402  1.4342 -1.6034  5.3007
 2672SOL    HW2 8205   2.282   0.357   3.468 -1.2021  1.0283 -0.0793
 2673SOL     OW 8206   4.196   0.897   1.036  0.0829  0.7235 -0.1308
 2673SOL    HW1 8207   4.288   0.917   1.053  0.5429  0.1184 -1.7643
 2673SOL    HW2 8208   4.186   0.909   0.942 -0.8763 -1.6332 -0.3865
 2674SOL     OW 8209   4.806   3.661   3.621  0.2483 -0.1619 -0.2787
 2674SOL    HW1 8210   4.783   3.615   3.540  1.2164 -0.2873 -0.5005
 2674SOL    HW2 8211   4.724   3.667   3.669  0.1492 -2.6025  0.0075
 2675SOL     OW 8212   4.276   1.178   4.498 -0.1059  0.0301  0.3290
 2675SOL    HW1 8213   4.360   1.199   4.455 -1.0486  0.0721 -1.6156
 2675SOL    HW2 8214   4.287   1.209   4.588  1.3462  1.6582 -0.3368
 2676SOL     OW 8215   1.315   4.492   4.456  0.4791  0.0027 -0.1104
 2676SOL    HW1 8216   1.288   4.570   4.407  0.9224  0.7974  0.8711
 2676SOL    HW2 8217   1.348   4.432   4.389  0.1015  0.6393 -0.8907
 2677SOL     OW 8218   3.501   0.545   3.320  0.9583 -0.3454 -0.0597
 2677SOL    HW1 8219   3.476   0.637   3.317  2.8918  0.2567  0.7033
 2677SOL    HW2 8220   3.596   0.546   3.326  0.9746 -2.3672  0.8946
 2678SOL     OW 8221   3.534   0.097   2.605 -0.2897 -0.4868  0.4535
 2678SOL    HW1 8222   3.507   0.101   2.697  0.3658 -1.5089  0.7109
 2678SOL    HW2 8223   3.588   0.175   2.593  0.4207 -0.8282  1.2341
 2679SOL     OW 8224   3.235   4.895   4.093 -0.0876 -0.6074 -0.7969
 2679SOL    HW1 8225   3.173   4.831   4.129  2.0827 -1.9658  0.7487
 2679SOL    HW2 8226   3.269   4.853   4.014  0.2649 -0.7165 -0.5874
 2680SOL     OW 8227   2.814   3.387   1.750  0.4450 -0.0763 -0.5807
 2680SOL    HW1 8228   2.768   3.303   1.748 -0.0591  0.2086 -1.2490
 2680SOL    HW2 8229   2.891   3.373   1.694  1.1674 -0.5346  0.4919
 2681SOL     OW 8230   3.569   3.703   4.030 -0.4087 -0.1703 -0.1704
 2681SOL    HW1 8231   3.641   3.653   3.992 -0.7376 -0.1300 -0.8584
 2681SOL    HW2 8232   3.491   3.650   4.013 -0.5935 -0.0449  0.2597
 2682SOL     OW 8233   2.958   4.130   3.123 -0.2523 -0.1003  0.4983
 2682SOL    HW1 8234   2.944   4.184   3.045  0.7747 -0.7373 -0.1488
 2682SOL    HW2 8235   2.901   4.054   3.110 -0.5485  0.0935  0.6683
 2683SOL     OW 8236   1.619   1.812   4.661 -0.1427  0.9623  0.0162
 2683SOL    HW1 8237   1.622   1.792   4.755  0.6754 -1.6652 -0.4949
 2683SOL    HW2 8238   1.654   1.901   4.655 -0.2577  1.2152  2.1970
 2684SOL     OW 8239   0.712   2.849   0.105 -0.4695 -0.2138  0.2180
 2684SOL    HW1 8240   0.672   2.934   0.119 -1.1065 -0.3102 -0.9449
 2684SOL    HW2 8241   0.659   2.789   0.158 -1.1783 -0.1638 -0.4155
 2685SOL     OW 8242   4.535   3.538   3.427 -0.1885 -0.2227  0.4025
 2685SOL    HW1 8243   4.592   3.500   3.494  1.9152  1.9311 -0.0410
 2685SOL    HW2 8244   4.549   3.633   3.435 -2.9061  0.3438 -0.4952
 2686SOL     OW 8245   0.980   1.654   3.012  0.0308 -1.1793 -0.4352
 2686SOL    HW1 8246   0.973   1.748   2.992 -0.1065 -0.9717  0.5322
 2686SOL    HW2 8247   0.903   1.635   3.066 -0.2267 -1.9784 -1.0715
 2687SOL     OW 8248   3.027   2.784   2.749  0.0808 -0.2124 -0.2936
 2687SOL    HW1 8249   3.016   2.815   2.659 -1.0504  3.4078  0.8776
 2687SOL    HW2 8250   3.121   2.769   2.759  0.2229 -0.6772 -2.0330
 2688SOL     OW 8251   0.741   3.389   4.123  0.1448 -0.3542  0.4895
 2688SOL    HW1 8252   0.730   3.418   4.214  0.0837  0.3152  0.2705
 2688SOL    HW2 8253   0.675   3.321   4.112 -0.2476 -0.0270  0.7749
 2689SOL     OW 8254   1.492   1.728   1.837  0.2483  0.6605  0.1604
 2689SOL    HW1 8255   1.567   1.680   1.802 -0.4082  0.7398 -1.4633
 2689SOL    HW2 8256   1.417   1.670   1.823 -0.1076  0.8789  1.0848
 2690SOL     OW 8257   4.804   0.715   0.416  0.2605  0.1115  0.2482
 2690SOL    HW1 8258   4.872   0.665   0.460  2.0126  1.2222 -1.0296
 2690SOL    HW2 8259   4.828   0.711   0.323 -1.1117  1.0014 -0.1771
 2691SOL     OW 8260   0.239   0.635   4.453  0.4877 -0.5481  0.5497
 2691SOL    HW1 8261   0.335   0.639   4.453  0.4873 -0.5109 -0.2278
 2691SOL    HW2 8262   0.213   0.669   4.368 -0.1918 -1.1411  0.5120
 2692SOL     OW 8263   3.338   4.591   2.262 -0.1170 -0.4569  0.0682
 2692SOL    HW1 8264   3.336   4.571   2.168 -2.2903 -0.4696  0.0660
 2692SOL    HW2 8265   3.305   4.681   2.268 -0.6502 -0.6940  0.8500
 2693SOL     OW 8266   0.385   1.114   1.521 -0.2884  0.3749  0.2893
 2693SOL    HW1 8267   0.339   1.148   1.444 -1.6570  0.8346  1.2752
 2693SOL    HW2 8268   0.435   1.188   1.554  0.2210  0.2045 -0.0877
 2694SOL     OW 8269   0.296   1.537   4.878 -0.4193  0.2811  0.3367
 2694SOL    HW1 8270   0.321   1.527   4.786 -0.3285  1.1210  0.2600
 2694SOL    HW2 8271   0.256   1.453   4.901 -0.5751  0.1095 -0.5067
 2695SOL     OW 8272   3.231   2.566   1.910  0.3075 -0.8444  0.0490
 2695SOL    HW1 8273   3.318   2.545   1.945  0.5530  0.4980  0.3262
 2695SOL    HW2 8274   3.170   2.520   1.967  0.7697  0.0594  1.3201
 2696SOL     OW 8275   0.999   4.112   3.744  0.4324  0.0710  0.4758
 2696SOL    HW1 8276   0.904   4.117   3.738  0.4565 -1.2223 -1.6373
 2696SOL    HW2 8277   1.016   4.030   3.790  0.5217 -0.1974 -0.0282
 2697SOL     OW 8278   2.405   0.496   3.165 -0.1627  0.3561 -0.3826
 2697SOL    HW1 8279   2.405   0.401   3.160  2.4679  0.3560 -1.8323
 2697SOL    HW2 8280   2.312   0.519   3.175 -0.8081 -2.3296  0.7772
 2698SOL     OW 8281   3.024   2.920   3.705  0.1297  0.2786 -0.1047
 2698SOL    HW1 8282   3.019   2.841   3.759 -0.3529  0.4956  0.1732
 2698SOL    HW2 8283   3.004   2.890   3.616  2.0438 -0.2923 -0.4002
 2699SOL     OW 8284   0.919   0.652   1.881  0.2046 -0.1859  0.1850
 2699SOL    HW1 8285   0.952   0.579   1.934  1.7230 -0.7401 -1.3894
 2699SOL    HW2 8286   0.848   0.614   1.829  0.9488 -0.5569 -0.5836
 2700SOL     OW 8287   4.867   1.939   2.304  0.5168 -0.9104 -0.4699
 2700SOL    HW1 8288   4.845   2.006   2.368  2.5148 -0.3571 -0.2943
 2700SOL    HW2 8289   4.835   1.857   2.342 -3.1647 -0.0023 -1.2891
 2701SOL     OW 8290   2.694   3.982   4.884  0.0887  0.0608  0.6439
 2701SOL    HW1 8291   2.753   3.906   4.893 -0.0177 -0.1187 -0.1177
 2701SOL    HW2 8292   2.744   4.055   4.920  0.3493 -0.2945  1.0195
 2702SOL     OW 8293   0.679   4.875   1.720  0.0479 -0.0310 -0.3763
 2702SOL    HW1 8294   0.772   4.866   1.700 -0.3809 -0.3664 -2.4128
 2702SOL    HW2 8295   0.666   4.969   1.734  0.5581  0.0988 -0.7539
 2703SOL     OW 8296   1.390   2.420   1.086  0.2036 -0.4591  0.1557
 2703SOL    HW1 8297   1.308   2.451   1.124 -0.3070  0.7076 -1.7675
 2703SOL    HW2 8298   1.449   2.413   1.160 -1.5250 -1.0444  1.5634
 2704SOL     OW 8299   0.461   3.691   2.008  0.8025  0.2124  0.2586
 2704SOL    HW1 8300   0.481   3.774   2.051 -1.0095 -0.0510  1.7520
 2704SOL    HW2 8301   0.505   3.625   2.061  1.2378  0.1091 -0.2201
 2705SOL     OW 8302   4.504   0.523   1.241 -0.3989 -0.4806 -0.2696
 2705SOL    HW1 8303   4.552   0.606   1.244  2.4040 -2.0208  0.7081
 2705SOL    HW2 8304   4.508   0.496   1.150  0.6087 -0.5636 -0.2127
 2706SOL     OW 8305   0.786   3.676   2.439  0.7143 -0.2569  0.3425
 2706SOL    HW1 8306   0.781   3.683   2.534 -0.3942  0.0646  0.2688
 2706SOL    HW2 8307   0.764   3.764   2.407 -0.9868 -0.8657 -0.2589
 2707SOL     OW 8308   2.749   2.032   4.861  0.1589  0.6210  0.9173
 2707SOL    HW1 8309   2.819   1.968   4.851 -1.2250 -0.7123 -1.0040
 2707SOL    HW2 8310   2.779   2.109   4.813 -0.5167 -0.7576 -1.9403
 2708SOL     OW 8311   2.898   3.537   0.898 -0.1042  0.0851 -0.5512
 2708SOL    HW1 8312   2.873   3.585   0.820  2.0245  1.5388 -0.4263
 2708SOL    HW2 8313   2.971   3.482   0.870  1.4682  1.4803  0.5729
 2709SOL     OW 8314   4.648   0.491   2.501  0.0819  0.6586 -0.2209
 2709SOL    HW1 8315   4.661   0.401   2.530  0.8172  1.2602  1.4565
 2709SOL    HW2 8316   4.663   0.488   2.407  1.0503 -0.8180 -0.0588
 2710SOL     OW 8317   0.817   4.415   1.147 -0.1225  0.2531  0.6304
 2710SOL    HW1 8318   0.880   4.431   1.077 -0.7422  0.4484  0.1079
 2710SOL    HW2 8319   0.794   4.503   1.179  0.9715  0.1384  1.8376
 2711SOL     OW 8320   3.803   4.254   1.018 -0.3201  0.3266 -0.3138
 2711SOL    HW1 8321   3.720   4.298   1.003 -0.8584 -0.3747  0.5233
 2711SOL    HW2 8322   3.788   4.164   0.992  0.4465  0.3845 -0.9838
 2712SOL     OW 8323   0.964   0.747   3.598 -0.2072 -0.1426 -0.6403
 2712SOL    HW1 8324   1.031   0.685   3.567  1.0825  0.7890  0.1437
 2712SOL    HW2 8325   0.981   0.755   3.692 -0.6834  0.9986 -0.6367
 2713SOL     OW 8326   1.945   3.105   2.768 -0.3832 -0.1998  0.3002
 2713SOL    HW1 8327   1.861   3.151   2.761 -1.8398 -2.4840  1.3695
 2713SOL    HW2 8328   1.969   3.112   2.860  1.6940  2.0344 -0.2986
 2714SOL     OW 8329   1.828   4.161   2.940 -0.5312 -0.0054  0.1137
 2714SOL    HW1 8330   1.853   4.226   2.874 -1.0983  0.1309  0.0311
 2714SOL    HW2 8331   1.764   4.205   2.995  0.0806 -0.0557  0.8833
 2715SOL     OW 8332   3.600   1.762   3.651 -0.4576  0.0274 -0.1503
 2715SOL    HW1 8333   3.603   1.672   3.683  0.1895 -0.0353 -0.3885
 2715SOL    HW2 8334   3.645   1.760   3.567 -3.1841 -0.0521 -1.7317
 2716SOL     OW 8335   3.536   1.770   4.271 -0.6033  0.1533 -0.1914
 2716SOL    HW1 8336   3.552   1.853   4.315 -0.2672 -0.5368  1.0499
 2716SOL    HW2 8337   3.562   1.704   4.335  0.9812 -0.9168 -1.8442
 2717SOL     OW 8338   3.602   0.562   0.456 -0.1973  0.1517 -0.2582
 2717SOL    HW1 8339   3.663   0.601   0.393  2.1389 -1.4183  0.8812
 2717SOL    HW2 8340   3.578   0.478   0.416  0.6524 -0.4898  0.5587
 2718SOL     OW 8341   3.905   3.260   1.188 -0.2690 -0.4000 -0.5759
 2718SOL    HW1 8342   3.908   3.275   1.093 -1.5171 -0.2687 -0.6135
 2718SOL    HW2 8343   3.921   3.347   1.226  1.0614 -0.6049 -0.6413
 2719SOL     OW 8344   1.195   3.611   0.018  0.0932 -0.6288  0.1687
 2719SOL    HW1 8345   1.201   3.566  -0.066  0.2176 -0.9383  0.3416
 2719SOL    HW2 8346   1.143   3.690  -0.000  0.5004 -0.4622 -0.2901
 2720SOL     OW 8347   4.912   1.507   0.277 -0.4237  0.4809 -0.1552
 2720SOL    HW1 8348   4.982   1.544   0.223 -1.6619  2.3434 -0.5554
 2720SOL    HW2 8349   4.836   1.503   0.220 -1.3022  0.8414  0.9397
 2721SOL     OW 8350   2.124   0.961   3.252 -0.2546 -0.1567 -0.4930
 2721SOL    HW1 8351   2.193   1.026   3.262 -0.4001 -0.2757  1.7242
 2721SOL    HW2 8352   2.055   0.989   3.312  0.8740 -3.8041  3.0064
 2722SOL     OW 8353   4.186   4.812   4.601  0.1988 -0.3049  0.0693
 2722SOL    HW1 8354   4.124   4.884   4.602  1.0442  0.4638 -1.0508
 2722SOL    HW2 8355   4.272   4.853   4.596  0.9433 -1.3042  2.6720
 2723SOL     OW 8356   2.161   1.921   3.991 -0.4796  0.5498 -0.2672
 2723SOL    HW1 8357   2.232   1.865   4.024 -1.0275 -0.4691 -0.7796
 2723SOL    HW2 8358   2.094   1.918   4.060  0.6402  2.9378  1.0468
 2724SOL     OW 8359   4.940   2.987   1.357  0.3925  0.0119 -0.4467
 2724SOL    HW1 8360   4.858   2.955   1.396  0.3147 -1.3042 -1.6121
 2724SOL    HW2 8361   4.911   3.052   1.293  0.4780  1.6561  1.1098
 2725SOL     OW 8362   1.361   0.359   2.718 -0.2699 -0.2859 -0.1122
 2725SOL    HW1 8363   1.332   0.399   2.800  1.2908 -1.5555  1.1318
 2725SOL    HW2 8364   1.323   0.272   2.719 -1.2721  0.1122 -1.3855
 2726SOL     OW 8365   2.033   2.799   1.067 -0.2074 -0.3644 -0.5925
 2726SOL    HW1 8366   2.011   2.730   1.004 -0.1473 -2.1522  1.2153
 2726SOL    HW2 8367   2.107   2.763   1.116 -0.9510  0.4340  1.2118
 2727SOL     OW 8368   3.654   3.929   3.862 -0.5103 -0.3430  0.2428
 2727SOL    HW1 8369   3.561   3.939   3.843 -0.4985  2.0801  1.1077
 2727SOL    HW2 8370   3.657   3.877   3.942 -1.0671 -0.8862 -0.0782
 2728SOL     OW 8371   1.835   4.899   2.706  0.0340  0.3632 -0.0224
 2728SOL    HW1 8372   1.802   4.842   2.775 -1.8971  0.4238 -0.8402
 2728SOL    HW2 8373   1.807   4.858   2.624  1.3746  0.8357 -0.7524
 2729SOL     OW 8374   2.684   4.267   3.010  0.3581 -0.0901 -0.4439
 2729SOL    HW1 8375   2.624   4.215   2.958  1.1507  0.8650 -2.4049
 2729SOL    HW2 8376   2.768   4.259   2.966  1.5439 -0.7514  1.7791
 2730SOL     OW 8377   1.731   0.216   1.434 -1.1317 -0.0429  0.2857
 2730SOL    HW1 8378   1.786   0.256   1.501  0.0003 -1.5591  0.3153
 2730SOL    HW2 8379   1.648   0.201   1.477 -0.9129  0.3964  0.8739
 2731SOL     OW 8380   3.284   1.530   3.777 -0.8524 -0.0787 -0.0456
 2731SOL    HW1 8381   3.271   1.450   3.726  0.5099 -1.1348  1.2197
 2731SOL    HW2 8382   3.278   1.600   3.712 -0.3057 -1.3067 -1.4754
 2732SOL     OW 8383   0.435   2.483   3.451 -0.3654  0.1673 -0.2181
 2732SOL    HW1 8384   0.404   2.417   3.388 -0.9752  0.3926 -0.1599
 2732SOL    HW2 8385   0.530   2.472   3.452 -0.3846 -0.1247 -0.8669
 2733SOL     OW 8386   3.638   2.490   4.273 -0.0376  0.1472 -0.2921
 2733SOL    HW1 8387   3.671   2.579   4.284  1.4508 -0.3422 -0.5686
 2733SOL    HW2 8388   3.679   2.441   4.345 -0.0816 -0.5087 -0.7101
 2734SOL     OW 8389   0.453   2.502   1.176  0.1070  0.1509  0.7482
 2734SOL    HW1 8390   0.369   2.458   1.190 -1.2608  1.4487 -2.3459
 2734SOL    HW2 8391   0.518   2.443   1.214 -1.8686 -2.9301 -0.3034
 2735SOL     OW 8392   1.906   2.967   4.072  0.0789  0.0759 -0.3881
 2735SOL    HW1 8393   1.995   3.001   4.078 -0.3535  1.1600  0.5427
 2735SOL    HW2 8394   1.857   3.019   4.137 -1.1864 -0.6015 -0.7668
 2736SOL     OW 8395   0.872   1.054   2.798 -0.1533  0.2590 -0.0901
 2736SOL    HW1 8396   0.929   1.131   2.798  0.6558 -0.3259 -0.6759
 2736SOL    HW2 8397   0.917   0.992   2.855 -0.4665 -0.0237 -0.1515
 2737SOL     OW 8398   4.826   3.583   1.786  0.5996  0.4438 -0.0977
 2737SOL    HW1 8399   4.812   3.654   1.724 -0.9179  0.6903  0.4805
 2737SOL    HW2 8400   4.754   3.522   1.770  1.0957 -0.2813  0.3479
 2738SOL     OW 8401   2.333   4.396   0.271  0.2567  0.3885  0.5008
 2738SOL    HW1 8402   2.410   4.437   0.232 -0.0866  1.6562  1.0826
 2738SOL    HW2 8403   2.360   4.374   0.360  0.1725  0.1344  0.4650
 2739SOL     OW 8404   2.891   0.285   3.275  0.0619 -0.6049  0.0046
 2739SOL    HW1 8405   2.977   0.268   3.314 -0.1921 -0.2832  0.7336
 2739SOL    HW2 8406   2.910   0.328   3.192  0.6132 -0.7332  0.0632
 2740SOL     OW 8407   2.854   2.970   4.725 -0.3322  0.1441 -0.3314
 2740SOL    HW1 8408   2.780   2.989   4.669 -0.3510 -0.8628 -0.6576
 2740SOL    HW2 8409   2.822   2.904   4.786  0.6190 -1.1989 -1.2388
 2741SOL     OW 8410   4.024   4.082   2.475  0.1521 -0.1501 -0.3071
 2741SOL    HW1 8411   4.115   4.089   2.503  0.2343 -1.6723 -0.1013
 2741SOL    HW2 8412   4.029   4.070   2.380  0.2117 -0.8257 -0.2234
 2742SOL     OW 8413   1.318   4.711   3.802  0.2028 -0.5585  0.1258
 2742SOL    HW1 8414   1.228   4.705   3.834  0.0803 -2.5091 -0.4718
 2742SOL    HW2 8415   1.310   4.737   3.711  0.3547  0.8355  0.4853
 2743SOL     OW 8416   0.150   4.355   3.634  0.2566  0.5218  0.5441
 2743SOL    HW1 8417   0.230   4.400   3.605 -0.0883  1.0127  0.3467
 2743SOL    HW2 8418   0.128   4.395   3.718 -0.4584  1.2502  0.0263
 2744SOL     OW 8419   2.371   1.817   4.100  0.3661 -0.5961 -0.3128
 2744SOL    HW1 8420   2.414   1.900   4.125  0.6070 -1.2974  1.7720
 2744SOL    HW2 8421   2.442   1.764   4.063  0.7958 -0.8192  0.7934
 2745SOL     OW 8422   4.236   3.906   0.799  0.8052 -0.1432  0.3853
 2745SOL    HW1 8423   4.162   3.960   0.828  1.2315  0.1205  1.0243
 2745SOL    HW2 8424   4.248   3.844   0.871  1.1118 -0.2808  0.2126
 2746SOL     OW 8425   1.930   4.792   3.651 -0.0684  0.2192  0.0004
 2746SOL    HW1 8426   1.941   4.878   3.691 -0.4332  0.1176  0.3234
 2746SOL    HW2 8427   1.863   4.748   3.704  0.3711 -0.4019  0.0544
 2747SOL     OW 8428   0.247   0.177   0.169  0.1727 -0.0233 -0.5721
 2747SOL    HW1 8429   0.165   0.151   0.127 -0.8036  1.1906  0.5285
 2747SOL    HW2 8430   0.261   0.112   0.237  0.4118 -0.5199 -1.0830
 2748SOL     OW 8431   4.158   3.264   1.805  0.3981 -0.0028  0.0716
 2748SOL    HW1 8432   4.069   3.297   1.792  0.2107 -0.8499 -0.9840
 2748SOL    HW2 8433   4.148   3.191   1.866  0.1876 -0.8039 -0.8927
 2749SOL     OW 8434   1.201   0.213   0.931  0.6996 -0.1865 -0.4864
 2749SOL    HW1 8435   1.166   0.134   0.970 -0.0261 -0.9469 -2.5324
 2749SOL    HW2 8436   1.244   0.259   1.003 -2.1006 -0.5468  1.5740
 2750SOL     OW 8437   4.081   3.544   1.285  0.5413 -0.5359 -0.2250
 2750SOL    HW1 8438   4.162   3.503   1.253  1.3775  0.8777 -0.0397
 2750SOL    HW2 8439   4.082   3.527   1.379 -1.0659 -3.2519 -0.5784
 2751SOL     OW 8440   0.329   0.256   1.169 -0.1067 -0.1732  0.4216
 2751SOL    HW1 8441   0.368   0.236   1.254  1.0748  1.8965  0.4424
 2751SOL    HW2 8442   0.237   0.233   1.178  0.3384 -1.6502  1.6445
 2752SOL     OW 8443   1.420   2.521   3.342 -0.4655  0.1377 -0.7231
 2752SOL    HW1 8444   1.442   2.614   3.344 -1.7410  0.4985 -1.9043
 2752SOL    HW2 8445   1.472   2.482   3.413  1.2023  1.4764 -1.1602
 2753SOL     OW 8446   2.326   1.974   4.797  0.0548  0.5625  0.3195
 2753SOL    HW1 8447   2.240   2.018   4.794 -0.6537 -0.8258 -0.6412
 2753SOL    HW2 8448   2.382   2.037   4.842 -1.1257  2.0931 -0.2116
 2754SOL     OW 8449   0.145   1.212   4.511 -0.0900  0.4686  0.0581
 2754SOL    HW1 8450   0.183   1.127   4.535 -0.2068  0.2784 -0.4243
 2754SOL    HW2 8451   0.208   1.250   4.450 -0.6049  0.2057 -0.6480
 2755SOL     OW 8452   3.378   1.361   2.359  0.8743 -0.1975  0.7130
 2755SOL    HW1 8453   3.298   1.320   2.326  0.7110  1.3313 -0.9231
 2755SOL    HW2 8454   3.420   1.293   2.412 -1.0397 -1.3267  0.8594
 2756SOL     OW 8455   1.405   0.491   4.304 -0.4579 -0.4410 -0.0032
 2756SOL    HW1 8456   1.483   0.438   4.294  0.0568  0.0968  0.9860
 2756SOL    HW2 8457   1.429   0.577   4.270 -0.2995 -0.0187  1.1184
 2757SOL     OW 8458   1.465   0.797   0.636 -0.2899 -0.1133  0.5920
 2757SOL    HW1 8459   1.554   0.763   0.626 -0.0231  0.6903  0.1580
 2757SOL    HW2 8460   1.470   0.855   0.711 -0.9350 -1.6076  1.8534
 2758SOL     OW 8461   4.881   4.764   0.458  0.5476  0.0751  0.3483
 2758SOL    HW1 8462   4.945   4.705   0.497 -0.8189 -1.3571  0.4746
 2758SOL    HW2 8463   4.827   4.709   0.403 -0.6629  1.2356  0.3179
 2759SOL     OW 8464   0.312   2.048   0.953 -0.6899 -0.0319  0.5990
 2759SOL    HW1 8465   0.376   2.028   1.021  0.1015 -0.5880 -0.2732
 2759SOL    HW2 8466   0.235   2.079   1.000  0.0996  0.3172  1.6943
 2760SOL     OW 8467   2.255   0.281   2.907 -0.0512 -0.3986 -0.0969
 2760SOL    HW1 8468   2.335   0.280   2.960  0.9036 -0.1956 -1.4892
 2760SOL    HW2 8469   2.267   0.209   2.845 -0.2045  0.6498 -1.3681
 2761SOL     OW 8470   4.703   1.536   0.082  0.5249  0.1010  0.1401
 2761SOL    HW1 8471   4.729   1.466   0.022  1.3796 -0.4227  1.0787
 2761SOL    HW2 8472   4.641   1.494   0.142 -0.5506  0.6953 -0.5318
 2762SOL     OW 8473   1.663   1.700   1.246 -0.1820  0.2898 -0.6540
 2762SOL    HW1 8474   1.714   1.738   1.318 -0.0462 -0.2996 -0.4330
 2762SOL    HW2 8475   1.709   1.728   1.167  0.2645  0.0908 -0.4697
 2763SOL     OW 8476   2.386   2.125   4.127  0.0688 -0.2650 -0.0226
 2763SOL    HW1 8477   2.296   2.137   4.157 -0.3240 -0.1523 -1.2137
 2763SOL    HW2 8478   2.409   2.209   4.087  0.9445 -0.0687  0.8426
 2764SOL     OW 8479   0.566   3.746   1.753 -0.5065  0.4770  0.3972
 2764SOL    HW1 8480   0.506   3.776   1.685  0.3602 -2.1716 -1.6731
 2764SOL    HW2 8481   0.510   3.733   1.830 -2.3595 -0.4932 -1.0294
 2765SOL     OW 8482   4.357   0.821   3.406 -0.3992  0.4280 -0.2283
 2765SOL    HW1 8483   4.337   0.728   3.400  2.0142 -0.1594 -0.2792
 2765SOL    HW2 8484   4.363   0.838   3.500  2.7192 -0.4399 -0.1459
 2766SOL     OW 8485   2.833   0.157   0.483  0.3529 -0.0319 -0.0490
 2766SOL    HW1 8486   2.887   0.118   0.552 -1.3916 -0.8319  0.9387
 2766SOL    HW2 8487   2.873   0.242   0.466  1.0290  0.0366  1.7157
 2767SOL     OW 8488   0.661   0.176   4.674  0.2559  0.9548  0.0518
 2767SOL    HW1 8489   0.723   0.161   4.745  1.1036 -0.8103 -0.9960
 2767SOL    HW2 8490   0.586   0.121   4.696 -1.1093  3.2089  1.4016
 2768SOL     OW 8491   4.034   1.570   2.426 -0.0277 -0.5136 -0.0535
 2768SOL    HW1 8492   4.036   1.500   2.360  1.2963 -0.6860  0.1347
 2768SOL    HW2 8493   3.995   1.644   2.381 -0.4004 -1.0330 -0.6069
 2769SOL     OW 8494   1.366   2.841   0.166 -0.0277  0.1559 -0.2244
 2769SOL    HW1 8495   1.312   2.761   0.164 -0.8339  0.6482  0.7067
 2769SOL    HW2 8496   1.319   2.899   0.226  0.6876  1.2365 -0.6924
 2770SOL     OW 8497   3.591   2.535   4.908  0.2762  0.3947  0.2306
 2770SOL    HW1 8498   3.647   2.458   4.901 -1.5349 -1.3103  2.6020
 2770SOL    HW2 8499   3.648   2.604   4.941  1.5758 -0.4252 -0.2486
 2771SOL     OW 8500   1.582   4.275   4.134 -0.2132  0.0163 -0.0083
 2771SOL    HW1 8501   1.631   4.347   4.093 -1.2026  0.2370 -0.8613
 2771SOL    HW2 8502   1.593   4.202   4.074 -3.6505  0.9977 -2.1126
 2772SOL     OW 8503   2.636   3.920   1.020  0.4266  0.8071  0.3637
 2772SOL    HW1 8504   2.636   3.864   1.098  0.5697 -0.4900 -0.5361
 2772SOL    HW2 8505   2.602   4.004   1.051  0.6547  0.3804  1.8568
 2773SOL     OW 8506   0.512   3.762   0.169 -0.3119  0.4926  0.4266
 2773SOL    HW1 8507   0.428   3.755   0.125  0.5491 -1.2729 -1.0728
 2773SOL    HW2 8508   0.508   3.697   0.239 -0.8926  1.8452  1.7281
 2774SOL     OW 8509   1.107   3.631   1.475 -0.4768 -0.1548  0.1158
 2774SOL    HW1 8510   1.113   3.709   1.530  0.5486 -2.4468  3.6202
 2774SOL    HW2 8511   1.172   3.646   1.406  1.8905  0.9962  2.3817
 2775SOL     OW 8512   2.768   2.110   3.661  0.2419 -0.0487 -0.3852
 2775SOL    HW1 8513   2.767   2.178   3.593 -0.8941 -0.5138 -0.8552
 2775SOL    HW2 8514   2.757   2.028   3.613  0.2947 -0.4564  0.2900
 2776SOL     OW 8515   3.500   1.363   2.741 -0.2814 -0.2429  0.2977
 2776SOL    HW1 8516   3.439   1.374   2.668  1.9494 -0.5883 -1.7469
 2776SOL    HW2 8517   3.571   1.308   2.705  0.5522 -1.0731  2.9694
 2777SOL     OW 8518   0.099   2.124   0.502 -0.1043 -0.7438  0.4291
 2777SOL    HW1 8519   0.143   2.154   0.422  0.7166  2.3841  1.8932
 2777SOL    HW2 8520   0.152   2.051   0.532  0.7185 -0.7282 -0.8834
 2778SOL     OW 8521   4.157   2.238   1.670 -0.5789 -0.2076  0.4339
 2778SOL    HW1 8522   4.123   2.162   1.623 -2.2161  0.2060  0.8760
 2778SOL    HW2 8523   4.079   2.289   1.693  0.2985  0.4572  2.1266
 2779SOL     OW 8524   0.654   4.488   0.755  0.4257 -0.3359 -0.2071
 2779SOL    HW1 8525   0.656   4.583   0.760  0.6558 -0.3539  0.1199
 2779SOL    HW2 8526   0.746   4.463   0.741  0.1133 -0.4118 -2.3780
 2780SOL     OW 8527   1.800   4.072   0.291 -0.3529  0.3203 -0.0513
 2780SOL    HW1 8528   1.868   4.009   0.268  0.2839  1.0595 -0.2575
 2780SOL    HW2 8529   1.814   4.088   0.385 -1.4051 -0.8771  0.3289
 2781SOL     OW 8530   2.331   1.359   3.892  0.4240 -1.0974 -0.0698
 2781SOL    HW1 8531   2.250   1.331   3.935  0.1142 -0.1747 -0.0304
 2781SOL    HW2 8532   2.380   1.278   3.880  0.9501 -1.3342  2.8747
 2782SOL     OW 8533   3.396   4.573   0.010 -0.2138  0.4000 -0.3869
 2782SOL    HW1 8534   3.319   4.574  -0.047 -0.5555  0.1857  0.0617
 2782SOL    HW2 8535   3.365   4.614   0.091 -0.1187 -0.5203  0.1260
 2783SOL     OW 8536   4.774   4.305   3.077 -0.2408  0.0099  0.1263
 2783SOL    HW1 8537   4.787   4.230   3.019  0.6271  0.0741  0.2317
 2783SOL    HW2 8538   4.841   4.296   3.144  1.5836  2.2091 -1.2479
 2784SOL     OW 8539   1.247   1.424   2.598 -0.3439 -0.5922 -0.0557
 2784SOL    HW1 8540   1.224   1.462   2.682  0.5062  0.7027 -0.3814
 2784SOL    HW2 8541   1.264   1.332   2.617 -0.1643 -0.3214  1.1887
 2785SOL     OW 8542   1.008   4.521   1.865 -0.0026 -0.0532  0.5924
 2785SOL    HW1 8543   0.973   4.608   1.845  2.3236  0.9257  0.4713
 2785SOL    HW2 8544   1.080   4.537   1.926 -0.2483 -2.0300  1.4889
 2786SOL     OW 8545   0.555   1.933   3.291  0.1395  0.1205 -0.1628
 2786SOL    HW1 8546   0.550   1.867   3.222 -1.4974 -0.7876  0.7812
 2786SOL    HW2 8547   0.465   1.962   3.304  0.7816  2.5456 -0.5023
 2787SOL     OW 8548   4.521   4.714   3.894  0.1556 -0.2415 -0.3055
 2787SOL    HW1 8549   4.531   4.619   3.896  0.5376 -0.2599 -1.9272
 2787SOL    HW2 8550   4.500   4.738   3.984  1.4401 -1.7083  0.4279
 2788SOL     OW 8551   4.052   0.272   0.833  0.2037 -0.7673 -0.3731
 2788SOL    HW1 8552   4.085   0.190   0.798  1.6308 -0.9309  1.2180
 2788SOL    HW2 8553   4.111   0.293   0.905 -0.6999  1.1716 -0.1285
 2789SOL     OW 8554   0.691   0.631   0.012 -0.5704  0.3158 -0.0498
 2789SOL    HW1 8555   0.742   0.665   0.085 -0.5784 -1.0936  0.6460
 2789SOL    HW2 8556   0.617   0.586   0.053  0.1264 -1.6447 -0.8198
 2790SOL     OW 8557   3.612   2.975   2.371  0.4131  0.7687  0.0849
 2790SOL    HW1 8558   3.545   2.982   2.439  0.0657  1.1682 -0.2919
 2790SOL    HW2 8559   3.618   2.881   2.353 -0.8413  0.8043 -0.6383
 2791SOL     OW 8560   0.783   1.053   2.441  0.1981 -0.1236  0.0689
 2791SOL    HW1 8561   0.791   1.101   2.523  2.4862 -0.1578 -0.0836
 2791SOL    HW2 8562   0.872   1.024   2.420 -0.0092  1.1235 -3.1857
 2792SOL     OW 8563   2.135   0.188   1.500 -0.1197  0.0824  0.3488
 2792SOL    HW1 8564   2.084   0.109   1.483  0.5902 -0.3618  0.2750
 2792SOL    HW2 8565   2.226   0.160   1.497  0.1160  0.6240  1.7073
 2793SOL     OW 8566   4.210   1.930   0.372  0.0454 -0.0774 -0.0095
 2793SOL    HW1 8567   4.300   1.897   0.369 -0.4062 -1.3694 -2.5231
 2793SOL    HW2 8568   4.197   1.973   0.287 -1.9978 -0.8197 -0.1398
 2794SOL     OW 8569   3.741   1.294   2.582 -0.4041 -0.2277 -0.4648
 2794SOL    HW1 8570   3.739   1.207   2.542  0.3653 -0.2741 -0.4277
 2794SOL    HW2 8571   3.832   1.322   2.573 -0.6881  0.6625 -0.6521
 2795SOL     OW 8572   0.988   0.489   3.254 -0.0439  0.5149  0.0472
 2795SOL    HW1 8573   0.970   0.496   3.160 -0.2392  0.9940  0.1173
 2795SOL    HW2 8574   0.922   0.427   3.286 -1.0680  1.6115  0.1522
 2796SOL     OW 8575   0.806   3.940   3.378  0.0280  0.0649  0.4277
 2796SOL    HW1 8576   0.801   4.003   3.305 -0.1992 -0.6666 -0.2018
 2796SOL    HW2 8577   0.743   3.973   3.442  0.7975  1.1521  0.6436
 2797SOL     OW 8578   4.898   1.766   3.577 -0.0757  0.8643 -0.3305
 2797SOL    HW1 8579   4.968   1.761   3.642 -0.1108 -0.0386 -0.3456
 2797SOL    HW2 8580   4.939   1.806   3.500 -0.2852  2.8897  0.5483
 2798SOL     OW 8581   4.172   0.306   4.537 -0.1765  0.1333 -0.0696
 2798SOL    HW1 8582   4.250   0.361   4.536  0.6246 -0.8711  2.1816
 2798SOL    HW2 8583   4.104   0.362   4.575  0.0186  0.3131  0.0176
 2799SOL     OW 8584   4.395   2.567   2.249  0.0039  0.4257 -0.3763
 2799SOL    HW1 8585   4.479   2.525   2.268 -0.0168  0.0547 -1.0548
 2799SOL    HW2 8586   4.392   2.643   2.307  1.5327  1.3629 -1.4533
 2800SOL     OW 8587   3.975   1.449   1.356 -0.0407  0.4587 -0.0738
 2800SOL    HW1 8588   3.922   1.517   1.315 -0.3660  0.0535 -0.3276
 2800SOL    HW2 8589   3.946   1.448   1.448 -1.4916 -0.7178 -0.5088
 2801SOL     OW 8590   1.399   0.479   3.608 -0.0291 -0.9122  0.4001
 2801SOL    HW1 8591   1.444   0.451   3.529 -1.0680 -1.1503 -0.1173
 2801SOL    HW2 8592   1.394   0.574   3.601 -1.5937 -1.0369 -0.6632
 2802SOL     OW 8593   2.204   4.151   4.763  0.3311  0.0631  0.2809
 2802SOL    HW1 8594   2.254   4.126   4.841  1.1371  0.1437 -0.1996
 2802SOL    HW2 8595   2.145   4.077   4.748  0.1422  0.0680  0.9941
 2803SOL     OW 8596   3.939   2.712   0.866  0.3962 -0.1575 -1.1384
 2803SOL    HW1 8597   3.891   2.777   0.917  1.3297  0.7028 -1.3321
 2803SOL    HW2 8598   4.000   2.672   0.927  0.1351 -0.5381 -1.1241
 2804SOL     OW 8599   3.850   2.314   2.216 -0.5477 -0.3330 -0.0426
 2804SOL    HW1 8600   3.907   2.290   2.289 -1.4659  0.9717  1.1490
 2804SOL    HW2 8601   3.765   2.276   2.240 -1.2040  1.2863  0.2832
 2805SOL     OW 8602   1.729   0.325   1.138  0.5253 -0.4831 -0.2626
 2805SOL    HW1 8603   1.698   0.246   1.094  3.4474 -2.2468  0.5450
 2805SOL    HW2 8604   1.718   0.307   1.231 -1.8740  1.5561 -0.0515
 2806SOL     OW 8605   1.989   3.125   4.586  0.2650  0.0744  0.1669
 2806SOL    HW1 8606   2.014   3.033   4.575  1.6883  0.3364  1.0688
 2806SOL    HW2 8607   1.997   3.162   4.498  0.0643 -0.5566 -0.1262
 2807SOL     OW 8608   3.955   3.806   3.482  0.4129  0.4793 -0.4227
 2807SOL    HW1 8609   4.029   3.782   3.425  1.0551  0.3588  0.4480
 2807SOL    HW2 8610   3.996   3.830   3.565 -0.5670  0.1042  0.1733
 2808SOL     OW 8611   0.092   2.134   3.044 -0.5502  0.4077 -0.5191
 2808SOL    HW1 8612   0.006   2.095   3.037  0.1813 -1.2924 -0.4177
 2808SOL    HW2 8613   0.121   2.113   3.133  0.3048  0.2108 -0.8341
 2809SOL     OW 8614   0.662   4.374   4.713 -0.1488  0.6094  0.0012
 2809SOL    HW1 8615   0.719   4.331   4.777  0.6210  0.8170 -0.5228
 2809SOL    HW2 8616   0.723   4.422   4.657 -0.9342  1.8756  0.2003
 2810SOL     OW 8617   2.718   0.168   4.536  0.0766  0.2465 -0.2211
 2810SOL    HW1 8618   2.727   0.136   4.446 -1.1332 -1.2704  0.1585
 2810SOL    HW2 8619   2.676   0.096   4.583  0.2932  1.1756  1.4723
 2811SOL     OW 8620   4.836   3.712   2.483  0.0571 -0.6634  0.3369
 2811SOL    HW1 8621   4.905   3.698   2.419  0.1236 -0.5852  0.3910
 2811SOL    HW2 8622   4.854   3.649   2.553  1.2365  0.6813  1.3021
 2812SOL     OW 8623   0.698   4.807   2.551 -0.5976  0.6829 -0.1022
 2812SOL    HW1 8624   0.632   4.740   2.531 -0.0175 -0.1633  0.6986
 2812SOL    HW2 8625   0.673   4.841   2.637 -0.1818  0.5803  0.0644
 2813SOL     OW 8626   2.811   1.840   3.801 -0.3116  0.5826 -0.1246
 2813SOL    HW1 8627   2.849   1.928   3.805 -2.1624  1.4579 -0.6999
 2813SOL    HW2 8628   2.818   1.815   3.709 -1.9712  1.1906 -0.4501
 2814SOL     OW 8629   2.925   1.078   0.284  0.4638  0.0544  0.4511
 2814SOL    HW1 8630   2.853   1.023   0.254  1.4805 -1.1852  0.1874
 2814SOL    HW2 8631   2.905   1.096   0.376 -1.4690  1.8972 -0.2503
 2815SOL     OW 8632   2.782   1.683   0.011  0.0675  0.7165 -0.0659
 2815SOL    HW1 8633   2.772   1.679   0.106  0.8594  1.4965  0.0591
 2815SOL    HW2 8634   2.742   1.601  -0.020 -1.1562  0.9242  0.8430
 2816SOL     OW 8635   4.046   1.872   4.045  0.1037  0.1493  0.0111
 2816SOL    HW1 8636   4.138   1.855   4.027  1.1909  2.0190  2.9223
 2816SOL    HW2 8637   3.998   1.808   3.992  2.9980 -0.4242 -2.1510
 2817SOL     OW 8638   0.780   2.989   3.342 -0.1915 -0.3115  0.2926
 2817SOL    HW1 8639   0.768   3.042   3.420 -1.4696  1.2682 -0.9121
 2817SOL    HW2 8640   0.698   2.940   3.334 -1.1092  1.3993 -1.3658
 2818SOL     OW 8641   3.390   3.900   3.804 -0.1331  0.5211 -0.0240
 2818SOL    HW1 8642   3.358   3.832   3.862 -1.6084  2.8808  2.1442
 2818SOL    HW2 8643   3.380   3.864   3.716 -1.0440 -1.9071  0.9925
 2819SOL     OW 8644   4.405   2.090   1.211 -0.4299  0.1447 -0.0743
 2819SOL    HW1 8645   4.348   2.060   1.140  1.8891  2.0589 -2.9941
 2819SOL    HW2 8646   4.479   2.029   1.210  0.0114  0.6696  0.1226
 2820SOL     OW 8647   3.954   3.093   1.606  0.4115  0.1718 -0.3115
 2820SOL    HW1 8648   3.974   3.099   1.513  0.5056  0.8856 -0.2475
 2820SOL    HW2 8649   3.953   2.999   1.624  2.3477  0.0505 -0.6038
 2821SOL     OW 8650   3.752   2.348   4.474  0.4669  0.0100 -0.3099
 2821SOL    HW1 8651   3.700   2.326   4.551 -0.7441  0.6725 -0.9077
 2821SOL    HW2 8652   3.794   2.265   4.449  0.2537 -0.3833  0.5807
 2822SOL     OW 8653   4.826   4.117   4.560 -0.0017  0.0963  0.0839
 2822SOL    HW1 8654   4.802   4.154   4.475  0.7821  0.9616  0.2201
 2822SOL    HW2 8655   4.742   4.091   4.599 -0.5184  1.0288 -0.3551
 2823SOL     OW 8656   0.945   4.806   1.687  0.0650  0.0783  0.5180
 2823SOL    HW1 8657   1.001   4.760   1.624  0.4263  1.8365 -0.4877
 2823SOL    HW2 8658   1.005   4.861   1.737 -0.2045 -1.3468  2.5364
 2824SOL     OW 8659   2.521   3.837   1.420 -0.2340 -0.2909 -0.0476
 2824SOL    HW1 8660   2.599   3.860   1.369  0.4890  2.1603  1.9296
 2824SOL    HW2 8661   2.536   3.747   1.449  1.6229 -0.0386 -0.1385
 2825SOL     OW 8662   3.418   4.880   0.700 -0.3059 -0.3730  0.1998
 2825SOL    HW1 8663   3.443   4.943   0.632 -2.0618  1.0208  0.7745
 2825SOL    HW2 8664   3.338   4.840   0.667 -1.1537  0.2842  1.3716
 2826SOL     OW 8665   0.434   4.507   0.162  0.2486  0.3996  0.2668
 2826SOL    HW1 8666   0.383   4.492   0.083  0.0228  0.4374  0.4047
 2826SOL    HW2 8667   0.505   4.442   0.158  0.9001  1.1326 -0.5269
 2827SOL     OW 8668   1.097   2.691   2.462 -0.5536  0.2527 -0.8302
 2827SOL    HW1 8669   1.102   2.597   2.474 -0.2030  0.3001 -0.6021
 2827SOL    HW2 8670   1.022   2.704   2.404 -1.2049 -0.1042 -0.0805
 2828SOL     OW 8671   4.589   4.196   3.945  0.2040  0.3047 -0.4523
 2828SOL    HW1 8672   4.637   4.125   3.902  2.7406  1.0751  0.8942
 2828SOL    HW2 8673   4.570   4.162   4.032  0.3894  0.8386 -0.2027
 2829SOL     OW 8674   3.180   3.977   2.955  0.4153  0.1874 -0.4576
 2829SOL    HW1 8675   3.194   4.071   2.968  0.7114  0.1497 -0.4990
 2829SOL    HW2 8676   3.094   3.971   2.912  0.3985  0.4376 -0.4582
 2830SOL     OW 8677   0.993   2.572   4.369 -0.0908  0.1855  0.1730
 2830SOL    HW1 8678   0.974   2.479   4.354 -0.2731  0.1731  0.4779
 2830SOL    HW2 8679   1.086   2.581   4.349 -0.7435  0.6567 -3.3883
 2831SOL     OW 8680   3.538   3.258   3.556  0.3244  0.4883 -0.1881
 2831SOL    HW1 8681   3.455   3.298   3.583  1.6456  2.2654  1.5912
 2831SOL    HW2 8682   3.584   3.328   3.508  2.0453  0.7020  1.6149
 2832SOL     OW 8683   4.885   0.316   2.841 -0.4803  0.0939  0.1210
 2832SOL    HW1 8684   4.796   0.297   2.868  0.1901 -2.0689  1.0273
 2832SOL    HW2 8685   4.909   0.396   2.889 -1.5044 -0.0057  0.8132
 2833SOL     OW 8686   4.768   1.945   0.337  0.3772  0.1437 -0.5049
 2833SOL    HW1 8687   4.694   1.953   0.276  0.6966 -0.8162 -1.0436
 2833SOL    HW2 8688   4.844   1.975   0.286  0.4171  0.8133 -0.0621
 2834SOL     OW 8689   0.243   2.617   0.897  0.0425 -0.0203 -0.2268
 2834SOL    HW1 8690   0.213   2.596   0.985  1.7419 -2.9121 -0.2100
 2834SOL    HW2 8691   0.335   2.643   0.908  0.3455 -0.6352 -1.1577
 2835SOL     OW 8692   4.061   3.526   2.155  0.4159  0.4567  0.0937
 2835SOL    HW1 8693   4.125   3.597   2.154 -0.2576  1.1114  1.0203
 2835SOL    HW2 8694   4.036   3.514   2.064  1.5951  0.4276 -0.2319
 2836SOL     OW 8695   2.983   4.256   3.699  0.4573 -0.2066 -0.0862
 2836SOL    HW1 8696   2.995   4.204   3.619 -0.1300  0.1891 -0.4416
 2836SOL    HW2 8697   3.040   4.332   3.686  0.2814 -0.0896 -0.1811
 2837SOL     OW 8698   0.937   2.071   1.785  0.1184  0.2733  0.0536
 2837SOL    HW1 8699   0.913   2.133   1.717  1.2201  1.0360  0.3235
 2837SOL    HW2 8700   0.981   1.999   1.738 -1.0663 -0.2706 -0.2466
 2838SOL     OW 8701   1.097   2.082   1.386  0.3294 -0.4528 -0.5136
 2838SOL    HW1 8702   1.117   2.137   1.310  0.7601 -0.3045 -0.2952
 2838SOL    HW2 8703   1.182   2.053   1.418  0.1796 -0.2098  0.1357
 2839SOL     OW 8704   1.223   3.445   2.374  0.1084  0.0827  0.1605
 2839SOL    HW1 8705   1.169   3.446   2.295  1.1916 -1.0171 -0.6283
 2839SOL    HW2 8706   1.204   3.361   2.415  1.8769 -0.7608 -0.6378
 2840SOL     OW 8707   2.070   3.487   1.861  0.0378 -0.0474  0.1270
 2840SOL    HW1 8708   2.103   3.576   1.859  0.7558 -0.3191 -0.3079
 2840SOL    HW2 8709   1.986   3.491   1.816 -0.4422  0.6059  1.0486
 2841SOL     OW 8710   3.145   4.861   1.993  0.2147 -0.1544 -0.1266
 2841SOL    HW1 8711   3.068   4.915   1.975  1.1944  1.1461 -0.4856
 2841SOL    HW2 8712   3.180   4.895   2.075  2.1452  1.3173 -1.5015
 2842SOL     OW 8713   2.891   4.264   0.705 -0.3218  0.5238  0.1375
 2842SOL    HW1 8714   2.912   4.343   0.654 -0.7082  0.7160  0.2707
 2842SOL    HW2 8715   2.952   4.266   0.779  2.4160 -1.3855 -1.8777
 2843SOL     OW 8716   3.027   4.454   0.550 -0.3376  0.0025  0.8934
 2843SOL    HW1 8717   3.055   4.399   0.476  0.0995  1.4154 -0.0320
 2843SOL    HW2 8718   3.109   4.483   0.590 -0.5683 -0.2277  1.5451
 2844SOL     OW 8719   1.247   3.787   1.017 -0.1857  0.3385  0.1093
 2844SOL    HW1 8720   1.168   3.811   1.066  0.2963  0.7074  0.7086
 2844SOL    HW2 8721   1.215   3.728   0.948 -0.9226  0.1240  0.6228
 2845SOL     OW 8722   1.043   2.764   4.798 -0.6123 -0.2367 -0.1344
 2845SOL    HW1 8723   1.056   2.671   4.818  2.0126 -0.2421 -1.3775
 2845SOL    HW2 8724   1.101   2.780   4.723 -0.3669  2.5844  0.5477
 2846SOL     OW 8725   0.050   0.819   2.051  0.5377  0.0229  0.4589
 2846SOL    HW1 8726  -0.005   0.872   2.108 -0.5540  1.1432 -1.5008
 2846SOL    HW2 8727   0.034   0.854   1.963  2.3793 -1.3797 -0.5218
 2847SOL     OW 8728   0.204   3.524   0.402  0.2215 -0.0900 -0.3730
 2847SOL    HW1 8729   0.266   3.588   0.437 -0.2955 -0.6740  1.7486
 2847SOL    HW2 8730   0.140   3.576   0.353  0.9946  0.7713 -0.4854
 2848SOL     OW 8731   0.813   1.568   0.217  0.3574  0.1143  0.4989
 2848SOL    HW1 8732   0.754   1.536   0.149  0.5903 -0.0068  0.3503
 2848SOL    HW2 8733   0.756   1.603   0.285  0.1034 -0.4027  0.5554
 2849SOL     OW 8734   2.143   0.508   0.202  0.0169  0.2354  0.0893
 2849SOL    HW1 8735   2.188   0.436   0.158  0.6585  0.6829 -0.0137
 2849SOL    HW2 8736   2.054   0.506   0.166 -0.1919 -0.9399  0.6316
 2850SOL     OW 8737   1.225   2.583   0.544  0.0040 -0.6111  0.5112
 2850SOL    HW1 8738   1.292   2.610   0.607  0.5308 -1.8271  0.4841
 2850SOL    HW2 8739   1.165   2.658   0.541  1.0360  0.2672  0.9628
 2851SOL     OW 8740   3.892   0.163   4.029  0.4930 -0.0628  0.4017
 2851SOL    HW1 8741   3.840   0.112   3.967 -0.9617  1.8979 -0.0725
 2851SOL    HW2 8742   3.847   0.153   4.112  0.7133 -0.2334  0.5036
 2852SOL     OW 8743   4.423   2.355   3.922 -0.4738 -0.6848  0.2888
 2852SOL    HW1 8744   4.503   2.305   3.940 -0.9038 -1.2716  0.5837
 2852SOL    HW2 8745   4.354   2.309   3.970 -0.9058  0.1142  0.4588
 2853SOL     OW 8746   1.602   3.321   4.128 -0.2114 -0.3864  0.0141
 2853SOL    HW1 8747   1.557   3.282   4.053  0.6979 -0.3728 -0.5629
 2853SOL    HW2 8748   1.543   3.390   4.159 -0.5412 -0.2978 -0.7834
 2854SOL     OW 8749   3.570   0.412   1.357  0.0685 -0.1165 -0.1394
 2854SOL    HW1 8750   3.599   0.408   1.266 -0.2198 -0.2021 -0.2260
 2854SOL    HW2 8751   3.478   0.437   1.352  0.3854  1.2055  0.1749
 2855SOL     OW 8752   4.043   1.119   4.884  0.0364 -0.0876  0.0242
 2855SOL    HW1 8753   3.960   1.074   4.867  0.5834 -0.9096 -0.5735
 2855SOL    HW2 8754   4.082   1.068   4.956  0.4817 -0.3313 -0.3884
 2856SOL     OW 8755   3.701   1.223   4.787 -0.2951  0.2355 -0.1349
 2856SOL    HW1 8756   3.747   1.257   4.710 -0.5982  1.3990  0.1800
 2856SOL    HW2 8757   3.658   1.143   4.755  0.5985  0.0185 -0.8449
 2857SOL     OW 8758   0.280   4.631   2.985 -0.6061  0.7002 -0.0821
 2857SOL    HW1 8759   0.359   4.685   2.973  0.4003 -0.8707 -0.8959
 2857SOL    HW2 8760   0.306   4.564   3.047 -1.7999  1.0361  0.8065
 2858SOL     OW 8761   3.342   4.865   1.792  0.5501  0.0709  0.5300
 2858SOL    HW1 8762   3.298   4.844   1.875  0.4581  0.7269  0.6602
 2858SOL    HW2 8763   3.277   4.916   1.743  0.1503 -1.3464 -0.4777
 2859SOL     OW 8764   0.510   4.278   3.803 -0.1652 -0.2768 -0.2291
 2859SOL    HW1 8765   0.458   4.222   3.746 -2.3646 -0.3699  1.7144
 2859SOL    HW2 8766   0.492   4.245   3.891  0.1398  2.1645  0.8101
 2860SOL     OW 8767   3.807   0.628   1.945 -0.0911  0.0511 -0.3923
 2860SOL    HW1 8768   3.742   0.558   1.939  0.1348 -0.2066  0.1077
 2860SOL    HW2 8769   3.757   0.703   1.978 -0.2157 -0.0341 -0.3838
 2861SOL     OW 8770   2.898   3.985   0.944  0.3576 -0.5047 -0.0633
 2861SOL    HW1 8771   2.922   3.968   0.853 -0.2172  0.8809 -0.4963
 2861SOL    HW2 8772   2.806   3.959   0.950 -0.0396  0.7928 -0.2914
 2862SOL     OW 8773   4.611   1.774   3.299 -0.0220 -0.2513  0.2213
 2862SOL    HW1 8774   4.675   1.719   3.344  0.8291  1.1023  0.7169
 2862SOL    HW2 8775   4.661   1.822   3.234 -0.6712  0.2310  0.0633
 2863SOL     OW 8776   1.606   4.440   1.041 -0.3952  0.4898  1.0329
 2863SOL    HW1 8777   1.580   4.532   1.042  0.3929  0.7258  0.6258
 2863SOL    HW2 8778   1.701   4.442   1.041 -0.3705 -0.3374  1.3598
 2864SOL     OW 8779   3.804   0.033   1.898  0.1521  0.4640  0.9972
 2864SOL    HW1 8780   3.737  -0.027   1.865  0.4977 -0.4755  1.9485
 2864SOL    HW2 8781   3.836  -0.009   1.977  2.1089  0.7353  0.3912
 2865SOL     OW 8782   0.215   2.973   3.426 -0.7893  0.3700  0.3101
 2865SOL    HW1 8783   0.162   3.028   3.484 -1.0618 -1.3374  1.7684
 2865SOL    HW2 8784   0.155   2.944   3.358 -1.2291  0.0736  0.8165
 2866SOL     OW 8785   0.203   0.881   0.365  0.2864  0.3055 -0.1507
 2866SOL    HW1 8786   0.187   0.818   0.435 -2.1204  0.7465 -0.2054
 2866SOL    HW2 8787   0.118   0.922   0.350  1.4360  2.5048 -1.1525
 2867SOL     OW 8788   3.927   2.975   4.924 -1.0887 -0.0142 -0.5005
 2867SOL    HW1 8789   3.934   2.987   4.830  0.4454 -0.1156 -0.4212
 2867SOL    HW2 8790   4.005   2.924   4.948  0.2107  2.5555  1.2196
 2868SOL     OW 8791   4.465   0.289   0.444  0.4561  0.0429  0.2120
 2868SOL    HW1 8792   4.525   0.363   0.451 -0.8237  0.9603  2.1648
 2868SOL    HW2 8793   4.506   0.220   0.495  0.5096  0.2260  0.4200
 2869SOL     OW 8794   0.953   2.724   2.887 -0.1561 -0.0500  0.4310
 2869SOL    HW1 8795   0.873   2.729   2.834 -0.5428 -0.9728  0.9008
 2869SOL    HW2 8796   0.927   2.757   2.973  0.2524  0.6464  0.2920
 2870SOL     OW 8797   2.189   1.324   4.717 -0.1002 -0.1981  0.0599
 2870SOL    HW1 8798   2.114   1.383   4.717 -1.3922 -1.7714  0.9629
 2870SOL    HW2 8799   2.152   1.238   4.701  1.7315 -0.8187 -1.2150
 2871SOL     OW 8800   4.307   3.484   3.668 -0.0522  0.6520 -0.1122
 2871SOL    HW1 8801   4.304   3.425   3.593 -0.2018 -0.5042  0.7761
 2871SOL    HW2 8802   4.291   3.428   3.744  0.0811  1.7908  0.7931
 2872SOL     OW 8803   1.478   2.159   4.417 -0.4277 -0.2770  0.0010
 2872SOL    HW1 8804   1.509   2.070   4.403 -0.6353 -0.2029 -0.9788
 2872SOL    HW2 8805   1.393   2.163   4.373  0.8180  1.1855 -2.5058
 2873SOL     OW 8806   1.882   3.310   0.010 -0.2613  0.2880 -0.3533
 2873SOL    HW1 8807   1.943   3.347  -0.054 -1.6120  0.6972 -1.4540
 2873SOL    HW2 8808   1.797   3.343  -0.017 -1.0595 -0.7649  0.7830
 2874SOL     OW 8809   1.029   1.883   1.586 -0.2544 -0.0551 -0.2604
 2874SOL    HW1 8810   0.944   1.917   1.560  0.4072  1.0450 -1.0591
 2874SOL    HW2 8811   1.070   1.856   1.504  0.4835  0.1987  0.0171
 2875SOL     OW 8812   4.032   2.861   2.185 -0.4898  0.4962 -0.0538
 2875SOL    HW1 8813   3.968   2.917   2.229 -1.1698 -0.5885  0.3445
 2875SOL    HW2 8814   4.062   2.800   2.252  1.0322  1.0227 -0.2099
 2876SOL     OW 8815   1.241   2.966   0.753 -0.0227 -0.3482  0.5008
 2876SOL    HW1 8816   1.298   2.913   0.698  0.0119  1.0108 -0.8237
 2876SOL    HW2 8817   1.201   2.903   0.813  0.5196 -1.7774 -0.5775
 2877SOL     OW 8818   0.618   0.418   4.047  0.5808  0.0430  0.2445
 2877SOL    HW1 8819   0.707   0.449   4.064  0.3387  0.9232 -0.0534
 2877SOL    HW2 8820   0.601   0.443   3.957  0.5501 -1.4257 -0.1817
 2878SOL     OW 8821   1.418   3.929   0.040 -0.8890 -0.4881  0.1802
 2878SOL    HW1 8822   1.393   3.995   0.105 -1.2761 -0.8533  0.4081
 2878SOL    HW2 8823   1.397   3.968  -0.044  0.5422  0.4029  0.1937
 2879SOL     OW 8824   0.283   4.463   4.889 -0.3792  0.4432  0.4369
 2879SOL    HW1 8825   0.331   4.533   4.844  0.3956 -0.9730 -1.0345
 2879SOL    HW2 8826   0.197   4.463   4.847 -0.5428  0.8100  0.7664
 2880SOL     OW 8827   0.811   3.347   2.688 -0.1197 -0.0829  0.1669
 2880SOL    HW1 8828   0.863   3.297   2.750 -0.4828 -1.1554 -0.3654
 2880SOL    HW2 8829   0.866   3.422   2.665  1.0078 -0.9532 -0.0546
 2881SOL     OW 8830   1.532   3.171   0.488  0.1081  0.1118  0.2882
 2881SOL    HW1 8831   1.492   3.164   0.575 -1.6363 -0.8351 -0.5500
 2881SOL    HW2 8832   1.556   3.082   0.465 -2.7533 -0.2807 -1.6365
 2882SOL     OW 8833   2.542   0.484   0.676 -0.3027  0.2840 -0.6357
 2882SOL    HW1 8834   2.534   0.579   0.666 -0.9490  0.2338 -0.6509
 2882SOL    HW2 8835   2.452   0.453   0.680 -0.1042 -0.1791  0.8519
 2883SOL     OW 8836   4.717   4.367   1.238 -0.0276 -0.2032 -0.5597
 2883SOL    HW1 8837   4.668   4.346   1.318  0.8431 -0.6871 -0.1395
 2883SOL    HW2 8838   4.711   4.288   1.185  1.2790 -0.7145  0.0118
 2884SOL     OW 8839   3.080   0.376   1.855  0.1412 -0.3254 -0.2212
 2884SOL    HW1 8840   3.067   0.399   1.763 -1.0252  0.9339  0.2319
 2884SOL    HW2 8841   3.043   0.450   1.904  1.8482 -0.3769  1.2576
 2885SOL     OW 8842   2.656   2.312   3.960  0.5454  0.1511 -0.0036
 2885SOL    HW1 8843   2.690   2.257   4.031 -0.3637 -0.0715  0.2753
 2885SOL    HW2 8844   2.632   2.394   4.003  0.0742  0.0478 -0.0683
 2886SOL     OW 8845   4.296   1.337   1.991  0.4397 -0.3515  0.3190
 2886SOL    HW1 8846   4.349   1.365   1.916  0.6418 -0.1110  0.5518
 2886SOL    HW2 8847   4.335   1.381   2.066 -0.6604  0.5689  0.3704
 2887SOL     OW 8848   0.610   0.031   2.756  0.5679  0.0078  0.2009
 2887SOL    HW1 8849   0.656   0.104   2.715  1.1605 -0.4501  0.0440
 2887SOL    HW2 8850   0.530   0.021   2.705  1.5006 -0.8406 -1.1489
 2888SOL     OW 8851   4.475   2.536   2.554  0.5023 -0.2869  0.4830
 2888SOL    HW1 8852   4.448   2.618   2.512  0.0113  0.3684  2.0148
 2888SOL    HW2 8853   4.570   2.534   2.542  0.4290  0.1167 -0.2243
 2889SOL     OW 8854   0.527   3.681   2.853 -0.2181 -0.1844 -0.6336
 2889SOL    HW1 8855   0.591   3.678   2.924 -0.6149  1.3795 -0.1720
 2889SOL    HW2 8856   0.544   3.602   2.802 -1.6006 -2.7921  2.5904
 2890SOL     OW 8857   1.849   4.083   0.540 -0.0693  0.2466 -0.2956
 2890SOL    HW1 8858   1.914   4.152   0.554  0.2986 -0.1255 -0.1509
 2890SOL    HW2 8859   1.847   4.035   0.623 -0.3289  0.0872 -0.3928
 2891SOL     OW 8860   3.187   1.981   3.429 -0.5340 -0.0468 -0.6939
 2891SOL    HW1 8861   3.278   1.973   3.400  0.0089 -1.8235  1.2386
 2891SOL    HW2 8862   3.183   2.066   3.473  0.2943 -0.1145 -0.4700
 2892SOL     OW 8863   1.971   1.988   4.605  0.2994 -0.4741  0.0824
 2892SOL    HW1 8864   2.060   2.008   4.576  0.8443  0.4676  2.1676
 2892SOL    HW2 8865   1.956   1.898   4.576  1.8727 -0.5938 -0.4705
 2893SOL     OW 8866   3.640   4.116   1.291 -0.2350  0.2191 -0.3870
 2893SOL    HW1 8867   3.727   4.142   1.261  0.3913  0.7561  1.7160
 2893SOL    HW2 8868   3.629   4.026   1.260  0.6973  0.4336 -1.3944
 2894SOL     OW 8869   0.533   1.739   3.030 -0.0636 -0.0323  0.1320
 2894SOL    HW1 8870   0.524   1.684   2.952  1.5322  2.3634 -1.8826
 2894SOL    HW2 8871   0.446   1.776   3.044 -0.6623 -1.4430  0.3203
 2895SOL     OW 8872   1.580   0.854   1.037  0.0320  0.0023 -0.0829
 2895SOL    HW1 8873   1.662   0.861   1.085 -0.0102  1.3215 -0.1472
 2895SOL    HW2 8874   1.586   0.922   0.970 -1.1504  0.2033 -0.0124
 2896SOL     OW 8875   0.266   1.948   4.517  0.3256 -0.1295  0.5725
 2896SOL    HW1 8876   0.221   1.895   4.583 -0.0049 -1.0827 -0.3885
 2896SOL    HW2 8877   0.352   1.907   4.507  0.1580 -0.3491 -0.0007
 2897SOL     OW 8878   2.849   2.978   2.848  0.2453 -0.0063  0.2194
 2897SOL    HW1 8879   2.875   3.060   2.806  0.8523 -0.0644  0.4824
 2897SOL    HW2 8880   2.908   2.912   2.812 -1.6084 -0.7749 -1.6649
 2898SOL     OW 8881   2.094   4.188   1.825 -0.0088 -0.3799  0.1547
 2898SOL    HW1 8882   2.085   4.124   1.896 -1.6141 -0.8224 -0.4032
 2898SOL    HW2 8883   2.082   4.273   1.867  0.5700 -0.5376  0.6473
 2899SOL     OW 8884   1.668   3.370   0.949 -0.4750 -0.3881 -0.5861
 2899SOL    HW1 8885   1.731   3.410   0.891  2.1676 -1.2347  1.4972
 2899SOL    HW2 8886   1.677   3.418   1.032 -1.5270 -1.4485  0.1822
 2900SOL     OW 8887   2.139   1.924   0.589 -0.7744  0.5914 -0.4641
 2900SOL    HW1 8888   2.157   1.848   0.644 -0.2385  1.8845  1.2381
 2900SOL    HW2 8889   2.053   1.955   0.618 -1.2166  0.3514 -1.4970
 2901SOL     OW 8890   4.244   3.241   0.262 -0.0927 -0.0977  0.3486
 2901SOL    HW1 8891   4.185   3.311   0.235  1.9913  2.2967  1.5192
 2901SOL    HW2 8892   4.195   3.193   0.329 -0.2038  3.1110  2.8460
 2902SOL     OW 8893   2.267   1.924   1.675  0.2134  0.3509  0.6485
 2902SOL    HW1 8894   2.178   1.909   1.643  0.4949  0.6935 -0.3460
 2902SOL    HW2 8895   2.305   1.984   1.610  0.4775  1.9158  2.1793
 2903SOL     OW 8896   4.556   0.837   3.175 -0.4306 -0.0828  0.1268
 2903SOL    HW1 8897   4.470   0.856   3.213 -0.3438 -0.5658  0.5811
 2903SOL    HW2 8898   4.540   0.830   3.081 -0.9308 -0.3814  0.2286
 2904SOL     OW 8899   1.691   0.213   2.680 -1.0396  0.3651 -0.8334
 2904SOL    HW1 8900   1.734   0.199   2.764 -1.8670  3.0851  0.1562
 2904SOL    HW2 8901   1.634   0.137   2.669 -1.1605  0.1107  1.2536
 2905SOL     OW 8902   2.595   3.425   4.411 -0.0546 -0.2023 -0.2486
 2905SOL    HW1 8903   2.587   3.507   4.363 -0.8918 -0.3070 -0.2906
 2905SOL    HW2 8904   2.513   3.379   4.396 -0.8509  0.2496  2.1982
 2906SOL     OW 8905   3.705   4.291   3.652 -0.0071  0.4380  0.0239
 2906SOL    HW1 8906   3.728   4.198   3.647 -2.4451 -0.3356  1.4078
 2906SOL    HW2 8907   3.765   4.327   3.718  0.7695 -0.2043 -0.3141
 2907SOL     OW 8908   1.218   4.876   0.157 -0.5493  0.1509 -0.0586
 2907SOL    HW1 8909   1.278   4.803   0.171 -1.6641 -0.7461  0.1903
 2907SOL    HW2 8910   1.198   4.873   0.063  0.1004  0.7119 -0.2245
 2908SOL     OW 8911   4.728   1.503   4.259 -0.1293 -1.1906 -0.5881
 2908SOL    HW1 8912   4.703   1.457   4.178  0.7842 -1.2129 -0.8687
 2908SOL    HW2 8913   4.737   1.434   4.324 -0.5341 -1.2101 -0.5511
 2909SOL     OW 8914   3.376   0.772   4.267 -0.0027  0.3982  0.3165
 2909SOL    HW1 8915   3.408   0.755   4.178 -0.6630 -1.1940  0.3483
 2909SOL    HW2 8916   3.352   0.686   4.300  0.4627  0.9442  2.1500
 2910SOL     OW 8917   2.755   2.715   1.816  0.4322 -0.3157 -0.8500
 2910SOL    HW1 8918   2.849   2.698   1.813  0.4277 -0.6886  0.6460
 2910SOL    HW2 8919   2.736   2.754   1.730  2.3265  1.7248 -0.4564
 2911SOL     OW 8920   3.111   3.803   4.250 -0.2260 -0.5507 -0.4521
 2911SOL    HW1 8921   3.117   3.746   4.327 -3.5501  2.4869  2.4319
 2911SOL    HW2 8922   3.043   3.763   4.196 -0.1657 -1.0534 -0.1636
 2912SOL     OW 8923   2.556   4.648   3.189  0.0161  0.7893 -0.3246
 2912SOL    HW1 8924   2.631   4.658   3.130  1.7881 -1.4831  1.3541
 2912SOL    HW2 8925   2.492   4.598   3.138  1.4802 -1.0874 -0.4321
 2913SOL     OW 8926   3.707   3.109   0.040  0.1397 -0.0874 -0.5087
 2913SOL    HW1 8927   3.689   3.095   0.133  1.0942  2.2074  0.0887
 2913SOL    HW2 8928   3.781   3.051   0.022 -0.6575 -1.2725 -0.1308
 2914SOL     OW 8929   3.156   3.671   2.844  0.3276 -0.4274 -0.7434
 2914SOL    HW1 8930   3.213   3.685   2.919  0.8552 -0.9795 -1.0340
 2914SOL    HW2 8931   3.161   3.753   2.794 -2.1324  1.0294  1.1677
 2915SOL     OW 8932   0.848   0.828   3.966  0.1036  0.0173 -0.7193
 2915SOL    HW1 8933   0.862   0.784   4.049 -0.4012 -1.5781 -1.4375
 2915SOL    HW2 8934   0.928   0.811   3.916  0.4089  0.9725 -0.5709
 2916SOL     OW 8935   0.255   0.526   3.478  0.4876  0.0451  0.7619
 2916SOL    HW1 8936   0.220   0.572   3.402 -1.9083 -3.2248 -0.3545
 2916SOL    HW2 8937   0.321   0.586   3.515  0.6647  2.4222 -2.9303
 2917SOL     OW 8938   4.473   3.950   4.668 -0.3395 -0.0495  0.7150
 2917SOL    HW1 8939   4.418   3.942   4.746  0.1316  0.6619  1.1254
 2917SOL    HW2 8940   4.545   4.007   4.695 -1.0970  1.6827 -0.7442
 2918SOL     OW 8941   2.906   3.911   2.898 -0.6568  0.2572  0.3838
 2918SOL    HW1 8942   2.813   3.920   2.919 -0.6984 -2.3578  1.7089
 2918SOL    HW2 8943   2.908   3.880   2.807 -0.9883  1.3648 -0.0174
 2919SOL     OW 8944   4.442   3.709   3.055  0.4218  0.8552 -0.0359
 2919SOL    HW1 8945   4.509   3.666   3.002 -1.2248  0.4702 -1.9064
 2919SOL    HW2 8946   4.368   3.722   2.996 -2.0491 -0.7213  2.3927
 2920SOL     OW 8947   4.436   1.953   4.263 -0.0252  0.6691 -0.1050
 2920SOL    HW1 8948   4.397   1.878   4.218  1.1168 -2.0540  3.0284
 2920SOL    HW2 8949   4.362   1.996   4.306 -0.3451 -0.6363  0.6820
 2921SOL     OW 8950   3.104   4.820   1.274  0.4767  0.2215  0.4015
 2921SOL    HW1 8951   3.194   4.788   1.267  0.0865 -0.5623 -1.6262
 2921SOL    HW2 8952   3.051   4.741   1.283 -0.2061  0.4962 -1.0308
 2922SOL     OW 8953   1.182   0.385   3.715 -0.2404  0.6181  0.0011
 2922SOL    HW1 8954   1.272   0.406   3.690 -0.0050 -0.2901  0.0649
 2922SOL    HW2 8955   1.142   0.349   3.636  0.6921 -2.8551  0.9591
 2923SOL     OW 8956   4.800   4.300   2.577 -0.0755 -0.4878  0.6411
 2923SOL    HW1 8957   4.770   4.348   2.654  0.9442 -1.1849  1.4972
 2923SOL    HW2 8958   4.895   4.293   2.589 -0.1851 -2.7963  0.6143
 2924SOL     OW 8959   3.289   0.499   0.275  0.2668  0.2832  1.2422
 2924SOL    HW1 8960   3.213   0.447   0.250  1.5661 -0.5630 -1.2963
 2924SOL    HW2 8961   3.333   0.446   0.342  0.6008 -1.1175 -0.0226
 2925SOL     OW 8962   1.170   3.248   1.140  0.1108 -0.5726 -0.1249
 2925SOL    HW1 8963   1.185   3.212   1.053 -0.1096 -1.6259  0.2613
 2925SOL    HW2 8964   1.253   3.290   1.163 -0.3097  1.1639 -1.4746
 2926SOL     OW 8965   4.433   0.953   1.698 -0.3375 -0.2993 -0.2621
 2926SOL    HW1 8966   4.466   1.043   1.706  0.2738 -0.4557 -0.8938
 2926SOL    HW2 8967   4.511   0.900   1.688 -0.7310 -0.8009 -0.7583
 2927SOL     OW 8968   4.321   3.065   4.682  0.5117 -0.3821 -0.8127
 2927SOL    HW1 8969   4.376   2.995   4.647 -0.1395 -1.1113 -0.4193
 2927SOL    HW2 8970   4.232   3.040   4.658  0.3337  0.7648 -1.4066
 2928SOL     OW 8971   3.725   3.878   3.140 -0.4744  0.1105 -0.1877
 2928SOL    HW1 8972   3.657   3.924   3.190 -0.2015  2.1027 -1.5628
 2928SOL    HW2 8973   3.803   3.931   3.150  0.5251 -1.3589  0.1185
 2929SOL     OW 8974   2.585   3.322   3.866  0.2413  0.0003  0.1249
 2929SOL    HW1 8975   2.560   3.377   3.791 -3.3760 -0.4135  0.8598
 2929SOL    HW2 8976   2.631   3.248   3.826 -1.2582 -0.0346 -1.7485
 2930SOL     OW 8977   1.004   2.581   1.194 -0.6255  0.1546  0.2088
 2930SOL    HW1 8978   1.058   2.654   1.224 -1.2455  0.6423  0.1605
 2930SOL    HW2 8979   0.921   2.591   1.242 -1.3690  0.5305 -1.0978
 2931SOL     OW 8980   3.512   3.220   4.527 -0.3765  0.2305 -0.3141
 2931SOL    HW1 8981   3.580   3.170   4.571 -1.3015  0.7753  1.8623
 2931SOL    HW2 8982   3.523   3.199   4.434  0.9802 -1.8367  0.2468
 2932SOL     OW 8983   1.385   3.345   3.546  0.0845  0.3078 -0.4296
 2932SOL    HW1 8984   1.303   3.324   3.501 -0.5936 -1.1327  1.3350
 2932SOL    HW2 8985   1.454   3.307   3.491 -0.8433 -3.2685  0.6016
 2933SOL     OW 8986   1.623   2.643   4.093  0.0804 -0.1487  0.3842
 2933SOL    HW1 8987   1.548   2.691   4.059  0.0915 -0.8825 -0.7558
 2933SOL    HW2 8988   1.610   2.553   4.062  1.8869 -0.1048 -0.6757
 2934SOL     OW 8989   2.743   4.250   4.318  0.0228 -0.2772  0.5847
 2934SOL    HW1 8990   2.648   4.259   4.313 -0.1658 -0.6149  2.5993
 2934SOL    HW2 8991   2.759   4.208   4.403  2.0241  0.8508  0.8513
 2935SOL     OW 8992   0.773   1.678   4.890 -0.5680  0.4831  0.3915
 2935SOL    HW1 8993   0.705   1.678   4.822 -0.7320 -0.2644  0.5452
 2935SOL    HW2 8994   0.738   1.733   4.960 -1.1422 -0.1256  0.5902
 2936SOL     OW 8995   4.880   1.899   2.005 -0.2930 -0.2724  0.3965
 2936SOL    HW1 8996   4.943   1.928   1.939 -0.7394 -0.5379 -0.1572
 2936SOL    HW2 8997   4.922   1.917   2.089  0.1532  0.3630  0.0412
 2937SOL     OW 8998   4.522   2.103   4.021  0.5274 -0.4228  0.0404
 2937SOL    HW1 8999   4.560   2.070   3.939 -1.5745 -1.3561 -0.6334
 2937SOL    HW2 9000   4.499   2.025   4.071 -1.2721  0.0198  0.0050
 2938SOL     OW 9001   3.694   0.043   2.977  0.1937  0.3214  0.7476
 2938SOL    HW1 9002   3.667  -0.048   2.962 -0.7286  0.7856 -0.5376
 2938SOL    HW2 9003   3.678   0.058   3.070 -1.6952 -0.1911  0.5427
 2939SOL     OW 9004   4.647   4.492   4.851 -0.1444 -0.2802  0.2780
 2939SOL    HW1 9005   4.567   4.528   4.889 -0.4637  0.3145 -0.8932
 2939SOL    HW2 9006   4.691   4.568   4.812  0.2626 -0.8252 -0.3405
 2940SOL     OW 9007   1.252   3.417   4.028  0.1018  0.2296  0.8277
 2940SOL    HW1 9008   1.298   3.342   3.990 -1.9799 -0.6069 -0.1955
 2940SOL    HW2 9009   1.194   3.378   4.094 -1.0790  0.9045  0.2074
 2941SOL     OW 9010   1.830   1.443   3.779 -0.2412  0.0379  1.0493
 2941SOL    HW1 9011   1.800   1.499   3.851  0.6433  0.5754  1.0195
 2941SOL    HW2 9012   1.787   1.479   3.701  0.5089  0.8367  0.9958
 2942SOL     OW 9013   3.026   3.911   4.599  0.9049  0.4375  0.1584
 2942SOL    HW1 9014   3.054   3.983   4.542 -0.3428  0.1474 -0.8806
 2942SOL    HW2 9015   3.021   3.950   4.687  1.1721  1.3573 -0.2289
 2943SOL     OW 9016   3.352   4.711   3.291  0.8701 -0.2509  0.2713
 2943SOL    HW1 9017   3.418   4.661   3.243  0.5536 -0.2407 -0.1716
 2943SOL    HW2 9018   3.307   4.646   3.345  1.3046 -0.2438  0.6507
 2944SOL     OW 9019   4.379   4.895   3.113  0.1328  0.0235 -0.4678
 2944SOL    HW1 9020   4.384   4.821   3.174 -0.0607  0.0515 -0.4170
 2944SOL    HW2 9021   4.286   4.901   3.090  0.4074 -1.0233 -2.0443
 2945SOL     OW 9022   0.569   0.220   0.602  0.1271 -0.9816  0.3677
 2945SOL    HW1 9023   0.483   0.199   0.640  0.2508  1.2599  2.0772
 2945SOL    HW2 9024   0.552   0.294   0.544  0.8587 -0.5381  0.6981
 2946SOL     OW 9025   3.348   4.536   1.599  0.4884 -0.0922 -0.1923
 2946SOL    HW1 9026   3.430   4.514   1.644  1.3771  1.7093 -0.8241
 2946SOL    HW2 9027   3.362   4.625   1.568 -2.1323  0.6781  0.6000
 2947SOL     OW 9028   1.039   2.169   4.891  0.2392 -0.1668 -0.4602
 2947SOL    HW1 9029   1.082   2.104   4.836 -1.5614  0.2678 -2.5446
 2947SOL    HW2 9030   1.084   2.163   4.975  3.4886 -0.5679 -2.0590
 2948SOL     OW 9031   1.963   2.169   1.149 -0.0063 -0.2333 -0.5387
 2948SOL    HW1 9032   1.994   2.099   1.091 -2.3243 -1.8692  0.0726
 2948SOL    HW2 9033   1.958   2.246   1.093  2.5751 -0.4776 -1.2518
 2949SOL     OW 9034   3.784   2.328   3.840 -0.5026  0.0291 -0.4030
 2949SOL    HW1 9035   3.856   2.287   3.887 -1.1326  0.7816  1.3037
 2949SOL    HW2 9036   3.814   2.418   3.823 -0.8062  0.1780 -0.1745
 2950SOL     OW 9037   3.457   3.861   0.993  0.1578  0.1296 -0.1483
 2950SOL    HW1 9038   3.427   3.947   0.962 -0.7495  0.8349  2.4382
 2950SOL    HW2 9039   3.534   3.880   1.046  1.2823 -0.9543 -1.3272
 2951SOL     OW 9040   4.006   0.419   1.131 -0.0501  0.1930  0.6899
 2951SOL    HW1 9041   4.054   0.499   1.108  1.1322 -0.2012  1.6545
 2951SOL    HW2 9042   4.006   0.418   1.227 -1.8649  0.0639  0.7231
 2952SOL     OW 9043   2.594   4.493   3.446 -0.3069 -0.2698 -0.0946
 2952SOL    HW1 9044   2.628   4.404   3.438  0.8135  0.1124  0.1800
 2952SOL    HW2 9045   2.570   4.518   3.357 -0.3148 -0.7248 -0.2229
 2953SOL     OW 9046   1.620   2.125   3.941 -0.0030  0.2166  0.4645
 2953SOL    HW1 9047   1.573   2.074   4.007 -0.5412  0.4459  0.2622
 2953SOL    HW2 9048   1.564   2.200   3.923  0.1235  0.1508 -0.2599
 2954SOL     OW 9049   4.336   2.187   3.436  0.1012 -0.1052 -0.1337
 2954SOL    HW1 9050   4.324   2.239   3.356  1.1036 -0.3497 -0.4537
 2954SOL    HW2 9051   4.387   2.243   3.494 -0.5339  0.0305  0.3018
 2955SOL     OW 9052   0.601   2.620   2.122  0.0672 -0.3255  0.3873
 2955SOL    HW1 9053   0.534   2.600   2.188  2.1216 -2.3177  2.0572
 2955SOL    HW2 9054   0.639   2.703   2.151 -0.0490 -0.4389  0.8760
 2956SOL     OW 9055   2.261   4.540   3.088 -0.6341  0.5496  0.2531
 2956SOL    HW1 9056   2.289   4.466   3.035  0.0138  1.2905 -0.4629
 2956SOL    HW2 9057   2.233   4.606   3.024 -1.7988  0.6973  0.8940
 2957SOL     OW 9058   2.081   3.688   2.150  0.2528  0.7047 -0.6686
 2957SOL    HW1 9059   2.105   3.706   2.059 -1.2726  1.8811 -0.8760
 2957SOL    HW2 9060   2.136   3.748   2.201  0.4101  0.7447 -0.8815
 2958SOL     OW 9061   4.711   3.450   0.166 -0.3595 -0.6787 -0.4963
 2958SOL    HW1 9062   4.717   3.501   0.085 -0.0811  1.8041  0.9837
 2958SOL    HW2 9063   4.619   3.456   0.192  0.0157  0.6520  0.6087
 2959SOL     OW 9064   1.107   0.301   3.471  0.4878  0.1434 -0.0577
 2959SOL    HW1 9065   1.083   0.270   3.384 -0.7483 -0.4170  0.4560
 2959SOL    HW2 9066   1.176   0.241   3.499 -1.6459 -2.0755  0.7879
 2960SOL     OW 9067   1.799   4.666   1.391 -0.4218  0.1329  0.1019
 2960SOL    HW1 9068   1.751   4.583   1.388  0.8094 -0.7726  2.5397
 2960SOL    HW2 9069   1.777   4.704   1.475  0.6563  1.2502 -0.0875
 2961SOL     OW 9070   2.841   2.747   0.321  0.1372 -0.5547 -0.4617
 2961SOL    HW1 9071   2.797   2.831   0.310  0.9584  0.0971  0.9025
 2961SOL    HW2 9072   2.776   2.682   0.295 -0.2674  0.5052 -2.2597
 2962SOL     OW 9073   2.126   1.081   4.599 -0.3151  0.0234 -0.2850
 2962SOL    HW1 9074   2.197   1.104   4.539  0.2906 -1.0291 -0.0004
 2962SOL    HW2 9075   2.103   0.991   4.575 -0.5633 -0.1459  0.5742
 2963SOL     OW 9076   0.770   0.296   3.249 -0.2265  0.0262 -0.3249
 2963SOL    HW1 9077   0.721   0.293   3.331 -0.1703 -0.0957 -0.2961
 2963SOL    HW2 9078   0.715   0.249   3.186  0.5768 -1.5092  0.0864
 2964SOL     OW 9079   0.194   4.336   1.036 -0.1162  0.2943 -0.2356
 2964SOL    HW1 9080   0.264   4.334   0.970  0.2260  0.3891  0.1142
 2964SOL    HW2 9081   0.192   4.428   1.064  1.1011 -0.0947  1.2888
 2965SOL     OW 9082   1.302   0.800   1.244  0.2903  0.9595 -0.0199
 2965SOL    HW1 9083   1.257   0.716   1.243  0.6427  0.7648 -1.6027
 2965SOL    HW2 9084   1.386   0.781   1.286 -0.4307  0.9982  1.5252
 2966SOL     OW 9085   1.417   2.674   2.371  0.2879  0.1244  0.3687
 2966SOL    HW1 9086   1.414   2.596   2.316  1.2271  0.1631  0.2314
 2966SOL    HW2 9087   1.374   2.648   2.452  1.3030 -0.8281  0.6388
 2967SOL     OW 9088   3.484   0.213   0.109 -0.3284 -0.3007  0.0112
 2967SOL    HW1 9089   3.479   0.303   0.141  1.0701  0.0523 -0.6810
 2967SOL    HW2 9090   3.527   0.220   0.024  2.1887 -1.8474  1.0607
 2968SOL     OW 9091   0.689   4.172   1.508 -0.3604  0.4321  0.1079
 2968SOL    HW1 9092   0.758   4.170   1.441 -1.6288 -0.6828 -1.2471
 2968SOL    HW2 9093   0.610   4.146   1.461 -1.6354  1.2523  1.7095
 2969SOL     OW 9094   0.441   1.244   4.418 -0.4527  0.2774 -0.0494
 2969SOL    HW1 9095   0.467   1.152   4.412 -0.0067  0.4206 -0.3247
 2969SOL    HW2 9096   0.483   1.275   4.499 -2.3699 -0.3216  1.2492
 2970SOL     OW 9097   1.026   4.103   3.196 -0.1899 -0.2870 -0.2079
 2970SOL    HW1 9098   1.024   4.134   3.286  0.8525  0.8869 -0.5722
 2970SOL    HW2 9099   1.026   4.008   3.203 -1.9353 -0.2419  0.9687
 2971SOL     OW 9100   2.862   2.061   1.078  0.0484 -0.1715 -0.1961
 2971SOL    HW1 9101   2.825   2.117   1.146 -2.2290 -0.1703 -1.3510
 2971SOL    HW2 9102   2.870   1.975   1.119 -2.1121 -0.3796 -0.0951
 2972SOL     OW 9103   1.158   3.423   2.839 -0.4599  0.0704 -0.9673
 2972SOL    HW1 9104   1.134   3.400   2.929 -0.3446 -2.1132 -1.4332
 2972SOL    HW2 9105   1.236   3.477   2.848 -0.7778  0.3599  0.2508
 2973SOL     OW 9106   1.664   3.516   4.929  0.0217 -0.0268 -0.2872
 2973SOL    HW1 9107   1.581   3.487   4.891 -0.8609  1.1827  0.6179
 2973SOL    HW2 9108   1.721   3.534   4.854 -0.5202 -0.8804 -0.9190
 2974SOL     OW 9109   0.473   0.152   1.357 -0.1259  0.4041  0.0033
 2974SOL    HW1 9110   0.515   0.127   1.439  1.4073  1.3629 -0.4329
 2974SOL    HW2 9111   0.525   0.107   1.289  0.6216  2.0737 -0.5889
 2975SOL     OW 9112   3.416   4.100   3.185 -0.3810 -0.0024 -0.0054
 2975SOL    HW1 9113   3.469   4.175   3.162  0.5132 -0.5983  0.0657
 2975SOL    HW2 9114   3.346   4.099   3.120 -0.5651  1.0360  0.1598
 2976SOL     OW 9115   0.546   4.234   2.424 -0.4367  0.1644 -0.1701
 2976SOL    HW1 9116   0.505   4.285   2.354 -0.6308  0.4040  0.1203
 2976SOL    HW2 9117   0.630   4.277   2.440  0.7386 -1.2919 -1.9334
 2977SOL     OW 9118   4.455   4.649   0.131 -0.1324  0.0166 -0.5019
 2977SOL    HW1 9119   4.402   4.571   0.115 -2.4201  1.5741 -0.9379
 2977SOL    HW2 9120   4.440   4.705   0.055  0.2135  1.5410  0.4933
 2978SOL     OW 9121   3.474   0.770   0.612  0.9203  0.0542 -0.7415
 2978SOL    HW1 9122   3.537   0.707   0.578  1.9509  0.1570  0.8461
 2978SOL    HW2 9123   3.446   0.733   0.696  0.0267  0.7561 -0.7090
 2979SOL     OW 9124   1.780   3.772   1.825  0.4747 -0.1299  0.3713
 2979SOL    HW1 9125   1.735   3.849   1.789  0.3016 -0.1282  0.5886
 2979SOL    HW2 9126   1.825   3.805   1.903  0.0858 -0.3276  0.6825
 2980SOL     OW 9127   0.053   3.150   4.567 -0.2814 -0.1147  0.1201
 2980SOL    HW1 9128   0.112   3.224   4.556 -0.4825  0.1953  1.1088
 2980SOL    HW2 9129   0.034   3.121   4.477  2.7585 -1.3407 -0.2556
 2981SOL     OW 9130   4.920   3.921   4.400 -0.1865 -0.4118 -0.0108
 2981SOL    HW1 9131   4.899   3.981   4.471 -0.3858 -0.7517  0.2185
 2981SOL    HW2 9132   4.843   3.866   4.391  0.0912 -0.8023 -0.0493
 2982SOL     OW 9133   4.774   3.013   4.083 -0.3282 -0.0190  0.1514
 2982SOL    HW1 9134   4.723   2.935   4.103 -1.5186  1.0071  1.3266
 2982SOL    HW2 9135   4.862   2.980   4.063 -0.8860 -1.6596  0.2590
 2983SOL     OW 9136   1.185   4.562   2.486  0.2466 -0.2129 -0.3038
 2983SOL    HW1 9137   1.135   4.526   2.412  0.2278 -1.8744  0.4860
 2983SOL    HW2 9138   1.126   4.627   2.525  0.5446  1.2673 -2.1596
 2984SOL     OW 9139   4.248   3.184   0.760 -0.1152 -0.1181 -0.0370
 2984SOL    HW1 9140   4.279   3.176   0.850 -0.1501 -0.1018 -0.0236
 2984SOL    HW2 9141   4.204   3.100   0.742  0.2920 -0.2997 -0.1905
 2985SOL     OW 9142   4.227   0.903   4.121  0.0458  0.6402  0.1858
 2985SOL    HW1 9143   4.148   0.850   4.113 -0.2250  0.5960  2.4016
 2985SOL    HW2 9144   4.247   0.901   4.215  3.5110 -0.5336 -0.4566
 2986SOL     OW 9145   2.903   3.214   2.749 -0.6427  0.1162  0.0784
 2986SOL    HW1 9146   2.835   3.277   2.724  0.4402  0.7403 -1.5389
 2986SOL    HW2 9147   2.985   3.263   2.739  0.2780 -1.6226 -1.6723
 2987SOL     OW 9148   2.344   1.117   4.431  0.4652  0.8250 -0.4961
 2987SOL    HW1 9149   2.378   1.194   4.385  1.5257  0.8806  0.3176
 2987SOL    HW2 9150   2.405   1.047   4.407 -1.2055 -0.1098 -2.2310
 2988SOL     OW 9151   0.434   0.451   3.820 -0.0131  0.1083  0.0110
 2988SOL    HW1 9152   0.374   0.376   3.824 -0.3420  0.3463 -0.3931
 2988SOL    HW2 9153   0.384   0.519   3.777  0.7492  0.1250 -0.8731
 2989SOL     OW 9154   0.173   0.822   1.451  0.2412 -0.1124  0.3829
 2989SOL    HW1 9155   0.208   0.850   1.366  1.3930  0.5560  1.0622
 2989SOL    HW2 9156   0.244   0.770   1.490 -1.2684 -2.7783 -0.1898
 2990SOL     OW 9157   1.316   4.376   2.115  0.0793 -0.3723 -0.0389
 2990SOL    HW1 9158   1.248   4.386   2.181 -0.2071 -0.7203 -0.2813
 2990SOL    HW2 9159   1.273   4.332   2.042  0.0456  1.1662 -0.9943
 2991SOL     OW 9160   3.980   3.528   1.888 -0.5624  0.2143 -0.3417
 2991SOL    HW1 9161   4.058   3.564   1.845 -0.6092  0.2867 -0.3663
 2991SOL    HW2 9162   3.941   3.471   1.822  0.6941 -1.6026  0.4112
 2992SOL     OW 9163   4.340   0.295   3.490  0.3499 -0.3014 -0.5619
 2992SOL    HW1 9164   4.297   0.216   3.458  1.2435 -1.1680  0.2799
 2992SOL    HW2 9165   4.345   0.283   3.585  0.6099  0.7164 -0.4318
 2993SOL     OW 9166   1.820   1.765   0.705 -0.1753 -0.2416  0.3555
 2993SOL    HW1 9167   1.729   1.743   0.687  0.4804 -1.9159 -1.2418
 2993SOL    HW2 9168   1.847   1.703   0.773 -0.0898 -0.1026  0.4482
 2994SOL     OW 9169   3.163   1.190   3.717 -0.1534 -0.1073 -0.3435
 2994SOL    HW1 9170   3.208   1.202   3.800  0.6940 -1.4565 -0.5742
 2994SOL    HW2 9171   3.225   1.222   3.651 -0.8576  1.0453 -0.4608
 2995SOL     OW 9172   4.027   0.091   4.636 -0.5105 -0.6350 -0.1441
 2995SOL    HW1 9173   3.941   0.108   4.598 -0.0355  0.5516 -0.7339
 2995SOL    HW2 9174   4.079   0.167   4.612  0.0318 -0.1660  2.3459
 2996SOL     OW 9175   3.654   3.485   3.410  0.6777  0.2270  0.6804
 2996SOL    HW1 9176   3.730   3.461   3.356  1.1273 -0.1120  1.4522
 2996SOL    HW2 9177   3.682   3.563   3.458 -0.3000  1.5369 -0.7841
 2997SOL     OW 9178   4.072   0.976   2.593 -0.1245  0.5898  0.9687
 2997SOL    HW1 9179   4.107   1.058   2.628  0.2749  0.7142  0.2843
 2997SOL    HW2 9180   4.145   0.914   2.599 -0.1959  0.4874  0.7720
 2998SOL     OW 9181   3.930   4.892   3.419 -0.4241  0.0990  0.0262
 2998SOL    HW1 9182   3.890   4.806   3.412  1.8055 -1.0382  0.2585
 2998SOL    HW2 9183   3.882   4.946   3.356 -0.4126 -1.9217 -1.8408
 2999SOL     OW 9184   2.561   4.189   1.097 -0.1356  0.4359 -0.2255
 2999SOL    HW1 9185   2.502   4.231   1.158 -1.1475 -0.0375 -0.8535
 2999SOL    HW2 9186   2.629   4.255   1.080 -1.4239  1.6676 -0.8377
 3000SOL     OW 9187   1.001   2.794   1.724  0.1178 -0.1016 -0.0510
 3000SOL    HW1 9188   0.969   2.710   1.755 -2.4050  0.1521 -1.7081
 3000SOL    HW2 9189   1.078   2.773   1.672  1.0027 -1.0801  1.5802
 3001SOL     OW 9190   3.932   2.377   1.802 -0.6783 -0.6008  0.0748
 3001SOL    HW1 9191   3.849   2.375   1.754 -1.0458 -1.7257  0.7082
 3001SOL    HW2 9192   3.911   2.424   1.884 -0.1290  1.0430 -0.6775
 3002SOL     OW 9193   3.923   0.884   0.754 -0.1945  0.0108  0.2140
 3002SOL    HW1 9194   3.900   0.976   0.762  0.5781  0.3672 -1.3134
 3002SOL    HW2 9195   3.860   0.839   0.810 -1.8540  1.2988 -0.5307
 3003SOL     OW 9196   0.071   3.702   1.122 -0.4894 -0.2124  0.5295
 3003SOL    HW1 9197   0.108   3.755   1.051  3.0602 -1.7758  1.0445
 3003SOL    HW2 9198  -0.021   3.691   1.097 -0.3768  2.6563 -1.6814
 3004SOL     OW 9199   1.881   0.182   0.298 -0.1505 -0.3368  0.2735
 3004SOL    HW1 9200   1.884   0.249   0.230 -0.4477 -1.0728 -0.4979
 3004SOL    HW2 9201   1.929   0.219   0.371  1.7893 -0.2315 -0.9877
 3005SOL     OW 9202   3.526   4.564   3.119  0.0145  0.1949 -0.4679
 3005SOL    HW1 9203   3.561   4.480   3.149 -0.2616  0.8097  1.7254
 3005SOL    HW2 9204   3.602   4.612   3.087  0.5788  0.0071  0.5372
 3006SOL     OW 9205   1.350   2.015   1.450 -0.5675 -0.4565 -0.2252
 3006SOL    HW1 9206   1.368   1.946   1.386  0.7744 -2.1280  1.8183
 3006SOL    HW2 9207   1.434   2.059   1.462 -0.6309 -0.5970  0.8321
 3007SOL     OW 9208   0.879   3.212   0.270 -0.7286 -0.7621  0.2355
 3007SOL    HW1 9209   0.927   3.199   0.352  1.0013 -2.4885 -0.9491
 3007SOL    HW2 9210   0.944   3.253   0.212 -1.0833 -1.9068 -1.0096
 3008SOL     OW 9211   3.952   1.658   0.789  0.0523 -0.3229 -0.5134
 3008SOL    HW1 9212   3.991   1.574   0.811 -0.0744  0.2769  2.3897
 3008SOL    HW2 9213   4.016   1.700   0.732  1.4620 -1.2534  0.3342
 3009SOL     OW 9214   2.961   0.016   1.072  0.1718  0.1370  0.2163
 3009SOL    HW1 9215   3.009  -0.023   1.145  1.4779  0.2586 -0.5363
 3009SOL    HW2 9216   2.887   0.061   1.112  1.1234  0.5966  1.5076
 3010SOL     OW 9217   4.841   4.469   0.724 -0.0439 -0.8741 -0.4685
 3010SOL    HW1 9218   4.896   4.399   0.759 -0.6487 -0.9583  0.3291
 3010SOL    HW2 9219   4.804   4.512   0.801  0.1169  0.1706 -0.9517
 3011SOL     OW 9220   3.568   0.996   4.676  0.2677  0.3374  0.0982
 3011SOL    HW1 9221   3.588   0.947   4.596  0.9653 -1.4787  1.3171
 3011SOL    HW2 9222   3.507   0.940   4.724 -0.2276  1.4479  0.8131
 3012SOL     OW 9223   1.419   3.685   0.152  0.0527 -0.5034 -0.3881
 3012SOL    HW1 9224   1.437   3.775   0.122  0.0801 -0.4235 -0.1327
 3012SOL    HW2 9225   1.354   3.652   0.089  1.8411 -1.1668 -1.9689
 3013SOL     OW 9226   0.887   3.475   1.039  0.0649  0.7099  0.2940
 3013SOL    HW1 9227   0.804   3.436   1.066  0.5633  1.0015  2.3906
 3013SOL    HW2 9228   0.927   3.410   0.981 -1.3599  0.3319 -0.2910
 3014SOL     OW 9229   2.644   3.614   2.138  0.2440 -0.3128  0.2460
 3014SOL    HW1 9230   2.707   3.555   2.179  0.2986 -0.9185 -0.6759
 3014SOL    HW2 9231   2.566   3.559   2.123 -1.0772  0.7609  2.6489
 3015SOL     OW 9232   3.115   0.595   0.719  0.0707 -0.2224 -0.3493
 3015SOL    HW1 9233   3.124   0.538   0.643 -1.8940 -1.4976  0.2925
 3015SOL    HW2 9234   3.049   0.660   0.694 -1.4876 -1.3723  0.5978
 3016SOL     OW 9235   1.793   1.023   2.082 -0.3975 -0.3119  0.3465
 3016SOL    HW1 9236   1.745   0.941   2.092 -0.0406 -0.5006  0.5811
 3016SOL    HW2 9237   1.765   1.076   2.156 -0.5392 -0.2719  0.2629
 3017SOL     OW 9238   2.985   1.977   4.103  0.5890  0.7216 -0.0921
 3017SOL    HW1 9239   2.978   1.977   4.008 -3.2917 -0.6138  0.0208
 3017SOL    HW2 9240   2.951   2.062   4.130 -1.8412 -0.2474  0.1088
 3018SOL     OW 9241   4.940   0.388   3.778 -1.0582 -0.2458 -0.1405
 3018SOL    HW1 9242   5.025   0.351   3.801 -0.1263  1.2452 -1.0524
 3018SOL    HW2 9243   4.886   0.375   3.856 -0.4550 -2.4676 -0.0221
 3019SOL     OW 9244   4.086   1.791   1.967 -0.3681  0.2800  0.4086
 3019SOL    HW1 9245   4.144   1.834   2.029  0.5978  1.7604 -1.4183
 3019SOL    HW2 9246   4.033   1.862   1.931  0.9699 -0.0073 -2.3910
 3020SOL     OW 9247   0.383   4.214   2.874 -0.2913  0.1611 -0.3834
 3020SOL    HW1 9248   0.335   4.162   2.938 -1.6719  0.3932 -1.1648
 3020SOL    HW2 9249   0.333   4.202   2.792  1.2204  0.1293 -1.3434
 3021SOL     OW 9250   0.416   4.334   4.551  0.0139  0.2460 -0.2988
 3021SOL    HW1 9251   0.488   4.316   4.611  1.6357  2.6837 -1.3392
 3021SOL    HW2 9252   0.347   4.371   4.606  0.4566  0.0416  0.4039
 3022SOL     OW 9253   4.408   4.368   0.372 -0.3305 -0.4395  0.1145
 3022SOL    HW1 9254   4.485   4.321   0.338 -1.1693 -0.7481 -1.4814
 3022SOL    HW2 9255   4.365   4.402   0.294 -0.7624  1.4330  1.1187
 3023SOL     OW 9256   3.028   3.281   1.597  0.5693 -0.5002 -0.0151
 3023SOL    HW1 9257   3.108   3.317   1.559  0.5868 -0.3881  0.1263
 3023SOL    HW2 9258   3.058   3.234   1.675  0.3231  0.9715  1.0047
 3024SOL     OW 9259   4.010   4.371   0.054 -0.5566 -0.1365  0.1144
 3024SOL    HW1 9260   3.956   4.293   0.047  2.2370 -2.1623 -0.7693
 3024SOL    HW2 9261   4.011   4.407  -0.035 -0.9895  0.2980  0.2834
 3025SOL     OW 9262   1.537   1.683   3.660  0.5216 -0.7988  0.0195
 3025SOL    HW1 9263   1.568   1.751   3.600 -0.4415 -1.0152 -0.7458
 3025SOL    HW2 9264   1.503   1.732   3.735  1.4435 -0.5151  0.2657
 3026SOL     OW 9265   0.732   3.094   3.602 -0.3261  0.1246  0.1482
 3026SOL    HW1 9266   0.733   3.190   3.601  1.4025  0.2351  3.0463
 3026SOL    HW2 9267   0.688   3.071   3.683  1.2308 -1.4479  0.6099
 3027SOL     OW 9268   4.747   1.465   3.933  0.6814  0.7191 -0.6260
 3027SOL    HW1 9269   4.799   1.441   3.857  0.1014  2.1330 -1.4882
 3027SOL    HW2 9270   4.766   1.557   3.948  0.4433  0.5753  0.6798
 3028SOL     OW 9271   3.100   0.755   3.398  0.2117  0.2025  0.3899
 3028SOL    HW1 9272   3.080   0.790   3.484 -2.6616 -0.4337  0.0659
 3028SOL    HW2 9273   3.143   0.671   3.415 -1.3018 -0.4253  1.2506
 3029SOL     OW 9274   4.365   3.774   0.307  0.0212 -0.4511  0.3181
 3029SOL    HW1 9275   4.293   3.716   0.331 -0.3419 -0.2939 -0.3782
 3029SOL    HW2 9276   4.355   3.850   0.363  0.8506 -1.2952  1.6712
 3030SOL     OW 9277   1.655   1.672   4.291 -0.2837  0.1338 -0.2469
 3030SOL    HW1 9278   1.677   1.638   4.378  1.8400  0.1837 -0.7110
 3030SOL    HW2 9279   1.651   1.595   4.235 -0.3373  0.2081 -0.3463
 3031SOL     OW 9280   2.427   0.031   0.883 -0.0369 -0.1523  0.3784
 3031SOL    HW1 9281   2.486   0.064   0.816  0.4181 -0.3688  0.6614
 3031SOL    HW2 9282   2.447  -0.063   0.888  1.2958  0.1627  2.1125
 3032SOL     OW 9283   4.353   3.948   2.063  0.0300 -0.0405 -0.2924
 3032SOL    HW1 9284   4.397   3.889   2.123 -0.4868 -0.6647 -0.5127
 3032SOL    HW2 9285   4.362   3.907   1.977 -1.1284 -0.2831 -0.3169
 3033SOL     OW 9286   0.931   3.473   2.312 -0.0663  0.0222  0.3006
 3033SOL    HW1 9287   0.900   3.521   2.388 -0.0048 -0.0882  0.3949
 3033SOL    HW2 9288   0.938   3.382   2.341 -1.3060 -0.2527 -0.2111
 3034SOL     OW 9289   0.893   3.615   4.864  0.0776 -0.3958 -0.3689
 3034SOL    HW1 9290   0.965   3.678   4.859 -0.5480  0.5885  1.8481
 3034SOL    HW2 9291   0.853   3.630   4.950 -1.5639 -2.2506 -0.7217
 3035SOL     OW 9292   1.864   0.581   3.037 -0.2905 -0.0461 -0.0372
 3035SOL    HW1 9293   1.810   0.622   2.970 -0.7347 -1.0686 -0.3289
 3035SOL    HW2 9294   1.951   0.618   3.024 -0.4518  0.0253 -0.9622
 3036SOL     OW 9295   1.336   1.358   4.398 -0.5982  0.1040 -0.1144
 3036SOL    HW1 9296   1.312   1.272   4.365  1.0454 -0.0973 -0.8749
 3036SOL    HW2 9297   1.293   1.363   4.484 -0.5670 -1.5445  0.0369
 3037SOL     OW 9298   4.649   3.906   0.472 -0.3715 -0.0595  0.2734
 3037SOL    HW1 9299   4.641   3.851   0.394 -1.4437  1.9198 -1.1152
 3037SOL    HW2 9300   4.571   3.885   0.523 -0.1283 -0.7260  0.3780
 3038SOL     OW 9301   1.062   4.108   2.698  0.0923 -0.4990 -0.2187
 3038SOL    HW1 9302   1.150   4.085   2.671  0.7711  0.3754  1.1518
 3038SOL    HW2 9303   1.051   4.199   2.671 -0.1017 -0.3655  0.2908
 3039SOL     OW 9304   0.912   1.198   1.557 -0.2582  0.4877 -0.2307
 3039SOL    HW1 9305   0.959   1.139   1.615 -0.4480 -0.8809 -1.4283
 3039SOL    HW2 9306   0.885   1.144   1.483 -1.6380  1.7664 -0.7240
 3040SOL     OW 9307   4.474   0.870   1.052  0.3146  0.5214  0.4945
 3040SOL    HW1 9308   4.510   0.958   1.035  0.7402 -0.0310 -1.8146
 3040SOL    HW2 9309   4.536   0.831   1.114  1.4760  1.0357 -0.2973
 3041SOL     OW 9310   4.269   1.573   3.741 -0.3551 -0.1955  0.5514
 3041SOL    HW1 9311   4.353   1.614   3.761  0.4015 -0.0137 -2.5514
 3041SOL    HW2 9312   4.218   1.643   3.700 -1.3654 -0.8009  0.7422
 3042SOL     OW 9313   3.278   0.494   4.325 -0.0767 -0.0152  0.4390
 3042SOL    HW1 9314   3.276   0.422   4.261  0.3387 -0.8503  1.3299
 3042SOL    HW2 9315   3.191   0.495   4.363  0.0262 -0.3224  0.6964
 3043SOL     OW 9316   3.977   3.307   2.447 -0.3474 -0.4780 -0.2083
 3043SOL    HW1 9317   3.911   3.364   2.487  1.6186  0.3231  2.1291
 3043SOL    HW2 9318   3.982   3.231   2.505 -0.4783 -1.4324 -1.3933
 3044SOL     OW 9319   3.660   1.465   3.458 -0.2483 -0.2095 -0.4341
 3044SOL    HW1 9320   3.621   1.534   3.405  1.3080  1.6802  0.7706
 3044SOL    HW2 9321   3.709   1.411   3.396  2.1480  2.3567 -0.9813
 3045SOL     OW 9322   0.474   3.965   2.424  0.1090 -0.5207  0.2475
 3045SOL    HW1 9323   0.514   4.052   2.422 -2.2668  0.6538  0.4796
 3045SOL    HW2 9324   0.481   3.938   2.516  0.6466 -0.4688  0.2238
 3046SOL     OW 9325   0.180   4.150   2.068  0.1111  0.5974 -0.3147
 3046SOL    HW1 9326   0.249   4.118   2.010 -0.4685 -0.9517 -0.1763
 3046SOL    HW2 9327   0.203   4.116   2.154  0.5867  2.3042  0.2884
 3047SOL     OW 9328   2.976   1.172   1.674 -0.2541 -0.2854  0.4785
 3047SOL    HW1 9329   2.953   1.126   1.755  1.8588 -1.4890  0.4534
 3047SOL    HW2 9330   3.047   1.231   1.700  0.2656 -0.4965 -0.4511
 3048SOL     OW 9331   3.840   4.417   3.056 -0.6624  0.5906 -0.1664
 3048SOL    HW1 9332   3.803   4.330   3.074  0.8248 -0.1647 -0.6429
 3048SOL    HW2 9333   3.798   4.444   2.974 -0.0073 -0.3687 -0.8382
 3049SOL     OW 9334   2.255   0.323   0.017 -0.2048 -0.3112 -0.1088
 3049SOL    HW1 9335   2.187   0.298  -0.046 -1.3799  2.7983 -0.2726
 3049SOL    HW2 9336   2.309   0.245   0.027 -2.2335 -2.1006 -2.0250
 3050SOL     OW 9337   2.379   2.291   1.281  0.0298  0.9005  0.1510
 3050SOL    HW1 9338   2.396   2.250   1.197 -1.8957 -0.3531  0.3106
 3050SOL    HW2 9339   2.312   2.357   1.263 -2.4171 -1.1771  1.0049
 3051SOL     OW 9340   3.849   1.902   1.161  0.0024 -0.2819 -0.4488
 3051SOL    HW1 9341   3.804   1.860   1.087  2.1805 -1.9227 -0.9486
 3051SOL    HW2 9342   3.920   1.951   1.121 -1.1556  2.2234  0.3344
 3052SOL     OW 9343   4.615   0.475   0.160  0.8810 -0.8005  0.4244
 3052SOL    HW1 9344   4.612   0.565   0.127 -1.8554 -0.7634  0.5156
 3052SOL    HW2 9345   4.624   0.484   0.255  2.6554 -0.7344  0.2835
 3053SOL     OW 9346   3.377   2.639   3.051  0.6268  0.1831 -0.1565
 3053SOL    HW1 9347   3.379   2.734   3.039  2.1546 -0.0747 -2.3606
 3053SOL    HW2 9348   3.329   2.606   2.975  0.1265 -0.8379  0.5755
 3054SOL     OW 9349   0.171   4.603   1.888 -0.1588  0.2707  0.0520
 3054SOL    HW1 9350   0.141   4.529   1.836  0.5294  0.1541 -0.1931
 3054SOL    HW2 9351   0.098   4.623   1.947 -0.6702 -0.0555 -0.4629
 3055SOL     OW 9352   2.731   4.131   0.316 -0.0115 -0.0042  0.3934
 3055SOL    HW1 9353   2.651   4.148   0.365  0.4195 -0.2855  1.2034
 3055SOL    HW2 9354   2.795   4.104   0.382  0.4014 -1.0227 -0.3971
 3056SOL     OW 9355   0.356   2.712   0.128  0.1911 -0.0302 -0.0784
 3056SOL    HW1 9356   0.370   2.737   0.036 -0.8058  0.1825 -0.1784
 3056SOL    HW2 9357   0.325   2.621   0.124  1.5011 -0.5102  0.1454
 3057SOL     OW 9358   1.695   3.374   1.943  0.3670  0.3546  0.5805
 3057SOL    HW1 9359   1.709   3.323   1.863 -3.3684 -0.7580  0.4413
 3057SOL    HW2 9360   1.774   3.361   1.994  1.8966 -0.8540 -1.8885
 3058SOL     OW 9361   1.813   2.606   3.732 -0.0514  0.0594  0.3433
 3058SOL    HW1 9362   1.884   2.642   3.680 -0.1557 -2.3174 -1.6125
 3058SOL    HW2 9363   1.856   2.551   3.798  0.0520 -2.0510 -1.3576
 3059SOL     OW 9364   3.758   2.325   4.827  0.8243  0.3001  0.3916
 3059SOL    HW1 9365   3.750   2.310   4.921  1.6338  2.4675  0.8695
 3059SOL    HW2 9366   3.750   2.238   4.788 -0.7599 -0.5037  2.3475
 3060SOL     OW 9367   4.191   4.751   0.592 -0.1703 -0.8563 -0.3349
 3060SOL    HW1 9368   4.185   4.732   0.498  0.2351 -1.4749 -0.2429
 3060SOL    HW2 9369   4.178   4.667   0.635 -2.3547 -0.2787  0.2662
 3061SOL     OW 9370   2.042   0.069   3.300 -0.3164 -0.2208 -0.3614
 3061SOL    HW1 9371   2.099   0.111   3.364  0.4253 -0.9820 -0.5098
 3061SOL    HW2 9372   2.088  -0.011   3.276 -1.8897 -1.3713  0.2479
 3062SOL     OW 9373   4.109   3.008   1.963  0.5645 -0.4597  0.0978
 3062SOL    HW1 9374   4.033   3.061   1.937  1.7455  1.0853 -0.3062
 3062SOL    HW2 9375   4.079   2.960   2.040 -0.4217  1.1649  0.7804
 3063SOL     OW 9376   3.140   1.415   4.110  0.6207  0.0358  0.0825
 3063SOL    HW1 9377   3.078   1.465   4.058  1.1558  2.4370  1.5909
 3063SOL    HW2 9378   3.147   1.331   4.065 -1.8152  0.5741 -1.4969
 3064SOL     OW 9379   4.476   1.851   1.728 -0.0913 -0.3471  0.0923
 3064SOL    HW1 9380   4.382   1.871   1.729  0.0060  0.1213  0.9443
 3064SOL    HW2 9381   4.505   1.869   1.818  1.1052  0.9181 -0.5094
 3065SOL     OW 9382   3.181   2.851   3.224 -0.6234 -0.1717 -0.2938
 3065SOL    HW1 9383   3.166   2.935   3.180  0.2089 -0.4211 -1.0750
 3065SOL    HW2 9384   3.273   2.832   3.209 -0.8412 -1.3142 -0.2607
 3066SOL     OW 9385   0.648   2.820   4.023 -0.2356  0.1506 -0.4306
 3066SOL    HW1 9386   0.674   2.834   4.114 -0.5545  0.3802 -0.3715
 3066SOL    HW2 9387   0.714   2.761   3.988 -0.9616 -1.1972  0.3836
 3067SOL     OW 9388   1.079   1.281   2.337  0.6439  0.1733  0.0394
 3067SOL    HW1 9389   1.031   1.339   2.277  1.4844 -0.5092 -1.3463
 3067SOL    HW2 9390   1.153   1.249   2.285  0.8254 -1.2738  1.1264
 3068SOL     OW 9391   4.696   4.885   4.111  0.4408  0.1073  0.3297
 3068SOL    HW1 9392   4.703   4.903   4.018  0.0515 -0.0363  0.2710
 3068SOL    HW2 9393   4.607   4.910   4.134  1.2940  2.6522  1.2285
 3069SOL     OW 9394   3.719   2.701   1.439  0.5290  0.3580 -0.0059
 3069SOL    HW1 9395   3.683   2.657   1.362  3.0761  2.3720 -2.5460
 3069SOL    HW2 9396   3.650   2.694   1.505 -2.3119 -0.4381 -2.8169
 3070SOL     OW 9397   2.150   1.742   2.779  0.4170 -0.6697  0.3773
 3070SOL    HW1 9398   2.056   1.723   2.785  0.3778 -0.6189 -0.0414
 3070SOL    HW2 9399   2.162   1.772   2.689  0.5913  0.6855  0.8389
 3071SOL     OW 9400   1.080   2.385   0.699  0.2609  0.1898  0.7066
 3071SOL    HW1 9401   1.123   2.447   0.640  1.9278 -1.1376  0.4380
 3071SOL    HW2 9402   0.987   2.406   0.693  0.1582 -0.5970 -3.3011
 3072SOL     OW 9403   1.816   4.409   0.596 -0.3580  1.0174  0.6480
 3072SOL    HW1 9404   1.838   4.502   0.601 -0.2772  1.1907 -1.7864
 3072SOL    HW2 9405   1.746   4.405   0.531  1.2705 -0.8232 -1.1123
 3073SOL     OW 9406   3.984   4.554   2.720  0.1186 -0.4293  0.1336
 3073SOL    HW1 9407   3.994   4.591   2.808  0.5726 -3.9412  1.7144
 3073SOL    HW2 9408   4.061   4.498   2.708 -0.7385 -1.2939 -1.8405
 3074SOL     OW 9409   2.665   0.262   4.145  0.1929 -0.3370  0.4483
 3074SOL    HW1 9410   2.732   0.304   4.200  1.9992 -1.7531 -0.5268
 3074SOL    HW2 9411   2.689   0.286   4.056 -0.1036 -1.5396  0.0272
 3075SOL     OW 9412   2.294   1.647   4.295  0.1874 -0.1986 -0.1530
 3075SOL    HW1 9413   2.314   1.721   4.237  0.2292  0.4241  0.6385
 3075SOL    HW2 9414   2.371   1.640   4.352 -0.3687  0.0080  0.6477
 3076SOL     OW 9415   3.216   3.543   4.714 -0.0107  0.3191 -0.3840
 3076SOL    HW1 9416   3.292   3.486   4.705 -1.6271 -2.2159  0.5903
 3076SOL    HW2 9417   3.241   3.608   4.779  0.8369 -1.4730  1.1713
 3077SOL     OW 9418   3.866   4.485   2.019 -0.4666  0.4166 -0.1304
 3077SOL    HW1 9419   3.829   4.507   2.104  1.5328 -0.4484  1.0397
 3077SOL    HW2 9420   3.889   4.569   1.980 -1.9989  0.8621 -0.1648
 3078SOL     OW 9421   3.295   2.979   4.014  0.3100  0.4855 -0.1049
 3078SOL    HW1 9422   3.311   3.021   4.099 -0.0764  0.7348 -0.1504
 3078SOL    HW2 9423   3.208   3.010   3.989  0.8978  1.3391 -1.1451
 3079SOL     OW 9424   3.397   2.968   2.535  0.0571 -0.5124 -0.0873
 3079SOL    HW1 9425   3.307   2.954   2.504 -0.1938 -0.4973  0.6142
 3079SOL    HW2 9426   3.386   3.015   2.617  0.7605  0.5903 -0.6041
 3080SOL     OW 9427   4.589   1.604   0.657 -0.5913 -0.0766  0.3348
 3080SOL    HW1 9428   4.637   1.590   0.740 -0.0004  0.1392  0.0353
 3080SOL    HW2 9429   4.651   1.652   0.602 -1.0095 -0.1641 -0.2113
 3081SOL     OW 9430   0.898   0.106   2.107  0.4842  0.0420  0.4180
 3081SOL    HW1 9431   0.902   0.038   2.174  1.2669  0.4489  0.7903
 3081SOL    HW2 9432   0.827   0.164   2.136  1.0379  0.4013  1.0710
 3082SOL     OW 9433   1.435   3.791   1.935 -0.0090  0.3619 -0.1740
 3082SOL    HW1 9434   1.349   3.775   1.975  1.6914  0.5723  4.1514
 3082SOL    HW2 9435   1.459   3.708   1.896 -0.8058 -0.8106  1.6833
 3083SOL     OW 9436   2.834   0.473   2.791  0.0379 -0.7764  0.8793
 3083SOL    HW1 9437   2.843   0.553   2.842 -1.7322  0.1915 -0.2147
 3083SOL    HW2 9438   2.780   0.415   2.846 -0.2471 -0.4874  0.9037
 3084SOL     OW 9439   3.867   3.602   3.000  0.3095 -0.3902 -0.3379
 3084SOL    HW1 9440   3.884   3.693   2.976 -0.5106 -0.2238 -0.3210
 3084SOL    HW2 9441   3.919   3.587   3.079  0.0459  0.2199 -0.0475
 3085SOL     OW 9442   3.945   0.348   2.841 -0.2126  0.0978  0.1031
 3085SOL    HW1 9443   4.024   0.367   2.891  1.2116 -2.0088 -1.1774
 3085SOL    HW2 9444   3.968   0.370   2.751 -1.6834  1.0115 -0.0733
 3086SOL     OW 9445   2.858   0.023   3.038  0.2576 -0.0231  0.7717
 3086SOL    HW1 9446   2.812  -0.060   3.027  0.6093  0.0577 -2.0673
 3086SOL    HW2 9447   2.902   0.016   3.122  1.5286 -3.3543 -0.0421
 3087SOL     OW 9448   4.805   0.934   2.766  0.3209 -0.4521 -0.2842
 3087SOL    HW1 9449   4.870   0.925   2.696  1.5988  1.7474  0.5111
 3087SOL    HW2 9450   4.741   0.996   2.732  0.0320 -0.6554 -0.1165
 3088SOL     OW 9451   0.186   1.942   2.168  0.1116  0.1598  0.2780
 3088SOL    HW1 9452   0.133   1.957   2.245 -1.8197  0.0365 -0.9627
 3088SOL    HW2 9453   0.191   1.847   2.160 -0.6994  0.1669 -0.3916
 3089SOL     OW 9454   2.900   0.779   0.827 -0.0327 -0.1680  0.2588
 3089SOL    HW1 9455   2.928   0.864   0.793 -2.5976  0.6024 -0.1347
 3089SOL    HW2 9456   2.923   0.781   0.919  0.2954  0.7897  0.1636
 3090SOL     OW 9457   4.445   0.769   0.713 -0.6018 -0.2431  0.1909
 3090SOL    HW1 9458   4.533   0.756   0.749  1.5636  0.4240 -4.1645
 3090SOL    HW2 9459   4.390   0.710   0.763  2.4798 -1.3461  2.5981
 3091SOL     OW 9460   4.348   1.513   0.560 -0.1896 -0.2225 -0.0002
 3091SOL    HW1 9461   4.321   1.600   0.531 -2.0478 -0.1182  1.7992
 3091SOL    HW2 9462   4.437   1.525   0.594 -0.1673  0.8053 -0.3942
 3092SOL     OW 9463   0.822   4.630   4.215 -0.0742  0.1256 -0.4207
 3092SOL    HW1 9464   0.914   4.604   4.204 -0.0448 -0.3347  0.7871
 3092SOL    HW2 9465   0.780   4.606   4.133  1.1238  1.4915 -1.5004
 3093SOL     OW 9466   3.388   0.611   0.828 -0.2119 -0.0014 -0.5736
 3093SOL    HW1 9467   3.293   0.623   0.821 -0.2622 -0.4142 -0.6119
 3093SOL    HW2 9468   3.398   0.535   0.886  0.0991  0.1328 -0.4523
 3094SOL     OW 9469   0.986   3.011   0.725  0.4389  0.0919  0.0406
 3094SOL    HW1 9470   1.081   2.997   0.720  0.3047 -0.4170 -1.6019
 3094SOL    HW2 9471   0.950   2.924   0.741  0.1636  0.0144 -0.9540
 3095SOL     OW 9472   4.688   3.781   2.023 -0.2589 -0.3825 -0.7687
 3095SOL    HW1 9473   4.684   3.813   2.113  0.0541  0.8851 -1.1836
 3095SOL    HW2 9474   4.780   3.759   2.009 -0.2397 -0.2178 -0.8992
 3096SOL     OW 9475   2.236   2.179   3.440  0.2902  0.2268 -0.1870
 3096SOL    HW1 9476   2.166   2.114   3.427  0.6670 -0.4108  0.8828
 3096SOL    HW2 9477   2.190   2.257   3.473  0.0492 -0.1004  0.2576
 3097SOL     OW 9478   4.642   0.763   3.572  0.1412 -0.0716  0.4314
 3097SOL    HW1 9479   4.556   0.801   3.592  0.8739  1.4452  0.8351
 3097SOL    HW2 9480   4.644   0.681   3.621 -1.1216 -0.2006  0.3025
 3098SOL     OW 9481   1.896   1.595   1.938  0.0761 -0.0878 -0.1890
 3098SOL    HW1 9482   1.825   1.532   1.949 -0.5119  0.3422 -1.4076
 3098SOL    HW2 9483   1.877   1.639   1.855  1.2030  0.7615 -0.0191
 3099SOL     OW 9484   3.729   3.466   1.363  0.1713  0.1095 -0.4629
 3099SOL    HW1 9485   3.687   3.520   1.297  3.0557  1.1452 -1.5878
 3099SOL    HW2 9486   3.760   3.527   1.429  1.9882 -0.3039 -0.8889
 3100SOL     OW 9487   2.760   3.424   3.272 -0.2955 -0.1357  0.1183
 3100SOL    HW1 9488   2.828   3.359   3.290 -0.8105 -0.4509  0.9858
 3100SOL    HW2 9489   2.751   3.423   3.176 -0.1854 -1.2355  0.1061
 3101SOL     OW 9490   1.309   3.812   3.585  0.1045 -0.5886 -0.2088
 3101SOL    HW1 9491   1.319   3.725   3.624 -2.1868 -0.2126  1.3973
 3101SOL    HW2 9492   1.257   3.861   3.649 -0.4794  1.3064 -2.0434
 3102SOL     OW 9493   3.760   4.264   4.878  0.3452 -0.9717  0.1664
 3102SOL    HW1 9494   3.706   4.203   4.929 -0.3625  0.7906  1.6045
 3102SOL    HW2 9495   3.737   4.350   4.911  1.5245  0.0971 -1.6285
 3103SOL     OW 9496   4.350   1.310   0.368  0.2059 -0.5307  0.1138
 3103SOL    HW1 9497   4.323   1.360   0.445  0.4555  1.0267 -0.7632
 3103SOL    HW2 9498   4.282   1.329   0.303 -0.6210 -2.7339  0.2470
 3104SOL     OW 9499   0.237   1.296   4.224  0.2346  0.1817  0.3507
 3104SOL    HW1 9500   0.298   1.238   4.270 -1.6877 -1.2485  1.2899
 3104SOL    HW2 9501   0.199   1.351   4.293 -0.4379  0.1687  0.0034
 3105SOL     OW 9502   4.518   1.706   3.819 -0.5563  0.1856  0.5574
 3105SOL    HW1 9503   4.541   1.748   3.736 -1.7386  1.1993  0.7287
 3105SOL    HW2 9504   4.603   1.683   3.858  0.0206 -1.1499 -1.3251
 3106SOL     OW 9505   2.483   4.144   0.011 -0.1456 -0.3875  0.1087
 3106SOL    HW1 9506   2.561   4.089   0.013 -0.1234 -0.7386 -3.3405
 3106SOL    HW2 9507   2.516   4.234   0.016 -0.0633 -0.4672  4.0295
 3107SOL     OW 9508   1.201   1.979   4.702  0.3739  0.4426  0.2016
 3107SOL    HW1 9509   1.280   2.033   4.693  0.9547 -0.2856  0.7667
 3107SOL    HW2 9510   1.234   1.890   4.713 -0.5547  0.0303 -0.2510
 3108SOL     OW 9511   0.307   2.677   2.777 -0.2765  0.6020 -0.1842
 3108SOL    HW1 9512   0.221   2.644   2.800 -0.4623  1.1361 -0.0936
 3108SOL    HW2 9513   0.315   2.759   2.825  1.2030 -0.5281  1.6361
 3109SOL     OW 9514   4.861   3.109   3.131 -0.1055  0.0406  0.0367
 3109SOL    HW1 9515   4.766   3.121   3.121  0.1256  2.2230 -0.1231
 3109SOL    HW2 9516   4.899   3.175   3.073  1.5347 -0.9323 -0.0375
 3110SOL     OW 9517   1.523   0.016   2.632  0.0548  0.0997 -0.1600
 3110SOL    HW1 9518   1.429   0.010   2.646 -0.1115 -1.7642 -1.6715
 3110SOL    HW2 9519   1.551  -0.075   2.617  2.0055  0.6679 -0.2182
 3111SOL     OW 9520   3.640   2.083   1.478  0.4005  0.1152 -0.0567
 3111SOL    HW1 9521   3.629   1.988   1.473 -0.2737  0.2546 -3.1338
 3111SOL    HW2 9522   3.552   2.117   1.494  0.4295  0.2672 -0.2159
 3112SOL     OW 9523   4.341   3.522   3.239  0.3170  0.6819 -0.5788
 3112SOL    HW1 9524   4.366   3.586   3.172  0.4734  0.8431 -0.3657
 3112SOL    HW2 9525   4.394   3.545   3.315 -0.6661  1.2041 -0.0296
 3113SOL     OW 9526   2.156   2.672   3.056  0.3558  0.0947  0.4412
 3113SOL    HW1 9527   2.237   2.689   3.007  1.2140 -1.0865  1.3949
 3113SOL    HW2 9528   2.103   2.751   3.044  2.0358  1.2763  0.5750
 3114SOL     OW 9529   0.733   2.116   3.356 -0.3514 -0.3906  0.1968
 3114SOL    HW1 9530   0.665   2.060   3.320 -0.2345 -1.1875  1.1635
 3114SOL    HW2 9531   0.813   2.090   3.311 -0.6164  0.3748 -0.7608
 3115SOL     OW 9532   3.942   1.895   1.407  0.1619 -0.5026  0.0757
 3115SOL    HW1 9533   3.896   1.886   1.324 -1.2055  1.3199  0.5760
 3115SOL    HW2 9534   4.035   1.899   1.383 -0.2873  2.5094 -1.7124
 3116SOL     OW 9535   2.845   0.711   1.457 -0.0519  0.6531  0.1493
 3116SOL    HW1 9536   2.814   0.628   1.493 -1.5493  0.8235 -0.7169
 3116SOL    HW2 9537   2.767   0.756   1.427  0.9798  1.1945 -1.9164
 3117SOL     OW 9538   3.410   3.238   3.900  0.2578 -0.3434 -0.1709
 3117SOL    HW1 9539   3.393   3.168   3.837 -1.7182  1.1121 -1.3512
 3117SOL    HW2 9540   3.336   3.234   3.961  1.1468 -0.4840  0.9486
 3118SOL     OW 9541   0.819   4.574   4.506  0.7646 -0.3185  0.4919
 3118SOL    HW1 9542   0.876   4.579   4.429  1.6825  1.1424  1.2160
 3118SOL    HW2 9543   0.737   4.616   4.478  0.4360 -1.3823 -0.1982
 3119SOL     OW 9544   1.066   4.939   1.060  0.6383  0.1087  0.0332
 3119SOL    HW1 9545   1.004   5.003   1.024  0.5046 -0.0748 -0.0617
 3119SOL    HW2 9546   1.016   4.892   1.127  0.9168  0.5220  0.5417
 3120SOL     OW 9547   0.168   0.281   2.223  0.0149 -0.2508  0.2184
 3120SOL    HW1 9548   0.142   0.339   2.295 -0.0987  1.3422 -1.0489
 3120SOL    HW2 9549   0.264   0.277   2.229  0.0158 -0.0141  0.3746
 3121SOL     OW 9550   3.995   0.776   4.063 -0.1596  0.2599 -0.0795
 3121SOL    HW1 9551   3.929   0.760   4.131 -0.9642 -0.0370 -0.9043
 3121SOL    HW2 9552   3.979   0.708   3.998  1.9439 -0.7417  0.3912
 3122SOL     OW 9553   4.434   3.770   0.641  0.5460 -0.2982 -0.2343
 3122SOL    HW1 9554   4.475   3.791   0.725  1.4518 -1.8992 -0.2449
 3122SOL    HW2 9555   4.341   3.764   0.661  0.8880 -2.1565  1.0174
 3123SOL     OW 9556   2.073   2.294   0.910  0.6110 -0.4528  0.5116
 3123SOL    HW1 9557   2.070   2.200   0.890 -1.5454 -0.7058  1.7652
 3123SOL    HW2 9558   2.165   2.311   0.929  0.9298 -2.5265  1.1032
 3124SOL     OW 9559   4.607   3.558   0.617 -0.3620  0.5990 -0.0880
 3124SOL    HW1 9560   4.539   3.519   0.671 -0.2966  1.1913  0.4291
 3124SOL    HW2 9561   4.566   3.635   0.577 -0.1311  0.6986 -0.1383
 3125SOL     OW 9562   3.782   2.945   4.177  0.2399  0.1393  0.1034
 3125SOL    HW1 9563   3.871   2.972   4.155 -0.0563  0.0400 -1.3575
 3125SOL    HW2 9564   3.734   3.027   4.185 -0.1624  0.1847 -2.0979
 3126SOL     OW 9565   4.190   0.167   0.404  0.5063  0.4522 -0.3451
 3126SOL    HW1 9566   4.267   0.174   0.460 -0.0081  0.6076  0.3611
 3126SOL    HW2 9567   4.158   0.257   0.397 -0.9362  0.1170  1.2924
 3127SOL     OW 9568   0.115   1.784   4.016  0.0234  0.6177 -0.0048
 3127SOL    HW1 9569   0.092   1.804   4.107  1.0605  2.1616 -0.0384
 3127SOL    HW2 9570   0.127   1.689   4.014  0.0318  0.5644  1.4798
 3128SOL     OW 9571   1.305   2.707   2.632 -0.8519 -0.2597 -0.0145
 3128SOL    HW1 9572   1.228   2.709   2.574 -1.6205  0.2502  0.9795
 3128SOL    HW2 9573   1.282   2.768   2.702  1.1516  1.1942 -0.5281
 3129SOL     OW 9574   0.262   1.643   0.200  0.2635  0.3566 -0.6031
 3129SOL    HW1 9575   0.356   1.644   0.218  0.1330 -1.2693  0.4630
 3129SOL    HW2 9576   0.252   1.589   0.122  0.1537 -0.7195  0.1210
 3130SOL     OW 9577   4.070   1.729   0.201  0.1420 -0.5121  0.4273
 3130SOL    HW1 9578   4.075   1.663   0.131 -2.0190 -0.0792 -0.2151
 3130SOL    HW2 9579   4.151   1.717   0.251  0.7138 -2.3372 -0.8186
 3131SOL     OW 9580   4.501   3.860   1.845  0.2125 -0.4320 -0.0286
 3131SOL    HW1 9581   4.545   3.904   1.772 -0.5436  1.5732  0.6692
 3131SOL    HW2 9582   4.569   3.849   1.911  0.3099  0.0930 -0.0400
 3132SOL     OW 9583   0.401   0.302   2.795  0.1035 -0.2055 -0.0906
 3132SOL    HW1 9584   0.372   0.392   2.784 -0.1355 -0.1725  0.7347
 3132SOL    HW2 9585   0.368   0.256   2.718 -0.4621  0.2441 -0.1200
 3133SOL     OW 9586   3.733   1.427   0.966 -0.9452 -0.5305 -0.6984
 3133SOL    HW1 9587   3.743   1.496   1.031  0.7888 -0.0203 -1.4724
 3133SOL    HW2 9588   3.750   1.346   1.015  1.3244 -0.0911 -0.6382
 3134SOL     OW 9589   2.056   2.556   2.622 -0.2476 -0.1954  0.5169
 3134SOL    HW1 9590   1.988   2.570   2.688 -1.2163  0.8157 -0.6514
 3134SOL    HW2 9591   2.113   2.632   2.631 -0.7212  0.2518 -0.1944
 3135SOL     OW 9592   0.171   1.750   0.506  0.8406 -0.3528 -0.1621
 3135SOL    HW1 9593   0.082   1.732   0.538  0.6886 -0.1757 -0.4804
 3135SOL    HW2 9594   0.171   1.718   0.416  0.8032  0.5169 -0.4824
 3136SOL     OW 9595   2.823   4.276   1.024 -0.0781 -0.0422 -0.5170
 3136SOL    HW1 9596   2.839   4.191   0.982 -0.0897  0.4366 -1.4925
 3136SOL    HW2 9597   2.905   4.325   1.011  0.2119 -0.1632  0.7094
 3137SOL     OW 9598   1.104   4.385   2.277 -0.1357 -0.3495  0.1257
 3137SOL    HW1 9599   1.018   4.425   2.260 -0.1715 -0.7261 -0.6495
 3137SOL    HW2 9600   1.084   4.310   2.334  0.0708  1.3577  2.5931
 3138SOL     OW 9601   4.763   2.515   2.527  0.4258  0.3136  0.4386
 3138SOL    HW1 9602   4.811   2.595   2.546  1.1667  0.0406 -0.2142
 3138SOL    HW2 9603   4.773   2.461   2.605  1.0433  0.3369  0.3847
 3139SOL     OW 9604   0.184   4.677   3.939  0.0805 -0.8978 -0.2289
 3139SOL    HW1 9605   0.215   4.685   3.849  2.9950 -0.3937  0.7169
 3139SOL    HW2 9606   0.224   4.750   3.985 -0.8212 -1.5032  1.6238
 3140SOL     OW 9607   4.733   2.281   0.789  0.0537 -0.2397 -0.1352
 3140SOL    HW1 9608   4.822   2.262   0.761  0.6622 -0.5787  1.8866
 3140SOL    HW2 9609   4.738   2.368   0.829 -0.2367 -0.7158  0.9991
 3141SOL     OW 9610   0.069   3.664   3.366 -0.3120  0.2570  0.0806
 3141SOL    HW1 9611   0.144   3.694   3.315 -0.8906  0.9094 -0.4053
 3141SOL    HW2 9612   0.107   3.613   3.437  0.4797 -1.4009 -1.4610
 3142SOL     OW 9613   1.742   2.200   2.198 -0.3886 -0.2326 -0.7516
 3142SOL    HW1 9614   1.725   2.288   2.232  3.7886  0.5076  0.0059
 3142SOL    HW2 9615   1.739   2.210   2.103  1.8135  1.3237 -0.7397
 3143SOL     OW 9616   3.684   3.791   1.975 -0.1007 -0.0727  0.8551
 3143SOL    HW1 9617   3.723   3.724   2.031  0.6367  0.0787  0.5340
 3143SOL    HW2 9618   3.715   3.874   2.010  1.9903 -0.0161 -0.8792
 3144SOL     OW 9619   2.226   2.703   0.198 -0.1398 -0.3267 -0.4118
 3144SOL    HW1 9620   2.213   2.797   0.211 -0.4711 -0.5617  1.1312
 3144SOL    HW2 9621   2.238   2.694   0.103 -2.7590  0.9614 -0.9699
 3145SOL     OW 9622   0.072   3.695   3.788  0.7902  0.1216  0.1689
 3145SOL    HW1 9623   0.062   3.611   3.832 -1.0733  0.7488  1.0790
 3145SOL    HW2 9624   0.010   3.691   3.715  0.8268  0.6166  0.1055
 3146SOL     OW 9625   2.591   2.175   1.112  0.2082  0.5804 -0.1721
 3146SOL    HW1 9626   2.624   2.108   1.051 -0.0605  0.5761 -0.3167
 3146SOL    HW2 9627   2.552   2.241   1.055  2.0406  1.7566 -0.1321
 3147SOL     OW 9628   3.115   3.773   1.730  0.4813 -0.1252 -0.3985
 3147SOL    HW1 9629   3.184   3.825   1.689  0.2836 -0.7649 -1.6051
 3147SOL    HW2 9630   3.036   3.795   1.681  0.0253 -0.1707  0.3021
 3148SOL     OW 9631   1.065   3.762   2.311  0.2381  0.5712  0.4502
 3148SOL    HW1 9632   0.977   3.724   2.319  0.9704 -1.2390  0.3568
 3148SOL    HW2 9633   1.094   3.773   2.402  0.5070 -0.3382  0.4875
 3149SOL     OW 9634   2.707   0.520   1.082  0.4913 -0.4850  0.0568
 3149SOL    HW1 9635   2.701   0.594   1.021  0.5969  0.8574  1.5924
 3149SOL    HW2 9636   2.793   0.482   1.064  1.3549  1.0833  0.5916
 3150SOL     OW 9637   3.472   0.294   3.894 -0.4616  0.4809  0.3775
 3150SOL    HW1 9638   3.535   0.289   3.822 -2.3002  1.4981 -1.4034
 3150SOL    HW2 9639   3.467   0.205   3.928  1.7902  0.3463  0.5140
 3151SOL     OW 9640   1.965   4.817   1.877 -0.1145 -0.8867  0.1724
 3151SOL    HW1 9641   2.055   4.838   1.853 -0.5260  1.1027  0.2624
 3151SOL    HW2 9642   1.970   4.788   1.968  0.1722  1.6706  1.0412
 3152SOL     OW 9643   0.805   4.228   4.024  0.2739 -0.1461 -0.2972
 3152SOL    HW1 9644   0.783   4.263   3.937  0.3781 -0.4058 -0.4296
 3152SOL    HW2 9645   0.861   4.153   4.006  0.6161  0.0344  0.0126
 3153SOL     OW 9646   3.061   0.044   3.517  0.5551 -0.8298 -0.1998
 3153SOL    HW1 9647   3.142   0.012   3.556  1.0940  0.9661  0.2646
 3153SOL    HW2 9648   3.084   0.128   3.479 -1.0482 -0.3575 -0.2198
 3154SOL     OW 9649   4.791   3.170   0.890  0.8092  0.2625 -0.1170
 3154SOL    HW1 9650   4.729   3.099   0.876  1.3572 -0.4047  0.7331
 3154SOL    HW2 9651   4.818   3.197   0.802  1.2196 -1.1360 -0.4334
 3155SOL     OW 9652   0.659   2.125   2.551 -0.6685  0.1048 -1.1973
 3155SOL    HW1 9653   0.626   2.067   2.619 -0.7996 -0.0764 -1.4125
 3155SOL    HW2 9654   0.699   2.198   2.598 -0.3031 -0.2686 -0.9201
 3156SOL     OW 9655   4.392   1.570   2.150 -0.0424  0.1261 -0.1128
 3156SOL    HW1 9656   4.480   1.604   2.133  0.5402 -1.9270 -1.6463
 3156SOL    HW2 9657   4.335   1.647   2.145  1.3928  1.1689 -1.6186
 3157SOL     OW 9658   3.942   0.187   1.398 -0.1943 -0.2060 -0.0811
 3157SOL    HW1 9659   3.984   0.272   1.406 -0.3547 -0.2550  1.7342
 3157SOL    HW2 9660   4.014   0.125   1.386  0.1089 -0.0460  0.8268
 3158SOL     OW 9661   0.734   1.947   0.149 -0.0297  0.0279  0.0989
 3158SOL    HW1 9662   0.658   1.906   0.191 -1.8803  0.3509 -2.6635
 3158SOL    HW2 9663   0.696   2.011   0.089  2.5295  1.0815 -0.5142
 3159SOL     OW 9664   3.900   2.534   1.304 -0.5889 -0.2259 -0.7184
 3159SOL    HW1 9665   3.838   2.468   1.335 -2.0157  0.8205 -1.2128
 3159SOL    HW2 9666   3.876   2.614   1.352  1.7293 -0.2309  0.6144
 3160SOL     OW 9667   0.943   1.906   2.757 -0.2119  0.2289 -0.1096
 3160SOL    HW1 9668   0.961   1.907   2.663 -3.0631 -0.2288 -0.7367
 3160SOL    HW2 9669   0.978   1.989   2.789 -0.8080  1.2231 -1.9168
 3161SOL     OW 9670   3.469   2.882   0.001  0.1303 -0.1082  0.0114
 3161SOL    HW1 9671   3.395   2.939   0.019 -0.0417  0.1187 -1.3207
 3161SOL    HW2 9672   3.441   2.829  -0.074  1.9612  1.3099 -1.7888
 3162SOL     OW 9673   4.011   3.229   3.674 -0.6207 -0.0522  0.4378
 3162SOL    HW1 9674   3.976   3.309   3.712  1.4211  2.1620 -1.9783
 3162SOL    HW2 9675   3.933   3.181   3.643 -1.8539  2.6321 -1.0150
 3163SOL     OW 9676   4.163   2.924   4.474 -0.1025  0.2901 -0.0490
 3163SOL    HW1 9677   4.253   2.894   4.477 -0.0014  0.5775 -0.1409
 3163SOL    HW2 9678   4.120   2.868   4.409 -0.0198  0.0767  0.0809
 3164SOL     OW 9679   2.528   0.669   1.631  0.2845  0.5250 -0.8001
 3164SOL    HW1 9680   2.593   0.660   1.561  0.3884  0.3675 -0.6834
 3164SOL    HW2 9681   2.558   0.611   1.700 -0.7357 -0.6524 -1.3051
 3165SOL     OW 9682   4.716   4.336   3.362 -0.1282 -0.0482  0.2877
 3165SOL    HW1 9683   4.623   4.321   3.343 -0.4651  3.3421 -1.5478
 3165SOL    HW2 9684   4.716   4.365   3.454 -1.3249  2.0847 -0.2986
 3166SOL     OW 9685   4.653   3.131   2.110  0.3263 -0.1442  0.6249
 3166SOL    HW1 9686   4.642   3.223   2.136  0.6332 -0.0297  0.3670
 3166SOL    HW2 9687   4.564   3.097   2.103  0.2038  0.1784  0.5697
 3167SOL     OW 9688   2.708   1.890   1.871  0.3859  0.4257 -0.2152
 3167SOL    HW1 9689   2.636   1.870   1.930  2.0258  0.8714  2.0802
 3167SOL    HW2 9690   2.730   1.806   1.831 -0.5416  0.0330  0.0589
 3168SOL     OW 9691   3.501   4.065   4.569  0.4622 -0.2609  0.4152
 3168SOL    HW1 9692   3.462   4.148   4.595 -2.1946 -1.1096 -0.5453
 3168SOL    HW2 9693   3.539   4.082   4.483  0.2597  0.0568  0.3849
 3169SOL     OW 9694   0.915   1.804   0.648 -0.3854 -0.2748  0.4119
 3169SOL    HW1 9695   0.959   1.809   0.733 -1.1342  0.0839  0.7928
 3169SOL    HW2 9696   0.853   1.732   0.657 -0.7869  0.0578  0.3245
 3170SOL     OW 9697   0.269   0.415   0.299  0.2892 -0.3153  0.5041
 3170SOL    HW1 9698   0.173   0.424   0.301  0.2281 -0.6837 -0.3868
 3170SOL    HW2 9699   0.284   0.327   0.263  0.9740  0.4477 -1.1625
 3171SOL     OW 9700   2.737   0.154   1.167 -0.0699 -0.0097  0.3626
 3171SOL    HW1 9701   2.642   0.165   1.170 -0.0457  0.0156  2.9513
 3171SOL    HW2 9702   2.771   0.213   1.234  1.7410 -0.5370 -0.0167
 3172SOL     OW 9703   0.737   4.141   3.719  0.4008 -0.3282 -0.3195
 3172SOL    HW1 9704   0.705   4.099   3.639 -0.4201 -1.2021  0.4461
 3172SOL    HW2 9705   0.664   4.196   3.749  0.5751 -0.2798  0.0215
 3173SOL     OW 9706   0.144   4.927   4.428 -0.2924 -0.8791 -0.0953
 3173SOL    HW1 9707   0.094   5.009   4.427  1.1389  0.0746 -2.8733
 3173SOL    HW2 9708   0.145   4.902   4.520  0.5427  3.0700  1.1819
 3174SOL     OW 9709   0.449   0.361   2.203  0.2147 -0.5040  0.1500
 3174SOL    HW1 9710   0.516   0.423   2.172  0.4578 -1.4102 -1.2048
 3174SOL    HW2 9711   0.426   0.394   2.290 -0.2725  1.9752 -0.8227
 3175SOL     OW 9712   3.478   4.545   2.656  0.1314 -0.2123 -0.1183
 3175SOL    HW1 9713   3.397   4.557   2.705  1.1072  0.9574  1.3107
 3175SOL    HW2 9714   3.494   4.629   2.615  0.9909 -0.1898  0.2366
 3176SOL     OW 9715   2.104   0.735   3.084  0.2941  0.0239 -0.0839
 3176SOL    HW1 9716   2.121   0.804   3.148 -2.6994 -0.4451  1.4149
 3176SOL    HW2 9717   2.121   0.654   3.132  1.7938 -0.3713 -1.1935
 3177SOL     OW 9718   1.101   4.755   2.207 -0.3234  0.5466 -0.1702
 3177SOL    HW1 9719   1.170   4.798   2.156  0.6785 -0.4029  0.3298
 3177SOL    HW2 9720   1.047   4.826   2.240 -0.7666  1.2017 -2.2020
 3178SOL     OW 9721   4.754   3.581   4.855 -0.0869 -0.5964  0.3457
 3178SOL    HW1 9722   4.846   3.558   4.839  0.1158  0.8263 -0.6892
 3178SOL    HW2 9723   4.704   3.512   4.812  0.5055 -0.5000 -0.5211
 3179SOL     OW 9724   0.324   2.509   4.844  0.2067 -0.0312 -0.5665
 3179SOL    HW1 9725   0.419   2.508   4.835  0.3693  0.4631  0.8376
 3179SOL    HW2 9726   0.293   2.557   4.767  1.3120  2.2440  0.3270
 3180SOL     OW 9727   1.697   4.735   2.895 -0.1124 -0.3307  0.2474
 3180SOL    HW1 9728   1.718   4.751   2.987  0.9502 -1.6325  0.2524
 3180SOL    HW2 9729   1.605   4.710   2.895 -0.2560  0.1858  0.8832
 3181SOL     OW 9730   4.937   2.446   3.587 -0.0280  0.1164 -0.0854
 3181SOL    HW1 9731   4.981   2.531   3.576 -0.6707  0.7052  1.5245
 3181SOL    HW2 9732   4.974   2.410   3.668 -1.6896  0.1376  0.7218
 3182SOL     OW 9733   1.227   3.662   2.547  0.2065  0.4495 -0.0778
 3182SOL    HW1 9734   1.229   3.594   2.480 -1.4370  0.9269 -0.6704
 3182SOL    HW2 9735   1.315   3.662   2.585  0.8841 -0.4887 -1.5679
 3183SOL     OW 9736   1.251   3.665   4.226  0.3746  0.3728 -0.3813
 3183SOL    HW1 9737   1.165   3.624   4.232  0.0260  0.7072 -2.5118
 3183SOL    HW2 9738   1.303   3.622   4.294 -0.8096 -1.5076 -0.6116
 3184SOL     OW 9739   3.337   2.545   0.102  0.4365 -0.2525  0.6451
 3184SOL    HW1 9740   3.416   2.549   0.048  0.2210  0.2006  0.3599
 3184SOL    HW2 9741   3.281   2.480   0.058  0.2911  0.0630  0.3610
 3185SOL     OW 9742   2.633   0.205   2.364  0.4308 -0.1633 -0.1085
 3185SOL    HW1 9743   2.665   0.289   2.332  0.7912 -0.8930 -1.7854
 3185SOL    HW2 9744   2.538   0.214   2.366  0.1371 -0.7899 -3.8585
 3186SOL     OW 9745   2.339   1.744   2.310  0.5648 -0.1175  0.3734
 3186SOL    HW1 9746   2.322   1.723   2.219 -1.4090  1.7795  0.2144
 3186SOL    HW2 9747   2.417   1.799   2.308 -0.3606  1.2463 -0.4358
 3187SOL     OW 9748   3.902   1.575   1.969  0.0834  0.1705 -0.3552
 3187SOL    HW1 9749   3.954   1.495   1.963 -1.0446 -0.5176 -1.3817
 3187SOL    HW2 9750   3.962   1.645   1.942  1.8738  0.1327  2.9018
 3188SOL     OW 9751   1.721   4.681   3.796 -0.1310  0.2008  0.5403
 3188SOL    HW1 9752   1.746   4.591   3.777  0.3619  0.6052 -0.8683
 3188SOL    HW2 9753   1.679   4.677   3.882 -2.5114 -1.7614 -0.6259
 3189SOL     OW 9754   1.298   0.934   4.715  0.1308 -0.8789 -0.4002
 3189SOL    HW1 9755   1.281   0.840   4.719 -0.1023 -0.7934  2.1271
 3189SOL    HW2 9756   1.382   0.946   4.760 -0.3993  0.2078  0.3600
 3190SOL     OW 9757   1.016   3.906   1.897  0.2275  0.1867 -0.4166
 3190SOL    HW1 9758   0.998   3.991   1.936 -0.1716  0.0658 -0.3280
 3190SOL    HW2 9759   1.077   3.864   1.957 -0.5347 -0.0776  0.1978
 3191SOL     OW 9760   4.034   1.335   1.961 -0.0959 -0.0196 -0.0159
 3191SOL    HW1 9761   4.130   1.336   1.972 -0.1427  0.3959  0.4106
 3191SOL    HW2 9762   4.020   1.292   1.877  0.4277 -0.7869  0.2814
 3192SOL     OW 9763   1.589   3.939   3.508 -0.1682 -0.1422  0.1127
 3192SOL    HW1 9764   1.632   3.988   3.578 -1.0106  1.5236 -0.4833
 3192SOL    HW2 9765   1.547   3.866   3.553 -0.0474  0.4583  1.2402
 3193SOL     OW 9766   3.843   2.701   4.732 -0.2999  0.1316 -0.1389
 3193SOL    HW1 9767   3.850   2.793   4.705  0.6655  0.7351  1.9961
 3193SOL    HW2 9768   3.852   2.703   4.827 -2.1866 -2.0121  0.1556
 3194SOL     OW 9769   4.040   2.403   0.284  0.1840 -0.8114 -0.1238
 3194SOL    HW1 9770   4.081   2.450   0.357  1.2386 -0.0140 -1.1845
 3194SOL    HW2 9771   3.965   2.458   0.260  1.0447  0.0662 -0.9452
 3195SOL     OW 9772   3.978   2.330   0.878 -0.4107  0.5498 -0.1670
 3195SOL    HW1 9773   3.940   2.407   0.835  0.3661  0.2949 -1.3620
 3195SOL    HW2 9774   4.069   2.329   0.848  0.3353  0.6458  1.9143
 3196SOL     OW 9775   3.501   4.090   1.994 -0.1096 -0.3098  0.2107
 3196SOL    HW1 9776   3.457   4.014   2.033  0.3044 -0.2220  0.8736
 3196SOL    HW2 9777   3.530   4.142   2.069  0.2470  0.1351 -0.2289
 3197SOL     OW 9778   0.883   3.173   2.909  0.1074  0.1904 -0.0662
 3197SOL    HW1 9779   0.922   3.186   2.995 -0.2656 -0.0759  0.1471
 3197SOL    HW2 9780   0.807   3.116   2.925  0.1986 -0.0957 -0.6074
 3198SOL     OW 9781   3.562   4.723   3.612  0.1583 -0.0636 -0.0707
 3198SOL    HW1 9782   3.519   4.646   3.651  0.0646 -0.2642 -0.5518
 3198SOL    HW2 9783   3.641   4.736   3.664  0.1973 -0.5193 -0.0125
 3199SOL     OW 9784   1.249   2.841   1.928 -0.3152  0.5359 -0.4573
 3199SOL    HW1 9785   1.247   2.813   1.837 -0.3605  0.7625 -0.5267
 3199SOL    HW2 9786   1.197   2.921   1.930 -0.3973  0.4790 -0.2141
 3200SOL     OW 9787   1.689   0.333   3.808 -0.3752  0.1741  0.5088
 3200SOL    HW1 9788   1.783   0.315   3.798 -0.4840  0.0267 -0.3386
 3200SOL    HW2 9789   1.646   0.251   3.783 -0.7853  0.7769 -0.8454
 3201SOL     OW 9790   2.647   2.882   1.604  0.0372 -0.0275 -0.0627
 3201SOL    HW1 9791   2.554   2.862   1.608 -0.3575  1.8057  1.0330
 3201SOL    HW2 9792   2.661   2.919   1.517 -0.1161 -0.8762 -0.4539
 3202SOL     OW 9793   2.507   0.660   0.255 -0.3125  0.0967  0.1086
 3202SOL    HW1 9794   2.467   0.619   0.178  0.6712 -1.3460  0.3485
 3202SOL    HW2 9795   2.535   0.746   0.223  2.6596 -1.4846 -2.0320
 3203SOL     OW 9796   0.365   0.975   4.267  0.2999  0.8692 -0.0494
 3203SOL    HW1 9797   0.273   0.949   4.261  0.2442  0.7665  1.0317
 3203SOL    HW2 9798   0.413   0.896   4.241  0.0836  0.8547 -0.4076
 3204SOL     OW 9799   0.897   4.019   2.476 -0.4118 -0.0955 -0.5876
 3204SOL    HW1 9800   0.848   4.101   2.467 -0.2430 -0.0226 -0.8665
 3204SOL    HW2 9801   0.937   4.025   2.563 -0.8900 -0.1539 -0.3606
 3205SOL     OW 9802   0.762   2.008   1.511 -0.2685  0.2798  0.5729
 3205SOL    HW1 9803   0.688   2.055   1.549 -2.7163 -1.7207 -1.2949
 3205SOL    HW2 9804   0.764   2.036   1.420 -1.3221 -2.4231 -0.4022
 3206SOL     OW 9805   2.265   0.702   0.355  0.1919 -0.7397  0.5165
 3206SOL    HW1 9806   2.351   0.704   0.313 -0.4731 -0.0341 -0.9058
 3206SOL    HW2 9807   2.219   0.630   0.311 -0.2442 -0.5258  0.6223
 3207SOL     OW 9808   4.764   1.716   2.430 -0.6450 -0.0607  0.0095
 3207SOL    HW1 9809   4.725   1.774   2.494 -0.7428  1.1622 -1.1200
 3207SOL    HW2 9810   4.693   1.658   2.402 -0.7655 -0.1472  0.4977
 3208SOL     OW 9811   0.531   2.681   0.969 -0.0748  0.3111 -0.2990
 3208SOL    HW1 9812   0.502   2.623   1.039  0.5436  1.1780  0.6937
 3208SOL    HW2 9813   0.571   2.755   1.014  2.1094 -0.0142 -1.5749
 3209SOL     OW 9814   4.716   2.968   1.516  0.1796  0.3652 -0.0201
 3209SOL    HW1 9815   4.688   3.059   1.504  0.2391  0.7400  2.2775
 3209SOL    HW2 9816   4.640   2.923   1.550  0.2850 -0.3758 -0.7218
 3210SOL     OW 9817   1.547   1.663   0.641  0.0959 -0.1224  0.3620
 3210SOL    HW1 9818   1.462   1.667   0.685 -1.3068 -4.0485 -1.4754
 3210SOL    HW2 9819   1.533   1.708   0.558  0.1674  0.1673  0.5055
 3211SOL     OW 9820   1.383   1.191   2.657  0.1803 -0.1125 -0.2780
 3211SOL    HW1 9821   1.475   1.207   2.636  0.2146  0.8124  0.4842
 3211SOL    HW2 9822   1.371   1.234   2.742 -0.9382 -0.2868 -0.3440
 3212SOL     OW 9823   0.744   0.836   1.572 -0.5318  0.0032 -0.3743
 3212SOL    HW1 9824   0.774   0.766   1.514 -0.6927 -0.9339  0.6491
 3212SOL    HW2 9825   0.685   0.793   1.634 -1.4669  1.2454 -0.3776
 3213SOL     OW 9826   2.173   1.032   2.434  0.7256 -0.3273 -0.2296
 3213SOL    HW1 9827   2.160   1.105   2.373  0.2415 -0.6426 -0.5191
 3213SOL    HW2 9828   2.167   0.954   2.378  1.1873 -0.5909  0.0828
 3214SOL     OW 9829   2.118   4.834   0.562  0.1668  0.1337  0.3138
 3214SOL    HW1 9830   2.038   4.791   0.596  1.5681 -1.3697  1.9331
 3214SOL    HW2 9831   2.113   4.923   0.595 -1.4344  0.4531 -0.6840
 3215SOL     OW 9832   3.619   0.228   1.646  0.2110 -0.4454  0.1949
 3215SOL    HW1 9833   3.619   0.236   1.550 -0.7376 -2.7989 -0.0789
 3215SOL    HW2 9834   3.528   0.242   1.672  0.3530 -0.4068  0.6787
 3216SOL     OW 9835   3.246   4.730   0.566 -0.4317 -0.0015 -1.2460
 3216SOL    HW1 9836   3.199   4.714   0.484 -0.4146 -0.1637 -1.2241
 3216SOL    HW2 9837   3.321   4.670   0.563  0.1720  0.7489 -1.6074
 3217SOL     OW 9838   4.183   3.318   2.262 -0.2740  0.4190  0.1626
 3217SOL    HW1 9839   4.136   3.391   2.220 -1.7963 -0.2168  0.7142
 3217SOL    HW2 9840   4.125   3.288   2.331  0.0037 -1.7938 -0.4893
 3218SOL     OW 9841   1.708   0.663   0.644  0.4909  0.0679  0.1632
 3218SOL    HW1 9842   1.746   0.740   0.686  0.1198  1.2555 -1.5979
 3218SOL    HW2 9843   1.708   0.596   0.713  0.0257  1.8651  2.0053
 3219SOL     OW 9844   2.291   4.519   2.278  0.4659 -0.1940 -0.6519
 3219SOL    HW1 9845   2.358   4.572   2.320  1.6768 -1.1366 -1.3222
 3219SOL    HW2 9846   2.281   4.557   2.191 -1.0391  0.9012 -0.0538
 3220SOL     OW 9847   3.260   2.842   1.125 -0.1643  0.0836  0.1005
 3220SOL    HW1 9848   3.271   2.808   1.036  0.8857  0.0433  0.2307
 3220SOL    HW2 9849   3.212   2.774   1.171  0.6114 -0.5764 -0.0439
 3221SOL     OW 9850   2.262   3.919   1.476 -0.4277  0.0003  0.2772
 3221SOL    HW1 9851   2.349   3.883   1.459 -1.4032 -1.1703 -2.9624
 3221SOL    HW2 9852   2.258   3.998   1.422  0.1833  2.9265  4.0853
 3222SOL     OW 9853   4.495   2.229   1.437  0.3484 -0.0075 -0.1392
 3222SOL    HW1 9854   4.418   2.285   1.426  0.0530 -0.1256  1.2190
 3222SOL    HW2 9855   4.464   2.141   1.412  0.2789  0.0858 -0.3888
 3223SOL     OW 9856   0.843   1.870   1.934 -0.0075  0.5262 -0.2263
 3223SOL    HW1 9857   0.849   1.954   1.889 -0.3283  0.5691 -0.1919
 3223SOL    HW2 9858   0.906   1.814   1.889 -0.7882  0.3759 -1.1471
 3224SOL     OW 9859   0.347   3.565   3.293  0.1582  0.2010  0.0350
 3224SOL    HW1 9860   0.311   3.487   3.252 -0.5240  0.5162  0.0288
 3224SOL    HW2 9861   0.329   3.553   3.387 -1.4895  1.1258 -0.1285
 3225SOL     OW 9862   3.310   1.792   1.482 -0.7298  0.8963 -0.1433
 3225SOL    HW1 9863   3.404   1.790   1.464 -0.7733 -0.6703 -0.3137
 3225SOL    HW2 9864   3.275   1.854   1.418 -0.2373 -1.0016 -2.3916
 3226SOL     OW 9865   1.109   1.154   3.112 -0.1568  0.1981  0.0883
 3226SOL    HW1 9866   1.105   1.250   3.118  0.0193  0.1491  1.3013
 3226SOL    HW2 9867   1.177   1.130   3.175 -0.2640 -0.7356 -0.1495
 3227SOL     OW 9868   1.890   4.711   4.712  0.2065  0.4489 -0.1162
 3227SOL    HW1 9869   1.806   4.698   4.668  0.7404 -1.4860 -0.6588
 3227SOL    HW2 9870   1.917   4.623   4.739  0.9866  1.2980  2.1127
 3228SOL     OW 9871   0.727   4.766   1.028  0.0581  0.5696 -0.3681
 3228SOL    HW1 9872   0.686   4.851   1.016 -2.1453 -0.3301  0.2650
 3228SOL    HW2 9873   0.688   4.710   0.961  0.8631 -0.1546 -0.2574
 3229SOL     OW 9874   3.883   3.446   3.293  0.3349  0.3552  0.6444
 3229SOL    HW1 9875   3.931   3.460   3.375  1.3288  0.6805  0.0254
 3229SOL    HW2 9876   3.949   3.410   3.233 -0.3482  0.2539 -0.0493
 3230SOL     OW 9877   0.770   1.985   0.502  0.3851  0.2653  0.0765
 3230SOL    HW1 9878   0.852   1.944   0.529  0.4350  0.6538  0.5347
 3230SOL    HW2 9879   0.794   2.039   0.427  0.7914  1.2789  0.9093
 3231SOL     OW 9880   0.076   3.466   4.805 -0.1494  0.0097 -0.5646
 3231SOL    HW1 9881   0.075   3.480   4.711 -1.9515  0.8170 -0.4674
 3231SOL    HW2 9882   0.154   3.513   4.836  0.3622 -0.1290 -1.6220
 3232SOL     OW 9883   1.307   3.062   1.333  0.3661  0.6018  0.0348
 3232SOL    HW1 9884   1.270   2.988   1.285  1.7067 -0.1363  0.0920
 3232SOL    HW2 9885   1.313   3.132   1.268 -1.8719  1.0473  0.2257
 3233SOL     OW 9886   2.915   1.285   3.782 -0.3901  0.4226 -0.3099
 3233SOL    HW1 9887   3.007   1.272   3.762  0.1248  1.1349  1.4425
 3233SOL    HW2 9888   2.900   1.378   3.767 -1.0905  0.1449 -1.4841
 3234SOL     OW 9889   4.212   3.789   3.344  0.1818  0.2762 -0.2443
 3234SOL    HW1 9890   4.268   3.847   3.293 -1.6597  1.7660 -0.6923
 3234SOL    HW2 9891   4.254   3.784   3.429  1.3180  0.8362 -0.7475
 3235SOL     OW 9892   0.156   0.431   4.639 -0.4498 -0.2425  0.0027
 3235SOL    HW1 9893   0.209   0.427   4.719  2.2228  0.4180 -1.5906
 3235SOL    HW2 9894   0.200   0.496   4.585 -0.3324 -2.7402 -3.1970
 3236SOL     OW 9895   1.046   3.880   1.177 -0.3961  0.3959  0.0430
 3236SOL    HW1 9896   1.018   3.792   1.203 -3.7873  0.4007 -2.8335
 3236SOL    HW2 9897   1.073   3.921   1.259 -0.4003 -2.7098  1.7757
 3237SOL     OW 9898   2.945   0.666   0.524  0.8527  0.0849  0.0751
 3237SOL    HW1 9899   2.869   0.723   0.510  2.0127  1.6189 -0.2095
 3237SOL    HW2 9900   3.020   0.718   0.497  2.1406 -0.9519  1.4457
 3238SOL     OW 9901   0.698   1.935   3.837 -0.2725  0.6389 -0.1500
 3238SOL    HW1 9902   0.659   1.992   3.904 -1.4294  0.0407 -0.3013
 3238SOL    HW2 9903   0.624   1.891   3.796  0.6184 -1.6200  0.5124
 3239SOL     OW 9904   1.153   4.938   1.816 -0.0791 -0.5831 -0.1871
 3239SOL    HW1 9905   1.219   4.883   1.858  0.8458  0.2931 -0.4503
 3239SOL    HW2 9906   1.173   5.026   1.847 -0.3349 -0.1368 -1.2588
 3240SOL     OW 9907   4.571   0.374   3.335 -0.1453 -0.0263 -0.2894
 3240SOL    HW1 9908   4.568   0.285   3.299 -0.8184 -0.2887  0.3812
 3240SOL    HW2 9909   4.503   0.374   3.403  0.7267  0.6000  0.6168
 3241SOL     OW 9910   0.351   4.255   1.486  0.1304  0.5910  0.8970
 3241SOL    HW1 9911   0.259   4.265   1.465 -0.1530 -1.1255  1.1568
 3241SOL    HW2 9912   0.397   4.280   1.406 -0.4842  2.4226  1.0824
 3242SOL     OW 9913   3.082   0.976   2.205 -0.0483  0.2102 -0.1052
 3242SOL    HW1 9914   3.153   0.940   2.259  0.9805 -0.5068 -1.8498
 3242SOL    HW2 9915   3.012   0.996   2.267  0.8596 -1.1139  1.4139
 3243SOL     OW 9916   2.273   2.192   3.729  0.5927  0.1138  0.3075
 3243SOL    HW1 9917   2.289   2.151   3.643  0.6216 -0.4431  0.5705
 3243SOL    HW2 9918   2.343   2.157   3.784 -0.5081 -1.0163  1.0436
 3244SOL     OW 9919   0.506   1.159   4.088  0.1025  0.6042  0.8479
 3244SOL    HW1 9920   0.599   1.153   4.110  0.3918 -0.0545 -0.4415
 3244SOL    HW2 9921   0.461   1.105   4.152  0.7701 -0.2453  0.6102
 3245SOL     OW 9922   1.397   0.235   1.148  0.0471  0.1903  0.0676
 3245SOL    HW1 9923   1.350   0.152   1.158  0.1052  0.1639  0.1224
 3245SOL    HW2 9924   1.425   0.257   1.237 -0.6557  0.6757  0.1780
 3246SOL     OW 9925   1.424   1.345   2.361 -0.3161  0.1583  0.4973
 3246SOL    HW1 9926   1.349   1.337   2.421 -1.1608  0.9552 -0.4206
 3246SOL    HW2 9927   1.431   1.439   2.344  0.7157  0.0595  0.3313
 3247SOL     OW 9928   2.026   0.645   4.142  0.0818 -0.6992 -0.3354
 3247SOL    HW1 9929   2.080   0.678   4.214  1.2574 -1.3920 -0.8820
 3247SOL    HW2 9930   1.948   0.609   4.186 -0.6477  1.5527  0.3589
 3248SOL     OW 9931   2.574   2.151   0.370 -0.1772 -0.1973 -0.1509
 3248SOL    HW1 9932   2.487   2.116   0.385  0.3203 -1.5112 -0.1482
 3248SOL    HW2 9933   2.633   2.080   0.395  0.8722  0.3617 -0.9223
 3249SOL     OW 9934   1.094   2.120   2.832  0.3226 -0.1524  0.3913
 3249SOL    HW1 9935   1.074   2.185   2.899 -0.6297  1.1889 -1.1235
 3249SOL    HW2 9936   1.156   2.163   2.773 -0.3506 -0.5744 -0.6607
 3250SOL     OW 9937   4.333   0.819   1.483  0.1791  0.7780  0.3137
 3250SOL    HW1 9938   4.375   0.842   1.566 -1.1535 -1.1064  1.5888
 3250SOL    HW2 9939   4.254   0.873   1.480 -0.4370 -0.0639  0.9342
 3251SOL     OW 9940   4.197   0.060   1.335 -0.0691  0.4038 -0.3501
 3251SOL    HW1 9941   4.279   0.104   1.360  0.5814 -0.6494 -0.5530
 3251SOL    HW2 9942   4.193  -0.016   1.393  0.9789 -1.5768 -2.6595
 3252SOL     OW 9943   1.039   2.324   2.239 -0.2723 -0.2391 -0.5364
 3252SOL    HW1 9944   0.953   2.319   2.280 -0.0593 -1.2941 -0.1841
 3252SOL    HW2 9945   1.089   2.384   2.294 -0.7889  0.4168 -0.7725
 3253SOL     OW 9946   2.106   0.448   2.186  0.1769 -0.3865  0.1051
 3253SOL    HW1 9947   2.142   0.420   2.102  1.1000 -0.0615  0.3756
 3253SOL    HW2 9948   2.090   0.367   2.234  2.0297 -0.5387  0.5639
 3254SOL     OW 9949   3.727   3.689   0.229  0.2936  0.3013  0.4129
 3254SOL    HW1 9950   3.815   3.714   0.203  0.2073  1.0158  0.8007
 3254SOL    HW2 9951   3.685   3.663   0.147  0.4351  1.2844  0.0157
 3255SOL     OW 9952   1.468   4.483   1.572 -0.2204  0.7352 -0.4144
 3255SOL    HW1 9953   1.493   4.540   1.644  0.2346  1.4111 -1.0984
 3255SOL    HW2 9954   1.447   4.542   1.499 -1.9469  0.1294 -0.4719
 3256SOL     OW 9955   3.022   0.959   4.019 -0.2018  0.4393 -0.1254
 3256SOL    HW1 9956   2.972   0.921   4.091  0.0778 -0.7866 -0.5626
 3256SOL    HW2 9957   2.984   0.919   3.940  0.7894  0.2663 -0.5275
 3257SOL     OW 9958   0.521   2.927   1.517 -0.1432 -0.2229 -0.2472
 3257SOL    HW1 9959   0.586   2.872   1.562 -0.4016 -1.4678 -1.3433
 3257SOL    HW2 9960   0.457   2.865   1.482 -0.9447  0.8569 -0.7404
 3258SOL     OW 9961   2.747   2.542   0.556 -0.1488  0.1733 -0.0893
 3258SOL    HW1 9962   2.733   2.502   0.642  0.2848 -1.5213 -0.7796
 3258SOL    HW2 9963   2.838   2.572   0.559 -0.6067  1.5757  0.5893
 3259SOL     OW 9964   2.160   3.711   3.351 -0.2250 -0.1404  0.2015
 3259SOL    HW1 9965   2.192   3.666   3.430 -0.6159  2.2368  1.8399
 3259SOL    HW2 9966   2.220   3.785   3.340 -0.6317 -0.0190 -1.3008
 3260SOL     OW 9967   2.078   2.559   2.355 -0.6825 -0.6353  0.7608
 3260SOL    HW1 9968   2.040   2.505   2.425  0.3104 -1.1818  0.8881
 3260SOL    HW2 9969   2.068   2.649   2.387 -1.0425 -0.8245  1.2005
 3261SOL     OW 9970   0.654   3.263   1.030 -0.0117 -0.6938  0.4777
 3261SOL    HW1 9971   0.711   3.192   1.003  0.2913 -0.5531  0.7415
 3261SOL    HW2 9972   0.629   3.242   1.120  0.4215 -0.2556  0.7064
 3262SOL     OW 9973   0.059   2.012   1.802  0.0465 -0.1127 -0.3381
 3262SOL    HW1 9974   0.148   1.980   1.793 -0.2269 -0.4102 -3.0775
 3262SOL    HW2 9975   0.066   2.106   1.788 -0.1593 -0.3081 -1.9796
 3263SOL     OW 9976   3.554   3.596   3.165 -0.2061  0.0126  0.0801
 3263SOL    HW1 9977   3.598   3.669   3.121 -1.5185  0.2725 -0.8624
 3263SOL    HW2 9978   3.592   3.595   3.253  2.5892 -0.6035 -1.0281
 3264SOL     OW 9979   2.835   0.538   4.897 -0.1542  0.0462 -0.4981
 3264SOL    HW1 9980   2.753   0.488   4.899 -0.4978  0.6161  0.2308
 3264SOL    HW2 9981   2.818   0.608   4.834 -0.0395 -0.1301 -0.7291
 3265SOL     OW 9982   3.198   2.596   4.272  0.3592  0.1365  0.1309
 3265SOL    HW1 9983   3.141   2.673   4.276  0.7020  0.3478  1.5669
 3265SOL    HW2 9984   3.281   2.630   4.238  0.3529  0.2947  0.2727
 3266SOL     OW 9985   1.049   3.672   0.884  0.2967  0.4220 -0.0151
 3266SOL    HW1 9986   1.021   3.582   0.902  2.6458 -0.1621  1.0516
 3266SOL    HW2 9987   0.968   3.723   0.890 -0.9304 -1.4478  0.4480
 3267SOL     OW 9988   3.712   3.015   1.698  0.2271  0.2941 -0.1040
 3267SOL    HW1 9989   3.794   3.064   1.700 -0.9971  2.4299  0.2343
 3267SOL    HW2 9990   3.684   3.018   1.607  1.5162 -2.3203 -0.6874
 3268SOL     OW 9991   2.712   4.668   1.300  0.3946  0.2699 -0.1121
 3268SOL    HW1 9992   2.626   4.662   1.343 -0.1629 -0.6110 -1.2911
 3268SOL    HW2 9993   2.770   4.616   1.355 -0.3103 -0.8619 -0.4070
 3269SOL     OW 9994   1.279   2.833   1.647  0.1962 -0.1546  0.0814
 3269SOL    HW1 9995   1.254   2.925   1.651 -2.0201 -0.6559 -0.8551
 3269SOL    HW2 9996   1.374   2.833   1.664 -0.0680  2.0673  2.1405
 3270SOL     OW 9997   3.904   1.164   0.739  0.0073 -0.6843  0.0857
 3270SOL    HW1 9998   3.834   1.229   0.732 -0.8699 -1.5500  0.4846
 3270SOL    HW2 9999   3.984   1.211   0.716 -0.7036  0.3400 -0.3450
 3271SOL     OW10000   0.114   1.799   2.773 -0.3322 -0.2274  0.2604
 3271SOL    HW110001   0.080   1.842   2.851  1.0843  0.1737  0.6885
 3271SOL    HW210002   0.122   1.869   2.708 -1.8530 -0.6266 -0.3873
 3272SOL     OW10003   1.463   1.985   4.127  0.1398 -0.6867  0.5333
 3272SOL    HW110004   1.376   2.019   4.149 -0.7579 -1.0492 -2.0846
 3272SOL    HW210005   1.491   1.939   4.206 -1.3552  0.7199  1.9800
 3273SOL     OW10006   2.280   3.509   2.671  0.3454  0.1460  0.1005
 3273SOL    HW110007   2.219   3.435   2.668  1.1162 -0.6037  1.6743
 3273SOL    HW210008   2.231   3.579   2.712  0.7049 -0.6892  2.0672
 3274SOL     OW10009   1.570   2.726   3.152  0.2786  0.4190  0.3044
 3274SOL    HW110010   1.625   2.789   3.106  1.5164 -0.2736  0.8036
 3274SOL    HW210011   1.517   2.686   3.083  0.2799  1.1891 -0.1597
 3275SOL     OW10012   1.657   4.130   0.871  0.1393 -0.3971  0.1300
 3275SOL    HW110013   1.590   4.080   0.917 -0.1229 -1.5988 -1.4833
 3275SOL    HW210014   1.612   4.168   0.796  1.0106 -0.2817 -0.3584
 3276SOL     OW10015   3.411   1.394   1.852  0.2202  0.1359  0.0869
 3276SOL    HW110016   3.483   1.442   1.893 -1.1451  0.5589  2.1339
 3276SOL    HW210017   3.453   1.339   1.786  2.2734  1.1744  0.4428
 3277SOL     OW10018   2.850   3.716   0.683  0.0268  0.9961 -0.2878
 3277SOL    HW110019   2.853   3.688   0.592 -0.2755 -0.1510  0.0293
 3277SOL    HW210020   2.756   3.721   0.704  0.0578 -1.1774  0.6257
 3278SOL     OW10021   0.059   0.102   0.001  0.3207 -0.1199  0.5342
 3278SOL    HW110022  -0.013   0.117  -0.060  1.4167  0.0475 -0.7599
 3278SOL    HW210023   0.077   0.008  -0.004  1.9312  0.2149 -1.2456
 3279SOL     OW10024   0.960   3.898   0.247  0.3972  0.2635  0.6438
 3279SOL    HW110025   1.009   3.938   0.175 -0.6204 -1.9697 -1.4163
 3279SOL    HW210026   0.920   3.821   0.209 -0.2233 -1.0412  3.6577
 3280SOL     OW10027   2.093   3.048   0.860 -0.6987  0.1446  0.1268
 3280SOL    HW110028   2.085   3.091   0.945 -0.2073  0.9562 -0.2233
 3280SOL    HW210029   2.152   3.104   0.810 -1.3419 -0.0629 -0.9089
 3281SOL     OW10030   0.849   1.635   2.722 -0.4300  0.4090 -0.0369
 3281SOL    HW110031   0.764   1.631   2.679 -0.1750  1.2430 -0.6462
 3281SOL    HW210032   0.867   1.729   2.732  0.4330  0.2471  0.0424
 3282SOL     OW10033   0.507   1.705   3.712 -0.3863  0.3765  0.1347
 3282SOL    HW110034   0.505   1.615   3.682  0.6149  0.4492 -0.1753
 3282SOL    HW210035   0.561   1.751   3.648 -1.2591  1.3008  0.0300
 3283SOL     OW10036   2.458   1.081   3.853 -0.4203 -0.0044  0.4144
 3283SOL    HW110037   2.534   1.086   3.794 -1.6422 -0.0634 -1.2175
 3283SOL    HW210038   2.492   1.114   3.937  2.3914 -3.3471  0.8311
 3284SOL     OW10039   1.766   0.588   3.960 -0.2600  0.2601 -0.5411
 3284SOL    HW110040   1.726   0.504   3.934 -1.4579  0.0581  1.6467
 3284SOL    HW210041   1.851   0.564   3.996 -0.6542 -0.0777  0.2018
 3285SOL     OW10042   4.656   2.303   3.400 -0.3368  0.0996 -0.3334
 3285SOL    HW110043   4.684   2.394   3.392  2.1584 -0.4415  1.1981
 3285SOL    HW210044   4.595   2.303   3.474  0.5439  0.4004  0.4134
 3286SOL     OW10045   1.758   3.549   0.702 -0.4984  0.3216  0.0641
 3286SOL    HW110046   1.753   3.466   0.654  1.2139 -0.8787  1.8159
 3286SOL    HW210047   1.840   3.588   0.672 -0.6190  0.7227  0.2518
 3287SOL     OW10048   2.206   3.990   3.822  0.1417 -0.6154 -0.0357
 3287SOL    HW110049   2.146   4.064   3.823 -0.7990 -1.3503  0.9286
 3287SOL    HW210050   2.232   3.981   3.730 -0.4273  0.3423 -0.3054
 3288SOL     OW10051   3.193   1.168   4.002  0.0205  0.0741 -0.1630
 3288SOL    HW110052   3.285   1.148   4.021 -0.1865 -1.6191 -0.7831
 3288SOL    HW210053   3.152   1.083   3.992 -1.5760  0.8211 -0.1854
 3289SOL     OW10054   3.436   2.356   1.685  0.2950 -0.3534  0.0762
 3289SOL    HW110055   3.412   2.264   1.674  1.8469 -0.6578 -1.1295
 3289SOL    HW210056   3.445   2.389   1.595  2.4918  0.2051  0.4570
 3290SOL     OW10057   1.670   1.798   0.215 -0.2327 -0.0221 -0.0464
 3290SOL    HW110058   1.615   1.761   0.283 -0.8642 -0.0434 -0.5559
 3290SOL    HW210059   1.754   1.815   0.258  0.2317 -2.4015  0.1131
 3291SOL     OW10060   2.167   4.425   4.724 -0.2321 -0.3092  0.0153
 3291SOL    HW110061   2.193   4.334   4.719  0.3023 -0.2217  0.8988
 3291SOL    HW210062   2.094   4.433   4.663  0.8182 -0.9212 -1.3509
 3292SOL     OW10063   0.040   3.067   4.284 -0.4439  0.0464 -0.1778
 3292SOL    HW110064  -0.036   3.064   4.226 -0.0340  0.3808 -0.7410
 3292SOL    HW210065   0.069   2.976   4.291 -1.1890 -0.1478  0.4373
 3293SOL     OW10066   2.903   3.785   3.676 -0.6145  0.4187 -0.5666
 3293SOL    HW110067   2.821   3.767   3.720 -0.0672  1.0542  0.7824
 3293SOL    HW210068   2.921   3.707   3.625 -0.7510 -0.8268  1.2045
 3294SOL     OW10069   1.559   0.683   4.205 -0.1746  0.0621 -0.2582
 3294SOL    HW110070   1.610   0.745   4.258 -0.7775  1.1270 -0.8893
 3294SOL    HW210071   1.615   0.666   4.129  0.6827 -1.4520  0.6566
 3295SOL     OW10072   3.783   1.024   4.392 -0.1967 -0.4322 -0.1635
 3295SOL    HW110073   3.823   1.107   4.416 -0.6853  0.1100 -1.1766
 3295SOL    HW210074   3.784   0.972   4.473  0.1226  0.5432  0.4699
 3296SOL     OW10075   3.773   0.131   4.530 -0.2341 -0.0961 -0.1998
 3296SOL    HW110076   3.693   0.132   4.583  0.9011 -0.5239  1.6286
 3296SOL    HW210077   3.776   0.217   4.488 -2.9443 -0.9649 -2.4511
 3297SOL     OW10078   2.992   1.674   1.476 -0.0808  0.3408  0.0737
 3297SOL    HW110079   3.047   1.733   1.424 -3.1760  3.6526  0.1544
 3297SOL    HW210080   3.017   1.690   1.567  0.1366  0.3350  0.0151
 3298SOL     OW10081   4.797   4.250   0.032 -0.4881  0.9563  0.3991
 3298SOL    HW110082   4.861   4.274   0.099 -2.8770  0.4675  3.0477
 3298SOL    HW210083   4.769   4.333  -0.006 -0.6225  1.4579  1.5586
 3299SOL     OW10084   0.160   2.413   3.041  0.2137  0.1542 -0.7923
 3299SOL    HW110085   0.152   2.457   3.125 -2.7937 -1.5309 -0.0350
 3299SOL    HW210086   0.110   2.331   3.052 -0.3252 -0.1281 -4.1985
 3300SOL     OW10087   0.574   1.780   1.890  0.4261 -0.4941 -0.1625
 3300SOL    HW110088   0.570   1.780   1.794  0.7518  1.5519 -0.2329
 3300SOL    HW210089   0.653   1.830   1.910  1.1722 -2.1341  1.2137
 3301SOL     OW10090   1.919   0.648   0.046  0.0821  0.5418  0.3945
 3301SOL    HW110091   1.950   0.656  -0.045 -0.0688  0.1664  0.3089
 3301SOL    HW210092   1.838   0.699   0.047 -1.7655 -2.1205 -0.5788
 3302SOL     OW10093   3.768   2.757   1.843 -0.0677  0.2004 -0.1426
 3302SOL    HW110094   3.763   2.824   1.911 -2.5128  0.4070 -0.4284
 3302SOL    HW210095   3.794   2.677   1.889 -0.8441  0.5314  0.8830
 3303SOL     OW10096   1.522   3.967   2.122 -0.0792 -0.8214 -0.0398
 3303SOL    HW110097   1.615   3.965   2.144 -0.1040 -2.7449  0.0976
 3303SOL    HW210098   1.511   3.899   2.056 -1.4879 -1.1134  0.4491
 3304SOL     OW10099   2.610   1.140   0.722 -0.4388 -0.4504  0.1302
 3304SOL    HW110100   2.679   1.125   0.786 -0.7451 -0.9331  0.3445
 3304SOL    HW210101   2.529   1.123   0.769 -0.7332  0.5351  0.0001
 3305SOL     OW10102   2.618   3.632   3.403  0.1976 -0.4339 -0.3151
 3305SOL    HW110103   2.545   3.637   3.341  0.9546  0.3265 -1.1851
 3305SOL    HW210104   2.683   3.578   3.360 -0.3283 -2.2332  1.0204
 3306SOL     OW10105   0.500   1.694   0.969 -0.0932  0.5441 -0.1966
 3306SOL    HW110106   0.571   1.647   1.012 -0.8245 -0.5150 -0.0947
 3306SOL    HW210107   0.540   1.730   0.889  0.9116  1.2821  0.6173
 3307SOL     OW10108   3.832   0.178   0.030  0.6890  0.2276 -0.4055
 3307SOL    HW110109   3.830   0.127   0.111 -3.9983  2.1406  1.0726
 3307SOL    HW210110   3.875   0.260   0.054 -0.7056  0.7975  0.2853
 3308SOL     OW10111   4.448   4.016   2.942  0.4082 -0.4327 -0.4154
 3308SOL    HW110112   4.516   4.053   2.885 -0.5483  2.7361  0.3025
 3308SOL    HW210113   4.379   3.988   2.882  2.0034 -3.2808 -1.1205
 3309SOL     OW10114   2.825   1.369   1.564  0.5510 -0.2545 -0.0219
 3309SOL    HW110115   2.863   1.285   1.591 -2.0229 -2.2151 -1.9153
 3309SOL    HW210116   2.858   1.382   1.475 -1.0925 -0.6778 -0.7215
 3310SOL     OW10117   1.301   1.048   1.738  0.5242 -0.1172 -0.6468
 3310SOL    HW110118   1.390   1.026   1.764  1.0448  2.3656 -0.0454
 3310SOL    HW210119   1.302   1.047   1.643  1.0433 -0.5903 -0.6408
 3311SOL     OW10120   0.102   1.537   2.856  0.4624  0.1107 -0.4160
 3311SOL    HW110121   0.027   1.558   2.913  1.5253  1.1138  0.6598
 3311SOL    HW210122   0.131   1.621   2.822 -0.2196 -0.4800 -2.6254
 3312SOL     OW10123   3.501   1.081   4.351 -0.0935 -0.1331 -0.4619
 3312SOL    HW110124   3.462   0.996   4.372 -0.3803  0.1321  0.0849
 3312SOL    HW210125   3.594   1.062   4.337 -0.2952 -0.6659 -1.1588
 3313SOL     OW10126   1.795   0.239   0.699  0.1942 -0.6069  0.6522
 3313SOL    HW110127   1.813   0.281   0.784 -1.7174  0.8260  0.4039
 3313SOL    HW210128   1.842   0.292   0.635 -2.3383  1.4295  0.3211
 3314SOL     OW10129   1.507   2.403   1.769 -0.2344  0.4102 -0.0619
 3314SOL    HW110130   1.412   2.389   1.758 -0.5615  1.2259  1.4705
 3314SOL    HW210131   1.513   2.477   1.829  1.3903 -0.0049  0.3114
 3315SOL     OW10132   1.202   0.804   2.188  0.9777  0.5459  0.3263
 3315SOL    HW110133   1.114   0.811   2.225  0.9863  1.1122  0.2459
 3315SOL    HW210134   1.192   0.832   2.097  0.7514 -1.8229 -0.4593
 3316SOL     OW10135   0.831   3.074   0.931  0.3934  0.4140  0.2364
 3316SOL    HW110136   0.879   3.049   0.852 -0.9574 -1.2875 -0.0916
 3316SOL    HW210137   0.897   3.078   1.000  2.0367  4.1251 -1.2817
 3317SOL     OW10138   4.145   4.674   2.923  0.8382 -0.2795 -0.6988
 3317SOL    HW110139   4.145   4.605   2.989  1.7684  0.0012 -0.3988
 3317SOL    HW210140   4.237   4.684   2.898  0.6175  0.3080 -1.3098
 3318SOL     OW10141   3.080   4.269   0.914  0.1560  0.2344  0.6659
 3318SOL    HW110142   3.134   4.258   0.992  0.6348 -0.9292  0.1938
 3318SOL    HW210143   3.127   4.334   0.861  0.6916 -0.1802  0.6220
 3319SOL     OW10144   4.606   4.161   0.341 -0.2989  0.2847  0.2900
 3319SOL    HW110145   4.621   4.085   0.398 -0.5153  0.8005  1.0589
 3319SOL    HW210146   4.693   4.199   0.330  0.3991 -1.8537 -2.7654
 3320SOL     OW10147   3.611   3.668   2.696  0.3055  0.4370 -0.4719
 3320SOL    HW110148   3.583   3.729   2.628  0.8754  1.5764  0.2874
 3320SOL    HW210149   3.662   3.721   2.756  0.2783 -0.6646  0.5567
 3321SOL     OW10150   2.658   0.153   3.317  0.7373  0.8712  0.6976
 3321SOL    HW110151   2.665   0.058   3.327 -0.6496  0.4579 -1.5618
 3321SOL    HW210152   2.748   0.182   3.303  0.8991 -0.7170 -2.4753
 3322SOL     OW10153   4.425   3.043   3.800  0.3897 -0.5959  0.2642
 3322SOL    HW110154   4.384   3.007   3.879 -0.2596  0.4489  0.4187
 3322SOL    HW210155   4.445   2.966   3.747  0.8890 -1.3198  1.4602
 3323SOL     OW10156   3.451   0.528   4.517  0.1781 -0.5676 -0.1743
 3323SOL    HW110157   3.395   0.528   4.595 -0.7037  0.4280 -0.7922
 3323SOL    HW210158   3.393   0.505   4.445  1.3754 -3.5537 -0.3489
 3324SOL     OW10159   4.728   1.299   2.794  0.2084 -0.6425  0.3432
 3324SOL    HW110160   4.711   1.393   2.790  0.6510 -0.6001 -1.2632
 3324SOL    HW210161   4.799   1.290   2.858 -1.0349 -0.1056  1.8581
 3325SOL     OW10162   3.340   1.281   3.558  0.3006  0.2192 -0.4250
 3325SOL    HW110163   3.434   1.276   3.574  0.3584  0.6628 -0.6338
 3325SOL    HW210164   3.327   1.235   3.475  0.2600 -0.3053 -0.1353
 3326SOL     OW10165   4.804   2.098   4.660 -0.5539 -0.4137  0.2763
 3326SOL    HW110166   4.725   2.099   4.713 -0.2012 -1.3566  0.8405
 3326SOL    HW210167   4.780   2.047   4.583 -0.2253 -1.5522  0.9083
 3327SOL     OW10168   3.500   4.050   1.553  0.3663  0.3152 -0.3323
 3327SOL    HW110169   3.547   4.071   1.472  1.1748  1.0911  0.3202
 3327SOL    HW210170   3.548   4.096   1.621 -1.1095  0.8011  0.4239
 3328SOL     OW10171   1.001   2.714   3.953  0.1990  0.1106 -0.2717
 3328SOL    HW110172   0.997   2.809   3.945 -1.4497 -0.0049 -1.0766
 3328SOL    HW210173   1.019   2.683   3.865 -0.8591 -0.3934 -0.3196
 3329SOL     OW10174   4.773   1.462   0.889 -0.9540 -0.5721  0.1289
 3329SOL    HW110175   4.816   1.398   0.833  0.9454 -0.0358  0.9095
 3329SOL    HW210176   4.839   1.528   0.906 -2.2273  0.5305  1.0460
 3330SOL     OW10177   1.004   1.534   1.924  0.5473 -0.1593  0.2884
 3330SOL    HW110178   0.929   1.537   1.865  0.4677  0.2198  0.4045
 3330SOL    HW210179   1.067   1.476   1.880 -0.1829 -1.2376  0.6415
 3331SOL     OW10180   1.736   2.071   4.564 -0.1261 -0.0622  0.0148
 3331SOL    HW110181   1.750   2.151   4.515  0.5239 -0.4483 -0.4477
 3331SOL    HW210182   1.823   2.047   4.597 -0.3025 -0.5892  0.1198
 3332SOL     OW10183   4.266   3.320   1.286  0.2126  0.0882 -0.2387
 3332SOL    HW110184   4.269   3.299   1.379  0.1400  1.3572  0.0733
 3332SOL    HW210185   4.246   3.237   1.243 -1.7696 -0.1547  1.0211
 3333SOL     OW10186   2.510   4.110   2.835 -0.0395 -0.1335  0.7908
 3333SOL    HW110187   2.428   4.062   2.847 -0.0606 -0.1514  0.5751
 3333SOL    HW210188   2.546   4.075   2.753  1.2553 -1.6752  1.9694
 3334SOL     OW10189   2.825   4.364   4.718  0.1720  0.0200  0.1053
 3334SOL    HW110190   2.798   4.335   4.631  0.4716  0.4437 -0.1308
 3334SOL    HW210191   2.901   4.310   4.738 -0.0381 -0.2437  0.2114
 3335SOL     OW10192   0.729   1.374   0.461 -0.2869  0.1321 -0.0784
 3335SOL    HW110193   0.822   1.373   0.440 -0.4282 -0.0936 -0.7456
 3335SOL    HW210194   0.696   1.455   0.423 -0.5040 -0.1635 -0.5325
 3336SOL     OW10195   0.098   1.374   2.254 -0.7604 -0.1440  0.0169
 3336SOL    HW110196   0.100   1.322   2.173 -1.2278  0.9479 -0.7226
 3336SOL    HW210197   0.044   1.323   2.314  0.2286 -1.3487 -0.0723
 3337SOL     OW10198   1.413   2.583   1.954  0.7280  0.0024 -0.6524
 3337SOL    HW110199   1.398   2.675   1.976 -0.3221 -0.4873  0.8142
 3337SOL    HW210200   1.338   2.559   1.899  0.1766 -0.3606  0.2317
 3338SOL     OW10201   4.875   0.397   2.134 -0.1593  0.1508  0.4099
 3338SOL    HW110202   4.949   0.337   2.146 -0.5071  0.0581  2.4188
 3338SOL    HW210203   4.895   0.444   2.053  2.4657  0.6522  1.2523
 3339SOL     OW10204   3.680   1.048   1.077 -0.3726  0.3268  0.0553
 3339SOL    HW110205   3.702   1.130   1.121 -3.6910  1.1680  0.4521
 3339SOL    HW210206   3.667   0.986   1.148 -3.1199  0.9851  0.2423
 3340SOL     OW10207   2.720   0.475   1.513 -0.3766  0.1064  0.6287
 3340SOL    HW110208   2.700   0.394   1.560  0.5852 -1.2391 -1.1746
 3340SOL    HW210209   2.667   0.471   1.434 -0.8178  1.5999  0.8223
 3341SOL     OW10210   3.581   2.203   2.290 -0.1404  0.0152  0.0905
 3341SOL    HW110211   3.512   2.264   2.316 -0.6857 -0.9291  0.9931
 3341SOL    HW210212   3.615   2.169   2.373  0.5748 -0.4369 -0.3782
 3342SOL     OW10213   0.028   0.559   3.012  0.0382  0.3568  1.0737
 3342SOL    HW110214   0.054   0.603   2.931 -0.2818  0.9188  1.2647
 3342SOL    HW210215   0.099   0.579   3.073  0.4974 -0.4361  0.8198
 3343SOL     OW10216   0.030   2.516   0.752  0.1176  0.8357 -0.2333
 3343SOL    HW110217   0.108   2.562   0.783 -0.0139  0.7314  0.2655
 3343SOL    HW210218  -0.041   2.578   0.767 -0.1843  0.1801  1.2337
 3344SOL     OW10219   1.127   3.025   3.375 -0.0239 -0.3065 -0.4848
 3344SOL    HW110220   1.071   3.008   3.450 -1.1570 -1.1292 -1.4621
 3344SOL    HW210221   1.144   3.119   3.378  2.6431 -0.7408  2.5665
 3345SOL     OW10222   3.311   1.918   0.487 -0.0207 -0.1972 -0.7152
 3345SOL    HW110223   3.377   1.852   0.466  0.6081  0.0274  0.4664
 3345SOL    HW210224   3.340   1.955   0.570 -1.6353 -0.0874 -0.1599
 3346SOL     OW10225   2.172   3.545   3.852 -0.4869  0.2190  0.1820
 3346SOL    HW110226   2.144   3.486   3.782 -3.0450 -0.9003  1.9833
 3346SOL    HW210227   2.232   3.493   3.905  0.1786  0.5243 -0.2591
 3347SOL     OW10228   1.566   2.118   1.253 -0.0041 -0.6361 -0.3391
 3347SOL    HW110229   1.547   2.116   1.159 -0.7007  1.7611 -0.2996
 3347SOL    HW210230   1.579   2.210   1.273  2.0040 -1.2690  1.6037
 3348SOL     OW10231   4.684   3.769   4.409 -0.6008 -0.0205  0.9568
 3348SOL    HW110232   4.610   3.735   4.460 -1.4220  0.4303  0.0960
 3348SOL    HW210233   4.740   3.694   4.395 -1.5503 -0.6693  0.5260
 3349SOL     OW10234   0.927   4.461   3.427  0.3618 -0.8582 -0.2239
 3349SOL    HW110235   0.843   4.508   3.422  0.3768 -0.6272  1.2428
 3349SOL    HW210236   0.942   4.449   3.521  2.5460  0.1430 -0.3777
 3350SOL     OW10237   2.435   0.230   3.981  0.3885  0.2157  0.6773
 3350SOL    HW110238   2.511   0.211   4.036 -0.9857  0.5514  2.8045
 3350SOL    HW210239   2.440   0.324   3.965 -0.3203  0.5221  2.0816
 3351SOL     OW10240   0.946   0.594   2.719 -0.0108  0.3247  0.5479
 3351SOL    HW110241   0.928   0.679   2.680 -1.3563 -0.4040 -0.5002
 3351SOL    HW210242   1.028   0.566   2.679  0.9345  1.4843  1.5825
 3352SOL     OW10243   2.541   3.540   3.661 -0.1714 -0.2660 -0.5013
 3352SOL    HW110244   2.580   3.551   3.574 -2.0732  0.6059 -1.3043
 3352SOL    HW210245   2.592   3.598   3.717 -0.2954  0.8647 -1.5140
 3353SOL     OW10246   0.387   2.767   2.029 -0.1683 -0.1288  0.2946
 3353SOL    HW110247   0.447   2.785   1.956  1.3628 -0.5811  1.3821
 3353SOL    HW210248   0.427   2.694   2.075  0.5562  1.9650  3.3023
 3354SOL     OW10249   4.931   0.581   1.615  0.4096 -0.0655 -0.3939
 3354SOL    HW110250   4.978   0.604   1.695 -0.1739 -0.5386  0.0963
 3354SOL    HW210251   4.905   0.489   1.629  0.0358 -0.0506 -0.9912
 3355SOL     OW10252   3.905   2.860   0.278 -0.3042 -0.3490 -0.4975
 3355SOL    HW110253   3.932   2.937   0.327  1.0195  0.9538 -3.0532
 3355SOL    HW210254   3.964   2.790   0.308  0.5624  0.4375 -0.3341
 3356SOL     OW10255   2.904   2.054   3.338  0.3332  0.1132 -0.4650
 3356SOL    HW110256   2.989   2.023   3.370  0.3916 -0.2159 -0.9350
 3356SOL    HW210257   2.840   1.995   3.380  0.3651  0.0767 -0.4677
 3357SOL     OW10258   4.432   4.033   4.407  0.0591 -0.2529  0.3639
 3357SOL    HW110259   4.381   4.113   4.422  0.1259 -0.2679  0.6798
 3357SOL    HW210260   4.452   4.001   4.495  0.1859 -0.5193  0.2373
 3358SOL     OW10261   0.303   3.052   0.831 -0.8801 -0.2575 -0.0858
 3358SOL    HW110262   0.355   3.010   0.764 -0.7473  0.2517 -0.3093
 3358SOL    HW210263   0.320   3.146   0.820 -2.2526 -0.0357 -0.5170
 3359SOL     OW10264   0.276   0.460   4.868 -1.0901 -0.4690  0.0196
 3359SOL    HW110265   0.322   0.376   4.873 -0.8181 -0.3275 -0.1026
 3359SOL    HW210266   0.319   0.514   4.934 -0.3674  0.0073 -0.8182
 3360SOL     OW10267   2.661   3.778   0.294 -0.1334  0.5068  0.2146
 3360SOL    HW110268   2.682   3.834   0.368 -0.2887  1.0733 -0.1663
 3360SOL    HW210269   2.742   3.776   0.242 -0.0770  0.2417  0.3088
 3361SOL     OW10270   2.906   1.519   2.309  0.2451 -0.7801 -0.5268
 3361SOL    HW110271   2.825   1.536   2.358  0.0136 -0.0172 -1.1561
 3361SOL    HW210272   2.973   1.511   2.377 -0.0388  0.4596 -0.0754
 3362SOL     OW10273   3.794   4.790   4.490  0.7638 -0.0503 -0.2385
 3362SOL    HW110274   3.826   4.750   4.409  3.1805 -1.1182  1.1339
 3362SOL    HW210275   3.801   4.884   4.475 -1.2874 -0.0997 -2.1153
 3363SOL     OW10276   4.941   3.695   2.013  0.0429  0.0943  0.1661
 3363SOL    HW110277   4.916   3.632   1.945 -0.1294  1.5961 -1.2314
 3363SOL    HW210278   4.998   3.757   1.968 -3.1147  3.3958  0.2186
 3364SOL     OW10279   3.285   3.559   4.007 -0.4412  0.1599  0.1220
 3364SOL    HW110280   3.270   3.543   4.100 -0.4984 -0.8846 -0.0603
 3364SOL    HW210281   3.205   3.529   3.964  0.3319 -1.1636 -0.4362
 3365SOL     OW10282   4.922   4.053   0.285  0.2379 -0.1393  0.1519
 3365SOL    HW110283   5.007   4.009   0.291  1.1889  1.7083  1.0339
 3365SOL    HW210284   4.924   4.097   0.200  0.5507  0.6442  0.5611
 3366SOL     OW10285   0.877   0.048   3.442 -0.1438  0.6771  0.0945
 3366SOL    HW110286   0.898   0.131   3.486  0.8847 -0.1221  1.1494
 3366SOL    HW210287   0.914  -0.019   3.498 -1.8884 -0.5904 -0.1872
 3367SOL     OW10288   4.265   4.426   0.157  0.4075 -0.3858 -0.1334
 3367SOL    HW110289   4.301   4.408   0.070  2.0550 -2.5317  0.8848
 3367SOL    HW210290   4.176   4.393   0.154  1.1493 -2.5160 -0.4320
 3368SOL     OW10291   4.208   0.682   1.754 -0.3259 -0.0442 -0.2756
 3368SOL    HW110292   4.120   0.646   1.759 -0.8773  0.7752 -2.9106
 3368SOL    HW210293   4.201   0.770   1.791 -0.6187  0.0234 -0.4946
 3369SOL     OW10294   4.345   3.995   1.604  0.5337 -0.2455 -0.2803
 3369SOL    HW110295   4.431   4.029   1.579 -0.2688  2.3445  0.2280
 3369SOL    HW210296   4.350   3.988   1.700 -0.1879  1.0888 -0.1295
 3370SOL     OW10297   1.307   4.000   2.614 -0.0979 -0.2024  0.2630
 3370SOL    HW110298   1.334   3.908   2.612  1.1819  0.1351  0.8749
 3370SOL    HW210299   1.384   4.049   2.585 -0.6172  0.7027  0.3576
 3371SOL     OW10300   4.332   2.742   1.191  0.1180  0.2737 -0.1255
 3371SOL    HW110301   4.383   2.662   1.207  1.8900  1.6611  1.7531
 3371SOL    HW210302   4.392   2.800   1.146  0.1593  1.7987  1.7528
 3372SOL     OW10303   0.380   2.912   4.350 -0.4845 -0.0424  0.4113
 3372SOL    HW110304   0.455   2.855   4.331 -1.9289 -1.9660  0.1701
 3372SOL    HW210305   0.405   2.960   4.429  0.1754 -2.2622  1.6264
 3373SOL     OW10306   3.176   1.913   2.350  0.7311  0.1920 -0.5904
 3373SOL    HW110307   3.260   1.876   2.375  0.2332 -0.6057 -0.0350
 3373SOL    HW210308   3.121   1.837   2.330  0.2558  0.7123 -1.3330
 3374SOL     OW10309   4.056   0.504   0.673  0.3441 -0.1541 -0.0463
 3374SOL    HW110310   3.967   0.537   0.676 -0.1823 -1.4512 -0.6233
 3374SOL    HW210311   4.048   0.410   0.691  1.6362 -0.2191  0.3118
 3375SOL     OW10312   3.552   4.282   0.713  0.5173 -0.5668 -0.5992
 3375SOL    HW110313   3.640   4.251   0.735 -0.0156 -0.9299  1.2748
 3375SOL    HW210314   3.567   4.364   0.665  1.9015  0.0937  0.8331
 3376SOL     OW10315   4.910   3.341   2.464 -0.0190 -0.0558 -0.3747
 3376SOL    HW110316   4.897   3.249   2.487 -0.8239 -0.0330 -0.7019
 3376SOL    HW210317   4.998   3.344   2.427  0.3583 -0.5275  0.4671
 3377SOL     OW10318   2.334   1.666   1.707 -0.6537  0.1955  0.1661
 3377SOL    HW110319   2.342   1.683   1.801 -1.3006  0.7376  0.1316
 3377SOL    HW210320   2.331   1.754   1.668 -1.3193 -0.0232 -0.2793
 3378SOL     OW10321   2.076   0.272   1.867  0.0993 -0.1879 -0.1631
 3378SOL    HW110322   2.051   0.293   1.776  1.6342 -1.7528 -0.9916
 3378SOL    HW210323   2.117   0.353   1.899 -2.8452  1.3218  0.1389
 3379SOL     OW10324   3.793   0.996   1.653  0.4555 -0.7228  0.1776
 3379SOL    HW110325   3.825   0.906   1.653  1.2238 -0.4553  0.0269
 3379SOL    HW210326   3.746   1.006   1.571 -0.4719 -1.2742  0.6294
 3380SOL     OW10327   3.018   0.401   3.697  0.4895 -0.7406  0.2512
 3380SOL    HW110328   3.022   0.307   3.716 -2.2151 -1.2537 -1.2704
 3380SOL    HW210329   3.095   0.417   3.643  0.7761 -2.1715  0.1854
 3381SOL     OW10330   4.772   2.688   0.648 -0.3627 -0.5894 -0.0689
 3381SOL    HW110331   4.774   2.658   0.557 -0.5368  0.1136 -0.3167
 3381SOL    HW210332   4.837   2.759   0.650 -0.5993 -0.3851  0.2730
 3382SOL     OW10333   3.313   0.312   2.244  0.3293  0.2538 -0.3821
 3382SOL    HW110334   3.351   0.392   2.282 -1.2415  1.3956 -1.1228
 3382SOL    HW210335   3.293   0.257   2.320  0.6433  0.9280  0.2026
 3383SOL     OW10336   1.323   1.850   0.012 -0.1414  0.1864  0.3785
 3383SOL    HW110337   1.326   1.944  -0.002 -0.0170  0.0547 -0.5187
 3383SOL    HW210338   1.278   1.840   0.096 -2.1565  0.9692 -0.5286
 3384SOL     OW10339   1.311   2.023   3.684 -0.0910 -0.0265 -0.1136
 3384SOL    HW110340   1.263   1.944   3.662  1.8460 -0.8543 -1.5821
 3384SOL    HW210341   1.337   2.011   3.776 -1.0758 -0.3792  0.1269
 3385SOL     OW10342   0.620   3.829   4.489  0.0769  0.0926  0.1381
 3385SOL    HW110343   0.630   3.735   4.473 -1.4634 -0.0286 -0.2204
 3385SOL    HW210344   0.585   3.864   4.407 -1.3580  0.6114  0.9367
 3386SOL     OW10345   1.240   0.853   4.175  0.4317 -0.0168 -0.6550
 3386SOL    HW110346   1.238   0.765   4.138  1.1251  0.4674 -1.9101
 3386SOL    HW210347   1.242   0.911   4.099  1.7944  1.0259  0.1253
 3387SOL     OW10348   2.020   4.694   4.025 -0.0444  0.3494 -0.2738
 3387SOL    HW110349   1.989   4.783   4.011 -0.5852  0.2689  0.3696
 3387SOL    HW210350   1.996   4.674   4.115  0.6284 -0.2272 -0.2119
 3388SOL     OW10351   0.603   4.511   3.708  0.1880 -0.1802  0.0177
 3388SOL    HW110352   0.577   4.587   3.760 -0.8410  1.1633 -2.3236
 3388SOL    HW210353   0.548   4.440   3.741  1.3648 -0.0794  2.4361
 3389SOL     OW10354   3.026   2.891   0.728  0.5001 -0.4054  0.4569
 3389SOL    HW110355   3.042   2.936   0.645  0.5149  2.3959  1.8811
 3389SOL    HW210356   2.951   2.936   0.766 -0.1035 -2.2521  1.6010
 3390SOL     OW10357   3.235   2.801   4.495 -0.2911 -0.0264 -0.2204
 3390SOL    HW110358   3.223   2.727   4.554 -0.3278 -0.5800 -0.9097
 3390SOL    HW210359   3.175   2.785   4.423  0.0039  0.4635 -0.5830
 3391SOL     OW10360   4.141   0.718   0.338 -0.3405  0.1960 -0.8428
 3391SOL    HW110361   4.066   0.743   0.391 -0.7657  0.0038 -1.3410
 3391SOL    HW210362   4.141   0.780   0.265 -0.0791  0.1274 -0.9035
 3392SOL     OW10363   1.652   1.487   4.737 -0.6264 -0.2753  0.2260
 3392SOL    HW110364   1.646   1.582   4.747  0.6340 -0.1207 -0.2994
 3392SOL    HW210365   1.565   1.462   4.704 -1.1880  0.5965  0.9862
 3393SOL     OW10366   3.758   3.837   4.491 -0.3570 -0.3833 -0.1492
 3393SOL    HW110367   3.670   3.859   4.459 -0.2105  1.3188  0.5241
 3393SOL    HW210368   3.766   3.885   4.574  1.0799 -0.8147 -0.0083
 3394SOL     OW10369   4.638   2.191   1.777  0.2174 -0.1893 -0.2550
 3394SOL    HW110370   4.567   2.253   1.765 -0.3330 -1.0833 -1.7417
 3394SOL    HW210371   4.670   2.209   1.866 -1.2372  0.8426  0.0925
 3395SOL     OW10372   0.085   2.377   4.426  0.2023 -0.3488  1.0401
 3395SOL    HW110373   0.061   2.290   4.392  2.1906 -0.7705  0.5750
 3395SOL    HW210374   0.178   2.369   4.448  0.0127  1.2072  2.5604
 3396SOL     OW10375   2.036   2.113   3.850 -0.5323  0.1372  0.3769
 3396SOL    HW110376   2.101   2.169   3.808  0.1435 -0.2887  0.8294
 3396SOL    HW210377   2.088   2.053   3.905 -1.3433  0.1701  1.2006
 3397SOL     OW10378   2.872   0.557   4.116  0.1433  0.5859  0.1730
 3397SOL    HW110379   2.931   0.542   4.042  0.7284  1.7921  0.3705
 3397SOL    HW210380   2.925   0.606   4.179 -1.0547  1.7013  0.3567
 3398SOL     OW10381   0.384   1.504   2.037 -0.5064 -0.5575 -0.4808
 3398SOL    HW110382   0.315   1.553   2.081 -0.0441 -0.0814 -0.2657
 3398SOL    HW210383   0.365   1.512   1.944 -0.2008  0.4157 -0.4763
 3399SOL     OW10384   0.922   0.491   1.522  0.5332 -0.0556  0.1255
 3399SOL    HW110385   0.840   0.488   1.572  0.4999 -2.8354  0.0296
 3399SOL    HW210386   0.989   0.463   1.584  0.7369 -1.9012 -0.8402
 3400SOL     OW10387   2.962   4.258   3.371 -0.0516 -0.4884 -0.1360
 3400SOL    HW110388   2.988   4.236   3.281  0.6393 -0.8610  0.1452
 3400SOL    HW210389   2.950   4.173   3.413  0.1078 -0.3160  0.2576
 3401SOL     OW10390   0.601   2.492   2.872 -0.4462 -0.1046  0.4394
 3401SOL    HW110391   0.611   2.468   2.964  0.2403 -0.4887  0.2768
 3401SOL    HW210392   0.528   2.439   2.841 -0.5355 -0.1388  0.7037
 3402SOL     OW10393   4.278   1.914   4.739 -0.7563 -0.2699 -0.6198
 3402SOL    HW110394   4.211   1.952   4.796 -1.3602 -0.0686 -1.4584
 3402SOL    HW210395   4.274   1.966   4.659  1.6220  0.9256 -0.0657
 3403SOL     OW10396   4.774   0.068   3.503 -0.1559  0.6572 -0.6717
 3403SOL    HW110397   4.830   0.080   3.580 -2.7281  1.1227  1.2721
 3403SOL    HW210398   4.698   0.022   3.536 -1.5531  1.2388 -2.8823
 3404SOL     OW10399   4.411   4.764   2.875 -0.4315 -0.9646 -0.0016
 3404SOL    HW110400   4.410   4.782   2.969 -1.0217 -1.5894  0.1179
 3404SOL    HW210401   4.484   4.817   2.841 -1.8710  1.4346  0.3814
 3405SOL     OW10402   3.733   4.159   4.379 -0.0055 -0.2763  0.0079
 3405SOL    HW110403   3.684   4.241   4.377  1.3921  0.6255  1.0055
 3405SOL    HW210404   3.711   4.116   4.296 -0.0998  1.5185 -0.9466
 3406SOL     OW10405   1.017   3.229   2.376  0.3855  0.6278  0.0908
 3406SOL    HW110406   0.963   3.150   2.382  0.4204  0.5124 -0.8937
 3406SOL    HW210407   1.095   3.202   2.328  1.0639  0.9346  1.0015
 3407SOL     OW10408   3.383   3.893   2.117 -0.0143 -0.0460  0.0058
 3407SOL    HW110409   3.398   3.806   2.154  0.2767  0.0097  0.0157
 3407SOL    HW210410   3.311   3.929   2.170  1.1244  0.4726  1.2531
 3408SOL     OW10411   0.730   1.609   1.070  0.2605  0.0937 -0.2417
 3408SOL    HW110412   0.732   1.526   1.022  0.5394  0.7153 -1.3555
 3408SOL    HW210413   0.805   1.605   1.128  0.2563 -0.4462 -0.2667
 3409SOL     OW10414   2.055   1.325   3.996 -0.1138 -0.4589  0.5900
 3409SOL    HW110415   1.959   1.319   4.006  0.0030 -1.0240  1.5089
 3409SOL    HW210416   2.085   1.363   4.078  0.4137  0.2046  0.0926
 3410SOL     OW10417   0.703   0.417   4.546  0.4619 -0.0575 -0.3585
 3410SOL    HW110418   0.669   0.355   4.610 -1.1531  1.5313  0.4398
 3410SOL    HW210419   0.677   0.381   4.461 -0.7601 -0.3248  0.1102
 3411SOL     OW10420   0.113   2.747   3.573 -0.5046  0.1299  0.2544
 3411SOL    HW110421   0.136   2.765   3.664  1.1439 -1.0330  0.1164
 3411SOL    HW210422   0.156   2.816   3.523  1.3012 -1.0054  0.1488
 3412SOL     OW10423   2.976   2.642   0.618  1.0253 -0.0469  0.1785
 3412SOL    HW110424   3.027   2.694   0.681 -0.4219  2.4373 -0.5911
 3412SOL    HW210425   3.022   2.653   0.535  0.0998  0.9828 -0.2150
 3413SOL     OW10426   0.954   2.458   3.194 -0.4947 -0.5593  0.2498
 3413SOL    HW110427   0.868   2.488   3.164 -1.0440 -2.0793  0.2019
 3413SOL    HW210428   1.001   2.538   3.217 -2.1082  0.2831  0.7712
 3414SOL     OW10429   0.256   2.326   0.690  0.2337  0.0874 -0.2673
 3414SOL    HW110430   0.214   2.248   0.653 -0.0359  0.1975 -0.1984
 3414SOL    HW210431   0.200   2.350   0.764  0.0281  0.6421 -0.5945
 3415SOL     OW10432   2.514   4.580   1.470  0.0225 -0.0731  0.1434
 3415SOL    HW110433   2.567   4.592   1.548  0.1897 -0.9302  0.1779
 3415SOL    HW210434   2.449   4.514   1.495 -1.6740  1.5902  0.3942
 3416SOL     OW10435   4.713   3.014   4.785  0.0872  0.3598 -0.5660
 3416SOL    HW110436   4.757   2.974   4.710  0.7153 -0.4449  0.2194
 3416SOL    HW210437   4.763   3.094   4.801  0.2879  0.2549 -0.6609
 3417SOL     OW10438   2.158   4.759   1.555 -0.8820 -0.3230  0.1177
 3417SOL    HW110439   2.171   4.678   1.506 -0.8634  0.2488 -0.8565
 3417SOL    HW210440   2.063   4.772   1.555 -1.0875 -1.3952  2.0751
 3418SOL     OW10441   2.170   3.354   4.123 -0.1539 -0.0166 -0.2944
 3418SOL    HW110442   2.108   3.375   4.054  1.1554 -0.2192 -1.5926
 3418SOL    HW210443   2.197   3.439   4.158 -1.1593  0.0675  0.3059
 3419SOL     OW10444   2.156   2.044   4.388 -0.4693 -0.3934  0.1794
 3419SOL    HW110445   2.114   2.113   4.336  1.0360 -0.0084 -0.5665
 3419SOL    HW210446   2.119   1.963   4.354  0.6882 -0.1762 -1.7519
 3420SOL     OW10447   4.806   0.071   0.361  0.2753  0.4156 -0.0932
 3420SOL    HW110448   4.736   0.072   0.296 -1.1556  2.2869  1.3646
 3420SOL    HW210449   4.837  -0.020   0.361 -1.4181 -0.2277 -1.5430
 3421SOL     OW10450   4.768   1.808   3.928 -0.1457  0.6413 -0.6069
 3421SOL    HW110451   4.863   1.812   3.940  0.2862 -0.2393 -3.1935
 3421SOL    HW210452   4.744   1.894   3.895  0.0505  0.3661 -1.5055
 3422SOL     OW10453   0.004   2.065   0.149 -0.0632 -0.4409 -0.2121
 3422SOL    HW110454   0.080   2.043   0.202 -0.4795 -0.2407  0.4964
 3422SOL    HW210455   0.036   2.070   0.059  0.8726  0.1992  0.1473
 3423SOL     OW10456   3.512   1.253   2.138 -0.0295 -0.1178 -0.1221
 3423SOL    HW110457   3.564   1.311   2.082 -1.1515  2.2189  1.0597
 3423SOL    HW210458   3.437   1.307   2.164 -2.1643 -2.7510 -0.3824
 3424SOL     OW10459   4.628   2.007   4.875 -0.3691  0.6201 -0.2351
 3424SOL    HW110460   4.637   1.955   4.955  0.9445  1.7670  0.4138
 3424SOL    HW210461   4.661   2.094   4.900 -0.7870  1.2461 -1.7857
 3425SOL     OW10462   0.899   2.377   0.106  0.1433  0.4840 -0.3049
 3425SOL    HW110463   0.893   2.472   0.099 -0.8340  0.3506 -1.6699
 3425SOL    HW210464   0.938   2.349   0.023 -0.2111 -0.3482 -0.1973
 3426SOL     OW10465   4.600   1.811   3.584 -0.1096  0.5236  0.6214
 3426SOL    HW110466   4.688   1.774   3.590  0.4733  1.6413 -0.5539
 3426SOL    HW210467   4.586   1.825   3.490 -1.8499 -0.3188  0.7169
 3427SOL     OW10468   3.071   2.416   1.137 -0.0515 -0.4047 -0.1801
 3427SOL    HW110469   3.151   2.378   1.102 -0.4721 -0.1074 -1.5112
 3427SOL    HW210470   3.031   2.461   1.063 -1.6393 -0.8519  0.3629
 3428SOL     OW10471   2.385   1.966   0.449  0.3164  0.5004 -0.8152
 3428SOL    HW110472   2.312   1.961   0.511  0.7239 -0.5028 -0.4030
 3428SOL    HW210473   2.351   1.927   0.369  1.6478 -4.2782  0.6389
 3429SOL     OW10474   1.212   3.144   1.582 -0.1620 -0.0558  0.1505
 3429SOL    HW110475   1.257   3.215   1.628 -0.5279  1.3816 -1.5521
 3429SOL    HW210476   1.266   3.129   1.504 -1.0509 -0.3959 -0.4087
 3430SOL     OW10477   0.038   4.247   1.436 -0.3957  0.3619  0.2463
 3430SOL    HW110478   0.007   4.201   1.514 -1.3672  2.1331  0.9856
 3430SOL    HW210479  -0.003   4.334   1.442  0.6335  1.0270 -1.5111
 3431SOL     OW10480   4.000   0.427   4.716  0.4444  0.2298  0.0628
 3431SOL    HW110481   4.046   0.485   4.777 -0.7052  1.2127  0.0199
 3431SOL    HW210482   3.917   0.407   4.758  0.5192 -0.8296 -0.2483
 3432SOL     OW10483   1.868   3.462   3.830  0.2609  0.0206 -0.1235
 3432SOL    HW110484   1.915   3.522   3.888  1.0986 -0.8354  0.1105
 3432SOL    HW210485   1.804   3.517   3.785  1.2300  1.1437 -0.1686
 3433SOL     OW10486   3.290   4.539   2.927  0.2442 -0.3643  0.0272
 3433SOL    HW110487   3.365   4.544   2.986  0.6977 -1.0985 -0.4535
 3433SOL    HW210488   3.280   4.627   2.893  1.8786 -0.5450 -1.0581
 3434SOL     OW10489   0.665   1.787   1.621  0.1118 -0.1515 -0.4886
 3434SOL    HW110490   0.696   1.868   1.579 -2.1554  0.7951 -0.5073
 3434SOL    HW210491   0.664   1.722   1.550  0.4349  0.2473 -0.8656
 3435SOL     OW10492   4.138   3.489   1.558 -0.3687 -0.1385  0.0001
 3435SOL    HW110493   4.129   3.395   1.572  2.7810 -0.6543 -0.6810
 3435SOL    HW210494   4.163   3.524   1.643  1.3411 -0.4692 -0.3134
 3436SOL     OW10495   2.812   1.146   2.945 -0.6772  0.3649  0.3441
 3436SOL    HW110496   2.836   1.057   2.921  0.3823  1.3802 -2.9320
 3436SOL    HW210497   2.895   1.191   2.958 -1.0574  1.5044 -0.9058
 3437SOL     OW10498   4.865   1.318   4.426 -0.3991 -0.2491 -0.6244
 3437SOL    HW110499   4.817   1.340   4.506  0.4199  0.0592 -0.2053
 3437SOL    HW210500   4.949   1.284   4.457  0.1378  0.3735 -1.3543
 3438SOL     OW10501   1.884   3.768   3.553 -0.1043  0.2375  0.2929
 3438SOL    HW110502   1.853   3.849   3.594  1.3820  2.8736 -3.3234
 3438SOL    HW210503   1.976   3.784   3.533  0.1215 -2.1580 -1.0010
 3439SOL     OW10504   3.115   0.877   4.421 -0.4131 -0.6435 -0.5064
 3439SOL    HW110505   3.182   0.861   4.355  2.9188 -0.0217  2.3927
 3439SOL    HW210506   3.095   0.970   4.413 -1.3788 -0.9275 -1.6881
 3440SOL     OW10507   1.863   3.045   0.452 -0.6647 -0.5599 -0.0508
 3440SOL    HW110508   1.850   2.999   0.369 -0.0163 -1.9922  0.6268
 3440SOL    HW210509   1.955   3.032   0.473 -0.6955  0.2428  0.6553
 3441SOL     OW10510   4.509   3.227   4.561  0.1628 -0.1085  0.0605
 3441SOL    HW110511   4.425   3.270   4.542 -0.0282  0.0020  1.0863
 3441SOL    HW210512   4.491   3.173   4.638  0.5373 -1.6463 -0.8957
 3442SOL     OW10513   4.169   3.729   2.941 -1.0042  0.3789 -0.4004
 3442SOL    HW110514   4.078   3.758   2.930 -1.2222 -0.7490 -1.8246
 3442SOL    HW210515   4.170   3.685   3.026 -1.9769 -0.2430 -0.6957
 3443SOL     OW10516   4.305   3.990   0.473 -0.2906  0.1091 -0.0314
 3443SOL    HW110517   4.341   4.041   0.545  0.8002 -2.5937  1.5002
 3443SOL    HW210518   4.221   3.957   0.506  0.4311 -1.5321  0.2966
 3444SOL     OW10519   4.686   3.355   2.856  0.8645  0.2361  0.6333
 3444SOL    HW110520   4.596   3.336   2.828  0.4113  0.5805  1.7719
 3444SOL    HW210521   4.741   3.296   2.804 -0.1529 -1.1424  1.0706
 3445SOL     OW10522   2.350   3.740   2.462  0.1121 -0.0713 -0.5237
 3445SOL    HW110523   2.318   3.651   2.447  0.4631 -0.0645 -1.3827
 3445SOL    HW210524   2.444   3.735   2.442  0.0296  0.6056 -1.1254
 3446SOL     OW10525   2.428   0.193   1.495  0.7315  0.0402 -0.7141
 3446SOL    HW110526   2.483   0.186   1.417  1.3881  0.9936 -0.3607
 3446SOL    HW210527   2.484   0.162   1.567  0.3947 -0.1195 -0.5170
 3447SOL     OW10528   3.719   4.056   2.315  0.3062  0.3834 -0.4398
 3447SOL    HW110529   3.759   4.012   2.240  0.9587  1.1707 -0.5615
 3447SOL    HW210530   3.655   4.116   2.276  1.0114  1.1714 -0.4103
 3448SOL     OW10531   1.927   4.581   3.477  0.1176  0.1979 -0.3017
 3448SOL    HW110532   1.834   4.588   3.455 -0.2044 -1.1503  0.5695
 3448SOL    HW210533   1.944   4.659   3.531 -0.0953  1.2752 -1.7210
 3449SOL     OW10534   3.955   4.938   0.514  0.0828 -0.3972  0.2918
 3449SOL    HW110535   3.962   4.897   0.600 -0.2946 -3.2907 -0.9225
 3449SOL    HW210536   4.046   4.959   0.490  0.1090  1.2731  1.6937
 3450SOL     OW10537   2.775   4.058   1.526  0.4450  0.1191 -0.4538
 3450SOL    HW110538   2.702   4.000   1.549  1.0418 -0.8129 -0.8594
 3450SOL    HW210539   2.775   4.124   1.595 -0.9904  0.3297 -0.6243
 3451SOL     OW10540   2.726   3.776   1.914 -0.5499 -0.1298 -0.0654
 3451SOL    HW110541   2.729   3.719   1.837 -2.0916  0.4573 -0.6012
 3451SOL    HW210542   2.715   3.716   1.988 -3.1056 -0.5449 -0.7022
 3452SOL     OW10543   3.286   3.885   1.558 -0.2577  0.1992  0.0951
 3452SOL    HW110544   3.233   3.937   1.498 -0.2953 -0.6604 -0.6316
 3452SOL    HW210545   3.374   3.923   1.551 -0.2675  0.1193 -0.4823
 3453SOL     OW10546   4.933   1.604   1.362  0.1428 -0.6851  0.1330
 3453SOL    HW110547   5.006   1.666   1.364 -0.2687 -0.1552 -0.6171
 3453SOL    HW210548   4.951   1.543   1.434  1.7354 -1.0447 -0.5162
 3454SOL     OW10549   1.799   0.044   4.628 -0.1426 -0.4808  0.0550
 3454SOL    HW110550   1.881   0.040   4.677 -0.0971  0.8263  0.1335
 3454SOL    HW210551   1.808   0.122   4.573 -1.5770  0.0660  0.5454
 3455SOL     OW10552   2.361   3.320   4.341 -0.3809 -0.4067  0.0304
 3455SOL    HW110553   2.371   3.226   4.323  0.4341  0.1468 -2.7880
 3455SOL    HW210554   2.275   3.342   4.304 -0.9912 -0.1901  1.5217
 3456SOL     OW10555   3.828   1.199   3.359 -0.4527 -0.2727  0.2969
 3456SOL    HW110556   3.911   1.200   3.408 -0.1016 -0.7183 -0.2800
 3456SOL    HW210557   3.760   1.196   3.427 -0.0119  0.5583  0.7835
 3457SOL     OW10558   4.747   4.628   3.233  0.1587 -0.3238  0.0282
 3457SOL    HW110559   4.715   4.612   3.321  0.2734 -0.6357  0.0143
 3457SOL    HW210560   4.821   4.568   3.223 -0.8366 -1.4565 -0.8425
 3458SOL     OW10561   1.147   1.755   1.357 -0.1857  0.4359  0.4423
 3458SOL    HW110562   1.225   1.774   1.305 -0.7594 -1.0031 -1.0707
 3458SOL    HW210563   1.162   1.666   1.391 -1.3972 -0.1163 -0.3976
 3459SOL     OW10564   4.312   3.839   4.273 -0.2376  0.2635 -0.2938
 3459SOL    HW110565   4.351   3.903   4.332  0.2697  0.0799 -0.4202
 3459SOL    HW210566   4.218   3.849   4.284 -0.1515  0.6810  0.0590
 3460SOL     OW10567   2.461   4.468   1.182 -0.2420  0.2757 -0.0686
 3460SOL    HW110568   2.477   4.466   1.276 -0.8279  1.2533  0.0603
 3460SOL    HW210569   2.366   4.461   1.173 -0.6945  4.5158 -0.3250
 3461SOL     OW10570   3.490   4.463   4.023 -0.3821 -0.1991  0.0968
 3461SOL    HW110571   3.467   4.370   4.028  0.9448 -0.4689  2.1256
 3461SOL    HW210572   3.444   4.503   4.096 -0.7643  0.7213 -0.6355
 3462SOL     OW10573   3.252   0.488   3.481 -0.1937 -0.3495  0.3203
 3462SOL    HW110574   3.331   0.484   3.428  0.0537  1.7806  0.4648
 3462SOL    HW210575   3.272   0.551   3.551 -1.3739 -1.1929  1.4828
 3463SOL     OW10576   4.135   2.467   2.958 -0.4300 -0.1665 -0.4075
 3463SOL    HW110577   4.082   2.428   3.027  0.9439 -0.3139  0.6027
 3463SOL    HW210578   4.218   2.418   2.961  0.2609  0.9244 -1.0364
 3464SOL     OW10579   0.750   4.184   0.875  0.1248 -0.1203  0.2470
 3464SOL    HW110580   0.719   4.167   0.786  0.0481  0.6302  0.1283
 3464SOL    HW210581   0.820   4.248   0.865  1.6074 -1.6183  0.5392
 3465SOL     OW10582   4.512   1.235   1.793 -0.4772 -0.5012 -0.2863
 3465SOL    HW110583   4.484   1.326   1.794 -0.5631 -0.5228  1.5062
 3465SOL    HW210584   4.569   1.229   1.715  1.4255  1.6796  0.7943
 3466SOL     OW10585   1.302   2.245   2.676 -0.3247  0.3351 -0.0842
 3466SOL    HW110586   1.392   2.239   2.708  0.3021  1.4761 -1.5028
 3466SOL    HW210587   1.300   2.191   2.598 -0.9940 -0.0045  0.1575
 3467SOL     OW10588   3.654   3.808   2.442 -0.0911 -0.2794  0.0227
 3467SOL    HW110589   3.735   3.772   2.404  0.0141  0.9492 -0.9859
 3467SOL    HW210590   3.658   3.902   2.422 -1.7587 -0.1904  0.0035
 3468SOL     OW10591   3.706   2.855   2.977 -0.0599  0.2216  0.3970
 3468SOL    HW110592   3.618   2.862   3.013 -0.8827 -1.6300 -1.0930
 3468SOL    HW210593   3.759   2.819   3.048 -0.8788 -0.2250  0.7925
 3469SOL     OW10594   3.043   4.936   2.331  0.3413 -0.1084  0.1274
 3469SOL    HW110595   3.044   4.999   2.403  0.6266  0.8172 -0.6650
 3469SOL    HW210596   3.135   4.911   2.320  0.1624 -1.1727  0.8462
 3470SOL     OW10597   0.051   1.168   1.271  0.5161  0.5341  0.2734
 3470SOL    HW110598   0.113   1.229   1.310  2.3531  0.3129 -2.1329
 3470SOL    HW210599   0.066   1.174   1.177 -1.6008 -1.1774 -0.2562
 3471SOL     OW10600   1.299   3.643   1.250 -0.2672 -0.1929 -0.0922
 3471SOL    HW110601   1.328   3.720   1.298 -1.5194 -0.1863  0.6790
 3471SOL    HW210602   1.265   3.677   1.167  1.5766 -0.1788 -0.9168
 3472SOL     OW10603   4.099   4.681   4.817  0.3864  0.1889 -0.4717
 3472SOL    HW110604   4.122   4.733   4.740  0.8553 -0.7674 -0.9967
 3472SOL    HW210605   4.007   4.658   4.803  0.3828  0.2791 -0.5952
 3473SOL     OW10606   4.006   0.390   0.142 -0.3049 -0.3733 -0.6774
 3473SOL    HW110607   4.040   0.472   0.105  1.0151  0.0789  1.3687
 3473SOL    HW210608   4.031   0.393   0.234 -0.9074 -2.7438 -0.3679
 3474SOL     OW10609   1.574   3.093   2.407 -0.2039  0.1284  1.0153
 3474SOL    HW110610   1.591   3.146   2.329 -0.9084 -0.0431  0.7341
 3474SOL    HW210611   1.656   3.095   2.456  0.6482 -0.7236 -0.2981
 3475SOL     OW10612   4.155   2.595   0.473  0.3616 -0.0183  0.3070
 3475SOL    HW110613   4.167   2.667   0.411  0.0719  0.2041  0.5045
 3475SOL    HW210614   4.244   2.566   0.493  0.4203 -1.1724 -1.4429
 3476SOL     OW10615   1.087   3.482   2.102  0.3900  0.7075 -0.1772
 3476SOL    HW110616   1.025   3.487   2.175  0.0953 -0.2408 -0.3386
 3476SOL    HW210617   1.037   3.441   2.032  0.5884  1.8754 -1.0212
 3477SOL     OW10618   1.588   4.127   4.369  0.4014  0.3495  0.4319
 3477SOL    HW110619   1.603   4.185   4.295  0.8721  0.0700  0.3025
 3477SOL    HW210620   1.538   4.179   4.432  1.6707  1.2318  0.7507
 3478SOL     OW10621   4.050   1.951   2.301 -0.0523 -0.5793  0.2730
 3478SOL    HW110622   3.987   1.879   2.295 -1.7076  0.9166 -1.6298
 3478SOL    HW210623   4.002   2.021   2.344  0.5366  0.3504 -0.5404
 3479SOL     OW10624   4.021   2.092   1.040  0.0463  0.1922  0.0213
 3479SOL    HW110625   4.024   2.153   0.966  1.1284  0.8752  0.6009
 3479SOL    HW210626   4.096   2.034   1.027 -1.8528 -2.1361 -1.3882
 3480SOL     OW10627   2.806   1.104   0.541 -0.3793 -0.1819 -0.2372
 3480SOL    HW110628   2.725   1.130   0.587 -0.0182 -0.7618  0.7552
 3480SOL    HW210629   2.875   1.120   0.605  0.0353 -2.0026 -0.1797
 3481SOL     OW10630   4.201   3.288   3.106  0.2257 -0.0535 -0.3178
 3481SOL    HW110631   4.244   3.350   3.164  0.6316 -0.9226  0.3408
 3481SOL    HW210632   4.171   3.218   3.164 -0.8614 -0.1339 -0.9442
 3482SOL     OW10633   4.920   3.431   2.182  0.1940 -0.0217 -0.2099
 3482SOL    HW110634   4.895   3.423   2.274 -0.5441  0.0817 -0.3966
 3482SOL    HW210635   4.913   3.524   2.162 -3.6045 -0.3760 -1.4103
 3483SOL     OW10636   1.880   4.003   4.015 -0.5165  0.4855  0.4252
 3483SOL    HW110637   1.915   3.919   4.045  0.4971  0.6422 -0.2907
 3483SOL    HW210638   1.926   4.068   4.068 -0.1411  0.6638 -0.1164
 3484SOL     OW10639   3.316   1.878   4.064 -0.0039  0.8486 -0.6011
 3484SOL    HW110640   3.239   1.833   4.030 -1.2770  1.8307  0.8659
 3484SOL    HW210641   3.284   1.963   4.093  0.8186 -0.0098  3.3893
 3485SOL     OW10642   1.606   1.404   2.969 -0.2698  0.1484  0.0139
 3485SOL    HW110643   1.579   1.464   3.039  0.1644  1.1508 -0.6643
 3485SOL    HW210644   1.643   1.328   3.015  1.0217  1.2604  0.8744
 3486SOL     OW10645   4.603   2.140   2.600  0.6266 -0.3851  0.2502
 3486SOL    HW110646   4.585   2.083   2.675  1.1986 -2.5897 -1.2178
 3486SOL    HW210647   4.517   2.172   2.573  0.3889  0.2204  1.6521
 3487SOL     OW10648   0.342   0.164   0.828  0.2334 -0.0494 -0.2271
 3487SOL    HW110649   0.296   0.162   0.743 -0.7064 -0.5567  0.2698
 3487SOL    HW210650   0.279   0.125   0.889  1.8671 -2.1058  0.2350
 3488SOL     OW10651   0.310   3.600   2.264 -0.0087 -0.2262 -0.0328
 3488SOL    HW110652   0.362   3.539   2.316  1.3953 -0.5065 -1.6475
 3488SOL    HW210653   0.361   3.613   2.184 -1.3231  1.3760 -0.6846
 3489SOL     OW10654   4.180   3.080   3.275  0.5817 -0.0913  0.3611
 3489SOL    HW110655   4.232   3.008   3.240  1.8541  0.3560  1.2488
 3489SOL    HW210656   4.100   3.039   3.305  0.5071 -0.8464 -0.8033
 3490SOL     OW10657   3.007   2.914   2.507 -0.2474 -0.1224  0.0153
 3490SOL    HW110658   3.075   2.965   2.463 -0.0698 -0.4862 -0.1339
 3490SOL    HW210659   2.935   2.910   2.444 -2.3443  4.1194  1.7186
 3491SOL     OW10660   2.703   4.892   1.855  0.9873  0.0946  0.1469
 3491SOL    HW110661   2.728   4.841   1.932 -1.4927  1.7283  2.2149
 3491SOL    HW210662   2.772   4.957   1.845  1.1106  0.1620  1.3126
 3492SOL     OW10663   0.994   3.312   0.854  0.2895 -0.3433 -0.4655
 3492SOL    HW110664   1.078   3.267   0.843  1.0397  1.2771 -1.9640
 3492SOL    HW210665   0.928   3.245   0.835  1.3402 -0.9677 -2.1353
 3493SOL     OW10666   0.104   1.321   0.063  0.6263 -0.0155 -0.1182
 3493SOL    HW110667   0.058   1.286   0.139  1.2065  0.9118  0.6836
 3493SOL    HW210668   0.195   1.292   0.075  0.6371 -0.2467 -0.7049
 3494SOL     OW10669   0.109   0.445   2.441 -0.2517  0.7203  0.1075
 3494SOL    HW110670   0.074   0.525   2.481  2.1307  1.6916  0.4167
 3494SOL    HW210671   0.128   0.388   2.516 -0.6282  0.4355 -0.0138
 3495SOL     OW10672   0.755   0.890   0.906  0.3724  0.4836 -0.1512
 3495SOL    HW110673   0.746   0.966   0.964  1.0734  0.3050  0.2054
 3495SOL    HW210674   0.671   0.845   0.912  0.6594  0.0846  1.3076
 3496SOL     OW10675   4.170   0.398   3.769 -0.2380  0.6375  0.0730
 3496SOL    HW110676   4.148   0.385   3.677  0.8070  0.0264 -0.1092
 3496SOL    HW210677   4.086   0.414   3.812 -1.0355 -1.4473 -0.6013
 3497SOL     OW10678   1.439   1.102   3.130  0.0219 -0.5000  0.3222
 3497SOL    HW110679   1.502   1.162   3.090 -1.4136  0.4532 -0.6293
 3497SOL    HW210680   1.492   1.031   3.166  1.5110 -0.8347 -2.2718
 3498SOL     OW10681   4.657   3.462   4.575 -0.2687 -0.0426  0.4788
 3498SOL    HW110682   4.585   3.520   4.598 -0.4092  0.0849 -0.2783
 3498SOL    HW210683   4.618   3.375   4.573 -0.0434 -0.1987  1.6835
 3499SOL     OW10684   0.243   2.354   1.248 -0.1031  0.0027  0.4122
 3499SOL    HW110685   0.159   2.323   1.215  0.0633 -0.3229  0.2889
 3499SOL    HW210686   0.263   2.297   1.322 -1.9009  2.5325  3.1105
 3500SOL     OW10687   0.983   3.039   1.149  0.4464 -0.0362 -0.0261
 3500SOL    HW110688   0.960   3.021   1.240  0.2872  0.6236  0.0753
 3500SOL    HW210689   1.047   3.111   1.155  0.9852 -0.4778 -0.4011
 3501SOL     OW10690   3.820   2.573   3.372  0.2844 -0.1765 -0.1504
 3501SOL    HW110691   3.743   2.630   3.380  0.4682  0.1918 -0.8977
 3501SOL    HW210692   3.820   2.522   3.453 -0.5519  0.0566  0.0136
 3502SOL     OW10693   4.864   1.024   2.217  0.3175 -0.2541 -0.6043
 3502SOL    HW110694   4.791   1.062   2.169 -0.4497 -0.5902  0.2703
 3502SOL    HW210695   4.863   1.069   2.302  1.4414  0.0948 -0.7623
 3503SOL     OW10696   0.798   0.189   0.761 -0.0501 -0.2960 -0.3459
 3503SOL    HW110697   0.835   0.138   0.689 -0.5983  0.2985 -1.0753
 3503SOL    HW210698   0.710   0.212   0.731  0.9569  3.0776 -1.1463
 3504SOL     OW10699   3.226   3.283   4.489 -0.1443 -0.4195  0.0147
 3504SOL    HW110700   3.308   3.321   4.520 -1.0735  0.7915  1.0856
 3504SOL    HW210701   3.205   3.216   4.554 -1.1104  0.8031  1.0097
 3505SOL     OW10702   0.343   3.479   4.160 -0.3843  0.9434 -0.1760
 3505SOL    HW110703   0.266   3.523   4.127 -1.3988 -1.4144 -1.1650
 3505SOL    HW210704   0.309   3.400   4.203  1.4659 -0.5599 -1.3108
 3506SOL     OW10705   1.792   1.973   2.427 -0.5215  0.0014 -0.1313
 3506SOL    HW110706   1.717   2.020   2.464  0.0992  0.9348 -0.0300
 3506SOL    HW210707   1.867   2.005   2.476 -0.1616 -1.7826  0.5677
 3507SOL     OW10708   0.263   4.605   1.117 -0.3332 -0.7490 -0.3789
 3507SOL    HW110709   0.185   4.648   1.081  0.4466  1.4564  0.3906
 3507SOL    HW210710   0.326   4.676   1.128  0.4484 -1.7657  2.6457
 3508SOL     OW10711   3.179   1.069   1.964 -0.0830  0.1757 -0.2483
 3508SOL    HW110712   3.100   1.103   1.922 -0.2499 -2.6506 -2.5313
 3508SOL    HW210713   3.147   1.011   2.033 -0.1342 -1.3768 -1.5073
 3509SOL     OW10714   1.809   4.125   1.538  0.4658  0.4303  0.3221
 3509SOL    HW110715   1.761   4.100   1.616 -0.4916 -1.0673 -0.7027
 3509SOL    HW210716   1.801   4.050   1.479  0.7712  1.6779 -1.4005
 3510SOL     OW10717   4.493   2.820   0.013 -0.0412  0.2254 -0.3058
 3510SOL    HW110718   4.470   2.878   0.085 -0.2596 -0.3024  0.0573
 3510SOL    HW210719   4.530   2.743   0.055 -0.6016 -0.2890 -0.7257
 3511SOL     OW10720   0.724   1.803   3.479 -0.0245 -0.0803 -0.1997
 3511SOL    HW110721   0.732   1.775   3.388  0.0428 -0.3825 -0.1030
 3511SOL    HW210722   0.654   1.867   3.479 -0.9920 -1.1068 -0.2395
 3512SOL     OW10723   3.436   0.320   3.180 -0.4705 -0.2626  0.0741
 3512SOL    HW110724   3.435   0.415   3.192  0.9356 -0.2069 -0.0504
 3512SOL    HW210725   3.345   0.296   3.166 -1.0193  0.9003  1.4219
 3513SOL     OW10726   2.449   0.940   1.014  0.1273  0.3294  0.0065
 3513SOL    HW110727   2.410   0.909   1.096  1.3383 -0.1626  0.4082
 3513SOL    HW210728   2.505   0.868   0.985 -1.1404  0.0082 -1.8706
 3514SOL     OW10729   4.042   2.242   4.778  0.5308  0.6409  0.3640
 3514SOL    HW110730   3.983   2.312   4.751 -0.9944 -0.4609  0.6538
 3514SOL    HW210731   4.021   2.169   4.720  1.8157  0.2961  0.3093
 3515SOL     OW10732   4.084   3.616   3.175 -0.1904 -0.1981  0.1225
 3515SOL    HW110733   4.157   3.556   3.193  1.4357  0.9281 -2.0640
 3515SOL    HW210734   4.101   3.691   3.231 -0.1396 -0.2955  0.2382
 3516SOL     OW10735   3.673   0.289   2.873  0.0554 -0.1586  0.0817
 3516SOL    HW110736   3.682   0.202   2.912 -0.3427  0.0459  0.6553
 3516SOL    HW210737   3.762   0.318   2.857  0.4623  0.7923  3.2312
 3517SOL     OW10738   1.988   3.293   1.141  0.0726  0.1803  0.0911
 3517SOL    HW110739   1.985   3.374   1.090  0.9955 -1.0687 -2.0927
 3517SOL    HW210740   2.037   3.316   1.220 -0.3814  1.9351 -0.1107
 3518SOL     OW10741   3.083   2.369   4.194  0.2235 -0.1838  0.0117
 3518SOL    HW110742   3.157   2.318   4.163  1.0642  1.3106 -0.5507
 3518SOL    HW210743   3.120   2.455   4.215 -0.8828 -0.1771  2.2725
 3519SOL     OW10744   4.102   3.000   3.860 -0.7894 -0.0401  0.5464
 3519SOL    HW110745   4.147   2.915   3.853 -0.8785 -0.1598  1.3668
 3519SOL    HW210746   4.103   3.034   3.771  0.9293 -0.0404  0.5246
 3520SOL     OW10747   0.565   4.754   0.792 -0.3917  0.1352 -0.2606
 3520SOL    HW110748   0.473   4.780   0.800 -0.1065  1.1480 -0.0089
 3520SOL    HW210749   0.594   4.795   0.710 -0.5287 -1.3883 -1.0947
 3521SOL     OW10750   2.577   2.895   2.624  0.3578 -0.2611  0.6798
 3521SOL    HW110751   2.513   2.892   2.552  0.9260  1.6018  0.0306
 3521SOL    HW210752   2.616   2.982   2.617  0.8784 -0.2710  2.8974
 3522SOL     OW10753   2.832   2.834   1.337 -0.0914 -0.3933  0.9732
 3522SOL    HW110754   2.881   2.797   1.410 -0.7369  0.2684  1.7717
 3522SOL    HW210755   2.868   2.791   1.259 -1.6647 -3.6925  1.8903
 3523SOL     OW10756   0.393   1.743   2.793  0.5282  0.0522  0.3008
 3523SOL    HW110757   0.298   1.751   2.797  0.5610  0.0668  1.2938
 3523SOL    HW210758   0.409   1.664   2.741  0.0013  0.4202 -0.4424
 3524SOL     OW10759   0.226   4.328   0.391  0.1268  0.1186  0.1267
 3524SOL    HW110760   0.304   4.372   0.425  1.0903 -0.2529 -1.4836
 3524SOL    HW210761   0.190   4.282   0.467  1.1557  0.7543  1.0355
 3525SOL     OW10762   4.564   1.896   0.781 -0.1523  0.2978  0.2861
 3525SOL    HW110763   4.572   1.964   0.849 -2.3698  0.7150  0.2036
 3525SOL    HW210764   4.589   1.940   0.700  0.0159  0.5415  0.4692
 3526SOL     OW10765   0.412   4.600   4.703  0.1029  0.9386  0.2708
 3526SOL    HW110766   0.505   4.585   4.718  0.1072 -0.2356 -0.7964
 3526SOL    HW210767   0.409   4.674   4.643  0.4622 -0.3874 -1.4387
 3527SOL     OW10768   2.412   0.665   3.724  0.0378  0.4372  0.0224
 3527SOL    HW110769   2.472   0.598   3.757 -1.6024 -0.9847  0.2658
 3527SOL    HW210770   2.389   0.716   3.801  0.9104  0.9936 -0.0726
 3528SOL     OW10771   3.961   3.970   1.466  0.2183 -0.0297 -0.0893
 3528SOL    HW110772   3.900   4.041   1.484  0.3720 -0.2002  1.1813
 3528SOL    HW210773   4.018   4.005   1.397  0.0541  0.9472  0.2480
 3529SOL     OW10774   2.308   0.497   4.478 -0.0155 -0.5620  0.6883
 3529SOL    HW110775   2.216   0.524   4.478  0.1195 -0.0456 -0.3620
 3529SOL    HW210776   2.356   0.573   4.512  0.3373  0.5374 -2.0163
 3530SOL     OW10777   0.994   2.977   2.173 -0.1355 -0.1387 -0.1661
 3530SOL    HW110778   0.987   2.989   2.079  0.9967  3.7129  0.0582
 3530SOL    HW210779   1.086   2.956   2.189 -0.3649 -0.9924  0.1012
 3531SOL     OW10780   1.322   0.779   3.471 -0.7315  0.4055 -0.5847
 3531SOL    HW110781   1.247   0.720   3.463 -0.1886 -0.4041  0.0483
 3531SOL    HW210782   1.388   0.742   3.412  0.2348 -0.6706  1.0901
 3532SOL     OW10783   1.902   1.388   4.730 -0.3154  0.1370  0.4528
 3532SOL    HW110784   1.884   1.298   4.705 -0.4637  0.0626  0.8315
 3532SOL    HW210785   1.816   1.430   4.735 -0.2715  0.2082  0.6277
 3533SOL     OW10786   0.603   4.057   3.514  0.3857  0.0487  0.1601
 3533SOL    HW110787   0.543   3.986   3.535  0.6011  0.2510  1.5834
 3533SOL    HW210788   0.548   4.125   3.475 -0.1015 -0.2455  0.3242
 3534SOL     OW10789   4.575   0.979   0.599  0.4846  0.2235  0.4318
 3534SOL    HW110790   4.529   0.911   0.648  0.1381  1.2664  1.6122
 3534SOL    HW210791   4.517   1.055   0.604  0.2302  0.2521 -2.0257
 3535SOL     OW10792   0.901   1.449   2.174  0.3322  0.4412  0.2926
 3535SOL    HW110793   0.931   1.464   2.085 -1.4813 -0.0094 -0.4312
 3535SOL    HW210794   0.895   1.537   2.212  2.0280  0.5715  0.3123
 3536SOL     OW10795   2.274   0.748   2.483  0.2136 -0.4039 -0.2201
 3536SOL    HW110796   2.209   0.683   2.510 -0.1032 -0.4844 -1.1590
 3536SOL    HW210797   2.266   0.818   2.549 -1.3836 -0.0511 -0.7318
 3537SOL     OW10798   3.828   2.573   0.250  0.1844 -0.5410  0.6046
 3537SOL    HW110799   3.788   2.591   0.335 -1.3701  1.4508 -0.4638
 3537SOL    HW210800   3.771   2.617   0.187  2.0093 -0.8496 -1.3722
 3538SOL     OW10801   4.781   3.474   1.403 -0.3279  0.4283  0.2718
 3538SOL    HW110802   4.763   3.476   1.497 -0.3979 -0.6565  0.2926
 3538SOL    HW210803   4.700   3.507   1.363 -0.0866  1.4552  0.6035
 3539SOL     OW10804   0.634   4.533   1.420  0.1795  0.3007 -0.0620
 3539SOL    HW110805   0.568   4.491   1.365 -0.4614  0.8328  0.2986
 3539SOL    HW210806   0.699   4.567   1.358  0.0595 -0.1174 -0.4234
 3540SOL     OW10807   3.322   2.211   2.019 -0.2751 -0.3175  0.0669
 3540SOL    HW110808   3.275   2.177   2.095  1.7739 -0.1293  1.4890
 3540SOL    HW210809   3.335   2.304   2.038 -1.3147  0.1645 -1.3947
 3541SOL     OW10810   0.810   4.653   1.254 -0.5826 -0.3871 -0.1687
 3541SOL    HW110811   0.783   4.702   1.176 -0.6309  1.2585  0.8229
 3541SOL    HW210812   0.901   4.679   1.269 -0.9680  0.3730  1.0389
 3542SOL     OW10813   4.558   0.334   4.294 -0.3308  0.9602 -1.0716
 3542SOL    HW110814   4.631   0.352   4.235 -0.5096  1.2666 -1.2024
 3542SOL    HW210815   4.491   0.398   4.270  0.2976  2.3592  0.7342
 3543SOL     OW10816   2.047   2.625   4.625 -0.3383 -0.3410 -0.9069
 3543SOL    HW110817   2.046   2.532   4.649  2.3015  0.2823  2.5171
 3543SOL    HW210818   1.970   2.662   4.668  0.5684 -0.4535  0.9387
 3544SOL     OW10819   0.779   1.066   4.061 -0.5137  0.2381  0.2313
 3544SOL    HW110820   0.782   1.118   3.980  1.3589  0.3518  0.3169
 3544SOL    HW210821   0.812   0.980   4.034 -0.8925 -0.0453  0.6724
 3545SOL     OW10822   0.031   0.886   2.959 -0.1480  0.9068  0.6789
 3545SOL    HW110823  -0.023   0.887   3.038 -1.3828 -1.5109 -0.0316
 3545SOL    HW210824  -0.026   0.924   2.891 -0.5770 -0.5838  0.1748
 3546SOL     OW10825   3.323   1.170   1.240  0.2342  0.2452  0.0728
 3546SOL    HW110826   3.271   1.112   1.184  1.8651 -1.0340 -0.2021
 3546SOL    HW210827   3.300   1.143   1.329  0.2284 -0.1367 -0.0417
 3547SOL     OW10828   4.848   1.038   4.322  0.6726 -0.2914  0.2250
 3547SOL    HW110829   4.835   1.133   4.322 -1.7361 -0.4971 -1.8369
 3547SOL    HW210830   4.854   1.015   4.415  3.1857  1.9996  0.7638
 3548SOL     OW10831   1.754   4.501   4.908  0.3781  0.4674  0.5639
 3548SOL    HW110832   1.716   4.560   4.973 -2.0272 -1.0773  0.6998
 3548SOL    HW210833   1.816   4.447   4.957 -0.8197 -0.1476  1.4613
 3549SOL     OW10834   0.026   1.443   4.719 -0.4344 -0.4792  0.0895
 3549SOL    HW110835   0.036   1.479   4.808  0.7784 -0.6041  0.0225
 3549SOL    HW210836  -0.032   1.368   4.730  0.7136 -1.2826  1.0266
 3550SOL     OW10837   1.160   0.192   1.519  0.4462  0.4588 -0.8552
 3550SOL    HW110838   1.144   0.236   1.603 -0.9250 -1.6882  0.1005
 3550SOL    HW210839   1.110   0.242   1.455  0.4502  1.3621 -0.1698
 3551SOL     OW10840   3.301   4.237   4.405 -0.7948  0.0057 -0.1607
 3551SOL    HW110841   3.319   4.148   4.374  1.7646  1.1141 -2.2026
 3551SOL    HW210842   3.238   4.272   4.341  1.1855  0.8509 -1.7730
 3552SOL     OW10843   0.235   4.919   0.360  0.1075  0.3465  0.0130
 3552SOL    HW110844   0.281   4.838   0.380 -0.9197 -0.0139  1.0542
 3552SOL    HW210845   0.144   4.902   0.387 -0.0632  1.9439  0.5604
 3553SOL     OW10846   4.604   1.068   2.585  0.5993 -0.0020 -0.3253
 3553SOL    HW110847   4.668   1.063   2.514  0.0609  0.9316 -0.8940
 3553SOL    HW210848   4.551   1.145   2.564 -1.5847 -1.4847 -0.6015
 3554SOL     OW10849   3.546   2.784   4.664  0.0788 -0.3625  0.4043
 3554SOL    HW110850   3.635   2.768   4.632  0.4811  1.2287  0.6647
 3554SOL    HW210851   3.492   2.720   4.617  0.8788  0.7747 -2.2741
 3555SOL     OW10852   3.163   3.086   4.638 -0.1672 -0.2005  0.2428
 3555SOL    HW110853   3.195   3.011   4.588 -2.2726  0.0540 -1.6530
 3555SOL    HW210854   3.069   3.069   4.649  0.1121 -0.0017  3.8128
 3556SOL     OW10855   1.931   2.611   0.873  0.7486  0.3710 -0.2921
 3556SOL    HW110856   1.916   2.694   0.827  0.8762 -0.0254 -1.0515
 3556SOL    HW210857   1.925   2.544   0.805 -0.7757 -0.3853  0.5592
 3557SOL     OW10858   1.625   0.472   1.903  0.0945 -0.2001  0.3541
 3557SOL    HW110859   1.594   0.562   1.891 -0.2510 -0.4029 -0.3391
 3557SOL    HW210860   1.643   0.465   1.997 -0.5049  0.3937  0.5213
 3558SOL     OW10861   3.476   3.021   1.856 -0.3204  0.2830  0.3411
 3558SOL    HW110862   3.556   3.002   1.808 -1.3060 -1.0688 -0.8354
 3558SOL    HW210863   3.444   3.103   1.819  0.3594  0.6929  0.6405
 3559SOL     OW10864   4.287   3.231   4.907 -0.6582 -0.1901 -0.7696
 3559SOL    HW110865   4.306   3.172   4.833 -0.3500  1.7046 -2.2872
 3559SOL    HW210866   4.192   3.231   4.913 -0.6462 -2.6203  0.8413
 3560SOL     OW10867   3.027   4.617   2.015 -0.2701 -0.0788 -0.1909
 3560SOL    HW110868   3.063   4.702   1.990  0.6944 -0.7957 -1.3612
 3560SOL    HW210869   3.104   4.561   2.028 -0.8897 -0.8261  0.3731
 3561SOL     OW10870   2.094   2.256   4.214  0.7472 -0.5651  0.4796
 3561SOL    HW110871   2.111   2.347   4.189  1.1976 -0.3767  1.4590
 3561SOL    HW210872   2.015   2.233   4.164  1.1343  0.0622 -0.4674
 3562SOL     OW10873   2.262   3.172   0.630 -0.2093  0.2258  0.3923
 3562SOL    HW110874   2.237   3.111   0.560  3.8197  0.1089 -1.1967
 3562SOL    HW210875   2.231   3.257   0.600 -2.4511 -0.3842  0.7637
 3563SOL     OW10876   0.442   4.404   1.260  0.2035  0.1401 -0.0450
 3563SOL    HW110877   0.371   4.455   1.221  1.6896  2.6862  0.3029
 3563SOL    HW210878   0.501   4.387   1.186  0.0710 -0.4587 -0.0166
 3564SOL     OW10879   1.969   1.952   1.590  0.2871 -0.0137 -0.4539
 3564SOL    HW110880   1.956   2.038   1.551 -1.1209 -0.8927 -2.0841
 3564SOL    HW210881   1.935   1.960   1.680  3.6770  2.0814  0.8163
 3565SOL     OW10882   4.317   4.130   2.518  0.6066 -0.2386 -0.1145
 3565SOL    HW110883   4.412   4.125   2.529  1.0017  0.9001 -2.3364
 3565SOL    HW210884   4.303   4.109   2.426 -0.9559  2.6218 -0.6521
 3566SOL     OW10885   2.359   3.777   0.301 -0.6729 -0.0055  0.4495
 3566SOL    HW110886   2.412   3.856   0.286  0.1471 -0.6338 -0.0022
 3566SOL    HW210887   2.422   3.705   0.300 -1.5356 -0.7653 -0.0469
 3567SOL     OW10888   3.444   2.156   2.902  0.1676  0.2923 -0.0990
 3567SOL    HW110889   3.442   2.227   2.966  0.9748  1.1439 -0.9739
 3567SOL    HW210890   3.385   2.090   2.937 -1.7577  1.9990  0.0623
 3568SOL     OW10891   0.253   1.702   3.528  0.2265 -0.0903  0.0418
 3568SOL    HW110892   0.215   1.738   3.448  1.0635  0.2035 -0.2298
 3568SOL    HW210893   0.237   1.770   3.594 -0.1160 -0.1615  0.0326
 3569SOL     OW10894   4.341   2.161   0.627 -0.0410  0.0133  0.0482
 3569SOL    HW110895   4.421   2.119   0.657  0.2436  0.8890  0.5487
 3569SOL    HW210896   4.306   2.101   0.560  0.4060 -0.9474  0.6498
 3570SOL     OW10897   1.617   2.915   0.524 -0.3282 -0.2582  0.1025
 3570SOL    HW110898   1.707   2.942   0.540 -0.0739 -1.2402  0.3675
 3570SOL    HW210899   1.623   2.857   0.448 -0.4354 -2.0047  1.3875
 3571SOL     OW10900   3.628   1.702   2.739 -1.1077  0.7553 -0.2176
 3571SOL    HW110901   3.561   1.646   2.777  0.4969 -1.5879 -0.6317
 3571SOL    HW210902   3.646   1.663   2.653 -0.4550  2.3871 -0.8653
 3572SOL     OW10903   0.543   0.343   1.635  0.2838 -0.0144 -0.0829
 3572SOL    HW110904   0.460   0.325   1.590  0.8876 -0.2602 -1.1359
 3572SOL    HW210905   0.560   0.266   1.689 -1.6272  1.2288  2.5098
 3573SOL     OW10906   1.372   0.934   0.120 -0.0098 -0.1203  0.1236
 3573SOL    HW110907   1.427   0.927   0.042  0.1615 -0.4627  0.2728
 3573SOL    HW210908   1.427   0.980   0.184  0.6616 -1.7812  0.7725
 3574SOL     OW10909   4.584   3.209   1.513 -0.0266 -0.4200 -0.6894
 3574SOL    HW110910   4.508   3.204   1.571  0.7556  0.0265  0.4018
 3574SOL    HW210911   4.636   3.282   1.547  1.7252 -1.7485 -0.3726
 3575SOL     OW10912   4.818   2.358   4.607  0.3439  0.7326  0.2104
 3575SOL    HW110913   4.896   2.377   4.555  0.4584  1.8454  0.7399
 3575SOL    HW210914   4.826   2.266   4.631  1.9716  1.0642  1.0364
 3576SOL     OW10915   1.111   1.440   3.127  0.0469 -0.4540  0.9979
 3576SOL    HW110916   1.045   1.493   3.082 -0.4033 -0.8873  1.1387
 3576SOL    HW210917   1.136   1.491   3.204 -0.1436 -0.3032  0.9580
 3577SOL     OW10918   4.298   4.153   4.906  0.4712  0.1890  0.7393
 3577SOL    HW110919   4.341   4.121   4.984  2.0607 -0.7475 -0.4587
 3577SOL    HW210920   4.366   4.200   4.858 -0.4423  0.6983 -0.1203
 3578SOL     OW10921   2.492   3.670   3.171  0.1229  0.0252  0.5197
 3578SOL    HW110922   2.495   3.701   3.080 -1.1358  0.8409  0.7373
 3578SOL    HW210923   2.442   3.589   3.167 -0.0460  0.1302  0.5042
 3579SOL     OW10924   2.190   0.899   0.868 -0.0783 -0.4649  0.3409
 3579SOL    HW110925   2.201   0.860   0.781 -2.7314 -0.5438 -0.0414
 3579SOL    HW210926   2.277   0.931   0.891  0.7321 -0.5226 -2.3117
 3580SOL     OW10927   4.422   3.427   1.839  0.1678  0.5782 -0.3573
 3580SOL    HW110928   4.392   3.341   1.866 -1.2044  0.2525 -2.6524
 3580SOL    HW210929   4.462   3.465   1.917 -0.2752 -1.6466  1.0139
 3581SOL     OW10930   1.972   4.689   0.809 -0.1230 -0.0011  0.8821
 3581SOL    HW110931   1.967   4.753   0.880  0.0638 -0.6897  1.5305
 3581SOL    HW210932   2.001   4.608   0.852 -1.0742 -0.7254  0.2165
 3582SOL     OW10933   0.922   1.966   3.693 -0.5769 -0.1617 -0.6324
 3582SOL    HW110934   0.842   1.955   3.744 -0.1406 -1.1381 -0.1295
 3582SOL    HW210935   0.906   2.044   3.639 -1.3468  0.4240  0.4100
 3583SOL     OW10936   3.743   0.443   4.817  0.2282  0.4611 -0.4682
 3583SOL    HW110937   3.723   0.444   4.910 -1.4203  0.9696 -0.7892
 3583SOL    HW210938   3.668   0.398   4.777  0.9752  0.1124 -1.5444
 3584SOL     OW10939   3.878   3.226   4.510 -0.0095  0.0477  0.1083
 3584SOL    HW110940   3.907   3.295   4.451  0.7624  0.7681  1.2694
 3584SOL    HW210941   3.782   3.231   4.509  0.0379  1.2044  0.2343
 3585SOL     OW10942   2.263   3.956   2.878  0.1120 -0.5113  0.2557
 3585SOL    HW110943   2.243   3.951   2.784 -0.9818 -2.0694  0.5240
 3585SOL    HW210944   2.178   3.966   2.920  0.7668  3.5576  1.0075
 3586SOL     OW10945   3.571   0.510   1.794 -0.5419  0.5275 -0.5481
 3586SOL    HW110946   3.614   0.506   1.709 -0.2161  1.4574 -0.4378
 3586SOL    HW210947   3.479   0.530   1.774 -0.1418  2.4659 -0.6376
 3587SOL     OW10948   3.557   2.067   0.912 -0.0670  0.4820  0.3100
 3587SOL    HW110949   3.559   2.047   0.818 -0.1988 -3.0961  0.9221
 3587SOL    HW210950   3.636   2.025   0.947 -0.4995  0.9490  1.9442
 3588SOL     OW10951   4.931   0.124   2.378  0.7903  0.1298 -0.2296
 3588SOL    HW110952   4.994   0.170   2.323  0.3537 -0.5531 -1.3208
 3588SOL    HW210953   4.867   0.191   2.402  1.0511  0.4599 -0.4413
 3589SOL     OW10954   3.045   3.665   2.197  0.8195  0.0301 -0.1133
 3589SOL    HW110955   2.962   3.648   2.154  0.9353  0.2433 -0.4270
 3589SOL    HW210956   3.111   3.633   2.136  0.9604 -0.5343  0.3210
 3590SOL     OW10957   1.270   2.104   3.435  0.0903 -0.4906  0.6853
 3590SOL    HW110958   1.359   2.113   3.401 -0.4448 -0.4088 -0.7732
 3590SOL    HW210959   1.282   2.067   3.523  1.5050 -1.7431  0.0228
 3591SOL     OW10960   2.162   3.882   0.744 -0.1019  0.7544  0.0552
 3591SOL    HW110961   2.068   3.895   0.736 -0.2213 -0.1549 -0.1720
 3591SOL    HW210962   2.179   3.884   0.838 -0.8511 -2.0353  0.3544
 3592SOL     OW10963   2.977   3.514   3.889  0.2552  0.0289  0.1844
 3592SOL    HW110964   2.998   3.495   3.797 -1.6952 -0.6100 -0.1747
 3592SOL    HW210965   2.940   3.432   3.922 -2.9950  1.3789  0.2914
 3593SOL     OW10966   3.667   1.256   0.285  0.1185 -0.1330  0.0380
 3593SOL    HW110967   3.672   1.173   0.236  2.9334 -0.8060  1.3000
 3593SOL    HW210968   3.684   1.324   0.220 -0.0079 -0.6943 -0.5961
 3594SOL     OW10969   2.232   2.351   3.000 -0.5474  0.2324 -0.2710
 3594SOL    HW110970   2.214   2.441   3.026  1.7947  0.0773  2.2895
 3594SOL    HW210971   2.159   2.301   3.036 -0.9946  0.8807 -0.2490
 3595SOL     OW10972   3.146   2.321   0.402 -0.4470 -0.3102  0.1039
 3595SOL    HW110973   3.215   2.379   0.437 -0.7140 -0.4082  0.8172
 3595SOL    HW210974   3.104   2.372   0.333 -1.7388  1.0195  1.7870
 3596SOL     OW10975   2.075   2.479   0.636  0.4649 -0.1839 -0.1623
 3596SOL    HW110976   1.984   2.456   0.615  0.5538 -1.2895  0.5732
 3596SOL    HW210977   2.123   2.396   0.630  1.3024  0.2700  0.1016
 3597SOL     OW10978   0.852   0.467   2.290  0.2239  0.6222 -0.3078
 3597SOL    HW110979   0.867   0.561   2.300  0.4764  0.6368 -0.7873
 3597SOL    HW210980   0.882   0.429   2.372 -1.2225  1.0968  0.4676
 3598SOL     OW10981   1.139   3.885   3.826  0.2500  0.7277  0.1553
 3598SOL    HW110982   1.222   3.918   3.861  1.5749 -0.7995 -1.3916
 3598SOL    HW210983   1.134   3.795   3.858 -0.2638  0.4648 -0.6449
 3599SOL     OW10984   4.797   3.244   0.327  0.2181 -0.3829 -0.2108
 3599SOL    HW110985   4.788   3.157   0.287  0.7110 -0.4785 -0.1113
 3599SOL    HW210986   4.778   3.304   0.255 -2.2251 -0.5595  0.1948
 3600SOL     OW10987   3.002   3.528   0.214  0.8080 -0.3121  0.3840
 3600SOL    HW110988   3.087   3.564   0.191  0.5347 -1.1617 -2.2991
 3600SOL    HW210989   3.018   3.434   0.226  0.5433 -0.2033  1.6649
 3601SOL     OW10990   0.881   1.142   0.850  0.0857  0.1887 -0.1593
 3601SOL    HW110991   0.837   1.222   0.877 -0.2401 -0.9374  3.0019
 3601SOL    HW210992   0.974   1.162   0.858  0.0998  0.8684 -1.5773
 3602SOL     OW10993   3.794   0.528   0.650 -0.5893  0.1968 -0.4280
 3602SOL    HW110994   3.723   0.550   0.590 -0.5473 -0.5883 -0.7802
 3602SOL    HW210995   3.778   0.437   0.674 -0.5647  0.4823  0.7169
 3603SOL     OW10996   2.051   4.656   2.607  0.1596  0.7405 -0.8564
 3603SOL    HW110997   1.982   4.696   2.553  0.1716  0.0270 -1.4138
 3603SOL    HW210998   2.132   4.697   2.578 -0.0228  1.5978 -0.1855
 3604SOL     OW10999   2.157   3.048   3.316  0.1701 -0.1196  0.6046
 3604SOL    HW111000   2.197   3.102   3.384 -0.3775 -0.6603  1.3694
 3604SOL    HW211001   2.064   3.072   3.319 -0.0459 -0.9680  0.8353
 3605SOL     OW11002   2.529   1.458   1.863  0.4046 -0.2967  0.3023
 3605SOL    HW111003   2.479   1.518   1.918  1.3325  0.5048  0.2992
 3605SOL    HW211004   2.513   1.488   1.774  0.7947 -0.1031  0.2946
 3606SOL     OW11005   4.458   4.292   2.203  0.0723 -0.5173 -0.7118
 3606SOL    HW111006   4.402   4.332   2.270  0.3354  0.3498 -0.9986
 3606SOL    HW211007   4.546   4.320   2.225  0.2507 -0.8653 -0.9743
 3607SOL     OW11008   4.366   1.572   0.114 -0.9346 -0.0299  0.1406
 3607SOL    HW111009   4.319   1.490   0.100  1.1536 -1.5272  1.3038
 3607SOL    HW211010   4.398   1.596   0.027 -2.0358 -0.1277 -0.3044
 3608SOL     OW11011   2.880   1.090   4.882 -0.0211 -0.0759 -0.2204
 3608SOL    HW111012   2.936   1.164   4.855  0.0945  0.2401  0.8553
 3608SOL    HW211013   2.896   1.080   4.975 -1.1156 -0.5473 -0.0656
 3609SOL     OW11014   0.035   4.375   1.769  0.0899  0.3880  0.0026
 3609SOL    HW111015   0.062   4.293   1.809 -0.2884  0.8528  1.2659
 3609SOL    HW211016  -0.049   4.396   1.811 -0.2823  0.9595 -0.9696
 3610SOL     OW11017   0.675   3.802   3.776  0.9388  0.4176  0.7502
 3610SOL    HW111018   0.701   3.734   3.838  1.5126  2.1779  2.5356
 3610SOL    HW211019   0.746   3.805   3.711  0.1890 -1.6436 -0.2755
 3611SOL     OW11020   2.799   3.098   1.699  0.3031  0.7355  0.0976
 3611SOL    HW111021   2.887   3.068   1.717 -0.2135 -1.3701 -0.6320
 3611SOL    HW211022   2.749   3.018   1.682 -1.5637  1.9213 -0.2976
 3612SOL     OW11023   0.368   0.582   1.945 -0.7952 -0.4677 -0.9201
 3612SOL    HW111024   0.380   0.663   1.994 -2.1018  0.4787 -2.0968
 3612SOL    HW211025   0.454   0.564   1.906 -0.1490 -0.4088  0.4269
 3613SOL     OW11026   3.914   1.990   1.848 -0.2456 -0.7841  0.6616
 3613SOL    HW111027   3.870   2.033   1.921 -0.4021 -3.0458  2.0010
 3613SOL    HW211028   3.904   2.050   1.775 -2.0681  0.5616  1.9353
 3614SOL     OW11029   0.780   0.287   0.065  0.7846 -0.1629  0.2445
 3614SOL    HW111030   0.842   0.251   0.001  0.1310  0.2498 -0.6318
 3614SOL    HW211031   0.779   0.381   0.048 -1.3693 -0.3401 -0.9438
 3615SOL     OW11032   0.968   1.786   1.151  0.2640  0.7167  0.6336
 3615SOL    HW111033   1.013   1.801   1.235  1.1977  1.2907  0.0535
 3615SOL    HW211034   0.976   1.692   1.135 -0.3147  0.5264  1.3944
 3616SOL     OW11035   3.015   0.428   2.287  0.1024 -0.1293  0.1592
 3616SOL    HW111036   3.055   0.514   2.292  0.8122 -0.4080 -0.5113
 3616SOL    HW211037   2.955   0.425   2.362  1.5460  0.1778  1.3766
 3617SOL     OW11038   2.185   4.567   0.025  0.0756  0.2363  0.0609
 3617SOL    HW111039   2.192   4.519  -0.057 -0.5761 -0.0758  0.1820
 3617SOL    HW211040   2.131   4.511   0.081  1.3944 -0.0624  1.0753
 3618SOL     OW11041   2.648   2.020   1.332 -0.2977 -0.3075 -0.0493
 3618SOL    HW111042   2.688   2.053   1.413  0.2701 -0.5370 -0.2338
 3618SOL    HW211043   2.608   2.097   1.292 -0.3518 -0.1418  0.3162
 3619SOL     OW11044   0.718   1.996   2.912 -0.8903  0.4419 -0.2876
 3619SOL    HW111045   0.787   1.949   2.866  0.6796  0.9756  1.3675
 3619SOL    HW211046   0.644   1.998   2.851  0.5272 -0.2094 -2.1117
 3620SOL     OW11047   0.429   4.409   1.675 -0.2365 -0.2006 -0.1684
 3620SOL    HW111048   0.419   4.502   1.654 -1.3403  0.2883  2.2460
 3620SOL    HW211049   0.413   4.365   1.592 -0.5067  1.7133 -1.2017
 3621SOL     OW11050   1.288   2.568   3.805 -0.3304 -0.5059 -0.4662
 3621SOL    HW111051   1.273   2.629   3.733 -1.0369 -0.6948 -0.4832
 3621SOL    HW211052   1.243   2.488   3.779 -1.2262 -0.3337  0.5098
 3622SOL     OW11053   2.075   4.523   3.819 -0.3616  0.1400  0.0436
 3622SOL    HW111054   2.083   4.574   3.899 -1.2765  0.7809 -0.2581
 3622SOL    HW211055   2.103   4.583   3.749 -0.4637 -0.1024 -0.2085
 3623SOL     OW11056   3.863   0.659   2.222 -0.0791 -0.6801  0.1012
 3623SOL    HW111057   3.819   0.574   2.221 -0.1673 -0.6327  0.0012
 3623SOL    HW211058   3.895   0.671   2.133 -0.7476 -0.2506 -0.0867
 3624SOL     OW11059   1.478   0.955   2.878  1.0663 -0.4118  0.0060
 3624SOL    HW111060   1.439   0.873   2.910 -1.2559  0.6196  0.0195
 3624SOL    HW211061   1.477   1.013   2.955  3.7161 -0.6195  0.3042
 3625SOL     OW11062   2.546   3.387   0.938  0.2561 -0.0095  0.0341
 3625SOL    HW111063   2.504   3.301   0.939 -0.1158  0.1627  0.7887
 3625SOL    HW211064   2.582   3.397   1.027 -2.5547  1.9234  1.1327
 3626SOL     OW11065   0.265   3.250   4.255 -0.4002 -0.0656 -0.3583
 3626SOL    HW111066   0.306   3.178   4.304 -0.0680  0.8237  0.6959
 3626SOL    HW211067   0.172   3.229   4.256 -0.6976  0.9365  2.4876
 3627SOL     OW11068   3.045   1.404   1.999 -0.2719  0.5259  0.5174
 3627SOL    HW111069   2.990   1.479   1.976  0.5143  0.9527 -0.0260
 3627SOL    HW211070   3.098   1.389   1.922  1.1498  0.8284  1.3964
 3628SOL     OW11071   4.870   4.822   3.870 -0.6591 -0.2721 -0.6116
 3628SOL    HW111072   4.907   4.847   3.955 -3.1524 -1.1745  0.8583
 3628SOL    HW211073   4.873   4.726   3.870 -0.6640 -0.2821 -1.5866
 3629SOL     OW11074   1.197   0.959   3.648 -0.0026 -0.5242  0.2129
 3629SOL    HW111075   1.253   1.030   3.616 -0.1499 -0.4891  0.0279
 3629SOL    HW211076   1.227   0.882   3.599 -0.6298 -0.3486 -0.4569
 3630SOL     OW11077   2.269   0.013   3.947 -0.2108 -0.2931 -0.6463
 3630SOL    HW111078   2.316   0.086   3.987  0.4396 -1.4089  0.6842
 3630SOL    HW211079   2.177   0.031   3.965 -0.0038 -0.1899  0.3685
 3631SOL     OW11080   3.448   3.364   2.536 -0.0463  0.8213  0.4671
 3631SOL    HW111081   3.500   3.345   2.458  0.8410  2.5929  0.5624
 3631SOL    HW211082   3.399   3.443   2.513  0.1914  1.3380  1.6675
 3632SOL     OW11083   3.545   3.626   1.176  0.7617  0.2750  0.2276
 3632SOL    HW111084   3.566   3.542   1.134 -0.2402  0.4954 -0.7667
 3632SOL    HW211085   3.451   3.637   1.162  0.9252  1.7036  0.1072
 3633SOL     OW11086   0.799   2.044   0.802  0.3183  0.4176 -0.3474
 3633SOL    HW111087   0.748   2.104   0.747  1.8887 -0.0324 -2.4530
 3633SOL    HW211088   0.882   2.035   0.755  1.1600 -1.2471  1.3604
 3634SOL     OW11089   3.158   1.559   0.911  0.5557 -0.0885 -0.5195
 3634SOL    HW111090   3.212   1.618   0.963  0.1498 -0.6515  0.5563
 3634SOL    HW211091   3.192   1.472   0.932 -0.3055 -0.3950 -0.3784
 3635SOL     OW11092   2.560   2.283   4.481 -0.0587  0.1453 -0.5459
 3635SOL    HW111093   2.469   2.311   4.493 -0.6862 -1.6144 -0.9720
 3635SOL    HW211094   2.557   2.188   4.486  1.7890  0.0564 -0.5072
 3636SOL     OW11095   3.405   2.515   4.443 -0.4682 -0.7192 -0.0550
 3636SOL    HW111096   3.313   2.508   4.418 -0.7738  0.7668  0.5179
 3636SOL    HW211097   3.448   2.550   4.364 -0.6455 -0.1705  0.0853
 3637SOL     OW11098   4.774   4.163   4.314 -0.0208  0.4987  0.2824
 3637SOL    HW111099   4.708   4.111   4.268  1.0545 -0.8538  0.1946
 3637SOL    HW211100   4.857   4.118   4.295  0.8128  1.6306  1.1244
 3638SOL     OW11101   3.952   1.410   1.646 -0.5036 -0.4815  0.5905
 3638SOL    HW111102   3.946   1.506   1.638 -1.9176 -0.6483 -1.0232
 3638SOL    HW211103   3.875   1.386   1.699 -0.8217 -0.8031 -0.0089
 3639SOL     OW11104   1.364   4.258   2.861  0.2682 -0.1402 -0.5959
 3639SOL    HW111105   1.273   4.282   2.877  0.1065 -0.8293 -0.4878
 3639SOL    HW211106   1.360   4.188   2.796  0.7830  0.7247 -1.5956
 3640SOL     OW11107   0.245   3.210   2.593 -0.7679  0.2302 -0.5878
 3640SOL    HW111108   0.305   3.135   2.596 -0.5151  0.4624  1.8448
 3640SOL    HW211109   0.267   3.253   2.510  3.0833  0.7379  0.4618
 3641SOL     OW11110   0.469   2.031   0.487 -0.3150 -0.4846 -0.3916
 3641SOL    HW111111   0.541   2.091   0.474  0.1515 -0.6050  1.3841
 3641SOL    HW211112   0.439   2.048   0.576 -0.3317 -2.6827  0.0806
 3642SOL     OW11113   4.841   0.065   3.213  0.8630  0.8789 -0.5410
 3642SOL    HW111114   4.925   0.112   3.219  1.2048  0.1643  0.7126
 3642SOL    HW211115   4.820   0.042   3.304 -0.3053  0.3611 -0.9227
 3643SOL     OW11116   0.150   0.317   4.200  0.7031  0.2831 -0.4042
 3643SOL    HW111117   0.112   0.282   4.281 -0.8483 -0.2187 -1.3209
 3643SOL    HW211118   0.082   0.307   4.135  1.9604  0.6127 -1.8245
 3644SOL     OW11119   0.242   0.358   1.585 -0.0595 -0.3188  0.0625
 3644SOL    HW111120   0.149   0.380   1.579 -0.4499 -1.0923  2.3106
 3644SOL    HW211121   0.245   0.263   1.582  0.7576 -0.2785 -0.8561
 3645SOL     OW11122   0.502   3.233   2.948  0.1245  0.0175 -0.2302
 3645SOL    HW111123   0.522   3.259   2.858 -2.9273 -0.8123 -1.2825
 3645SOL    HW211124   0.517   3.139   2.949  1.5381  0.2230  0.6203
 3646SOL     OW11125   0.828   1.439   3.293 -0.2687  0.6762 -0.8987
 3646SOL    HW111126   0.887   1.398   3.356 -0.9302  1.2117  0.1193
 3646SOL    HW211127   0.808   1.371   3.229  0.2597  0.0482 -0.4000
 3647SOL     OW11128   2.782   3.123   3.101  0.3743 -0.1657 -0.2130
 3647SOL    HW111129   2.810   3.210   3.073  0.6211 -0.3547 -0.5634
 3647SOL    HW211130   2.782   3.071   3.020 -1.8255  0.0326 -0.3965
 3648SOL     OW11131   3.458   2.925   4.369 -0.5565 -0.6157  0.4335
 3648SOL    HW111132   3.393   2.884   4.426  0.4329 -2.6911  0.1798
 3648SOL    HW211133   3.542   2.897   4.406  0.1287 -0.5163 -0.9956
 3649SOL     OW11134   1.185   4.240   1.915  0.1614 -0.1909 -0.1000
 3649SOL    HW111135   1.202   4.149   1.938  2.3013  0.0995 -0.3313
 3649SOL    HW211136   1.208   4.246   1.822  0.5421  0.6803  0.0393
 3650SOL     OW11137   3.598   0.636   2.606  0.1927 -0.5445  0.0036
 3650SOL    HW111138   3.635   0.554   2.639  0.1570  0.4432  2.7734
 3650SOL    HW211139   3.670   0.677   2.557  0.4642 -1.8163 -0.6917
 3651SOL     OW11140   4.099   4.735   1.455 -0.1005  0.2115 -0.4559
 3651SOL    HW111141   4.138   4.659   1.497  0.9445  0.6324 -0.6413
 3651SOL    HW211142   4.043   4.774   1.523 -1.1614 -1.0615 -0.5615
 3652SOL     OW11143   3.723   2.606   2.814 -0.0554 -0.5101 -0.6753
 3652SOL    HW111144   3.753   2.676   2.872 -1.0062  0.4153 -1.2783
 3652SOL    HW211145   3.737   2.526   2.865  2.1375 -0.0321 -0.4211
 3653SOL     OW11146   2.205   1.119   0.461  0.4710 -0.2007  0.6838
 3653SOL    HW111147   2.197   1.148   0.370  1.0338 -0.0807  0.6681
 3653SOL    HW211148   2.141   1.171   0.509  0.4320  0.0012  0.4133
 3654SOL     OW11149   1.979   0.974   4.262  0.2046  0.3111 -0.0809
 3654SOL    HW111150   2.043   0.938   4.324  0.6098 -0.3627 -0.8786
 3654SOL    HW211151   1.982   1.068   4.278 -0.3358  0.0853  1.5272
 3655SOL     OW11152   4.766   1.070   0.981  0.4185 -0.8164 -0.3136
 3655SOL    HW111153   4.753   0.997   0.920 -0.4345 -0.4223 -0.6243
 3655SOL    HW211154   4.815   1.135   0.930  0.1330 -0.6884 -0.4283
 3656SOL     OW11155   3.298   2.966   2.060 -0.7093  0.2098 -0.2511
 3656SOL    HW111156   3.318   2.880   2.097  0.7609  1.0028  0.8805
 3656SOL    HW211157   3.352   2.971   1.981  1.5322  1.2081  1.2622
 3657SOL     OW11158   0.327   4.664   0.376 -0.4924 -0.2225 -0.7560
 3657SOL    HW111159   0.381   4.619   0.311 -0.9527 -0.0379 -1.2756
 3657SOL    HW211160   0.351   4.623   0.460  1.6203  0.9699 -0.7274
 3658SOL     OW11161   3.042   4.653   4.139  0.0506 -0.3126 -0.3872
 3658SOL    HW111162   3.074   4.603   4.063  0.1852 -3.2079  1.4280
 3658SOL    HW211163   2.951   4.627   4.148  0.5918 -1.6752  1.6273
 3659SOL     OW11164   3.663   1.577   2.513 -0.8509  0.0797  0.4011
 3659SOL    HW111165   3.677   1.485   2.536 -2.7545  0.0208  1.5440
 3659SOL    HW211166   3.637   1.574   2.421  0.9972 -0.2980 -0.1425
 3660SOL     OW11167   2.082   2.324   2.773  0.2661 -0.0664 -0.1120
 3660SOL    HW111168   2.091   2.411   2.735  0.4970 -0.7944 -1.8148
 3660SOL    HW211169   2.152   2.319   2.838  1.4062  0.3975 -1.2595
 3661SOL     OW11170   3.577   1.818   3.917 -0.1247  0.7548  0.2810
 3661SOL    HW111171   3.563   1.912   3.933 -1.4522  0.6599 -0.1992
 3661SOL    HW211172   3.604   1.813   3.825  2.3035  0.8354  0.9143
 3662SOL     OW11173   0.549   3.525   0.672  0.1726 -0.2270  0.0044
 3662SOL    HW111174   0.595   3.598   0.630  1.0420 -0.7827 -0.0290
 3662SOL    HW211175   0.616   3.457   0.683 -0.5326 -0.8770  0.3894
 3663SOL     OW11176   4.841   4.814   2.663  0.1675  0.5474 -0.7517
 3663SOL    HW111177   4.893   4.774   2.733 -0.1027  0.6990 -0.4642
 3663SOL    HW211178   4.762   4.847   2.706  0.2717  1.1769 -1.0234
 3664SOL     OW11179   2.924   4.392   0.144 -0.1898 -0.5556 -0.0008
 3664SOL    HW111180   2.980   4.397   0.221 -0.8681 -1.3727  0.5726
 3664SOL    HW211181   2.862   4.464   0.155  0.9593  0.5869 -0.8320
 3665SOL     OW11182   4.237   4.707   0.327 -0.0455  0.2701 -0.1173
 3665SOL    HW111183   4.268   4.796   0.348 -0.1069  0.0123  1.0944
 3665SOL    HW211184   4.316   4.661   0.298  0.2520  0.3374  0.5671
 3666SOL     OW11185   3.970   2.727   3.597  0.1298  0.0623  0.1476
 3666SOL    HW111186   4.037   2.793   3.616 -0.6291  0.8598  0.0751
 3666SOL    HW211187   3.899   2.775   3.556 -1.5403 -0.3174  2.4020
 3667SOL     OW11188   0.354   3.079   1.669  0.3294 -0.8870  0.0219
 3667SOL    HW111189   0.419   3.029   1.621 -0.0931  0.8871 -2.6268
 3667SOL    HW211190   0.298   3.118   1.601 -2.2939 -0.7097  2.0850
 3668SOL     OW11191   3.439   0.336   0.402  0.0534 -0.3502 -0.5783
 3668SOL    HW111192   3.389   0.312   0.480 -1.0938  0.2999 -1.0790
 3668SOL    HW211193   3.505   0.268   0.393  0.9124  0.1152  1.5601
 3669SOL     OW11194   4.739   3.825   1.423 -0.2819 -0.4279 -0.1002
 3669SOL    HW111195   4.827   3.837   1.458 -0.8737 -0.3374  1.3930
 3669SOL    HW211196   4.738   3.734   1.391 -0.2379 -1.0882  1.6780
 3670SOL     OW11197   3.719   0.168   3.295 -0.1129  0.3103 -0.4796
 3670SOL    HW111198   3.625   0.182   3.309 -0.1331  1.0225 -1.2655
 3670SOL    HW211199   3.745   0.238   3.235  1.1955  0.9148  0.7235
 3671SOL     OW11200   3.385   1.712   2.499  0.1260  0.0908  0.3452
 3671SOL    HW111201   3.370   1.784   2.560 -1.6450  0.2951 -0.2715
 3671SOL    HW211202   3.347   1.635   2.542  0.0557 -0.0308  0.0711
 3672SOL     OW11203   2.037   4.440   1.897  0.4494 -0.8198 -0.1024
 3672SOL    HW111204   2.100   4.512   1.888 -2.1073  1.4069 -2.2723
 3672SOL    HW211205   2.020   4.434   1.991  0.3150  1.9620  0.1357
 3673SOL     OW11206   3.472   2.311   0.537  0.4554 -0.2186 -0.1479
 3673SOL    HW111207   3.459   2.367   0.460 -0.5057  3.1959  2.2675
 3673SOL    HW211208   3.563   2.325   0.562  0.5826 -0.8113 -0.2582
 3674SOL     OW11209   2.780   1.928   2.202 -0.3423  0.2732  0.0340
 3674SOL    HW111210   2.749   1.877   2.277 -0.2444  0.4259  0.1794
 3674SOL    HW211211   2.781   1.866   2.129 -0.4161  0.1193  0.1642
 3675SOL     OW11212   2.629   1.367   3.519  0.1015  0.0729  0.1329
 3675SOL    HW111213   2.582   1.296   3.476  0.1921  0.3381 -0.4104
 3675SOL    HW211214   2.607   1.445   3.469 -1.4136  0.7645  1.7526
 3676SOL     OW11215   4.485   2.818   1.612  0.1585  0.4751 -0.3235
 3676SOL    HW111216   4.414   2.850   1.557  1.0510  0.6131 -1.4145
 3676SOL    HW211217   4.493   2.725   1.590 -0.9005 -0.0158  1.1708
 3677SOL     OW11218   1.531   1.125   2.224 -0.4056 -0.4468  0.1516
 3677SOL    HW111219   1.615   1.162   2.252 -0.4905  0.8318 -1.1621
 3677SOL    HW211220   1.466   1.187   2.259 -0.6665 -0.3412 -0.5072
 3678SOL     OW11221   0.875   2.636   0.107  0.4260 -0.4756  1.1758
 3678SOL    HW111222   0.898   2.631   0.014  2.3555 -1.8151  1.6467
 3678SOL    HW211223   0.819   2.713   0.114 -0.7010 -0.9789 -1.2616
 3679SOL     OW11224   0.764   2.327   2.712  0.3277  0.2367  0.4442
 3679SOL    HW111225   0.842   2.381   2.726 -0.9001  1.9591  0.9935
 3679SOL    HW211226   0.701   2.359   2.777 -0.7854 -1.2266  0.1259
 3680SOL     OW11227   1.482   0.340   0.921 -0.2867 -0.6666  0.4397
 3680SOL    HW111228   1.455   0.321   1.011 -1.8300  1.8440  0.6227
 3680SOL    HW211229   1.524   0.426   0.927 -0.6238 -0.3523 -1.2349
 3681SOL     OW11230   0.875   4.260   4.866  0.4266 -0.1002  0.3115
 3681SOL    HW111231   0.847   4.169   4.872 -0.4557  0.2706  3.7138
 3681SOL    HW211232   0.960   4.261   4.910  1.2342  0.4863 -1.1994
 3682SOL     OW11233   3.015   2.616   3.825 -0.2007 -0.2036  0.2954
 3682SOL    HW111234   3.096   2.567   3.836  0.3490  0.1708 -1.6736
 3682SOL    HW211235   2.950   2.550   3.802  0.2966 -0.1885 -1.2741
 3683SOL     OW11236   1.179   3.005   0.276  0.5608  0.5574  0.1781
 3683SOL    HW111237   1.142   2.929   0.320  2.1528 -1.3592 -1.5969
 3683SOL    HW211238   1.143   3.003   0.188  2.0911  0.7116 -0.4872
 3684SOL     OW11239   1.650   0.178   4.906 -0.5393  0.2682  0.1025
 3684SOL    HW111240   1.574   0.133   4.942 -0.3234  0.2227  0.5000
 3684SOL    HW211241   1.720   0.113   4.907  0.0141  0.8446  1.4908
 3685SOL     OW11242   2.974   2.729   1.101 -0.1325 -0.6761 -0.0284
 3685SOL    HW111243   2.963   2.655   1.041 -0.7589 -0.0724 -0.6640
 3685SOL    HW211244   3.021   2.691   1.176  0.5202 -1.4653 -0.8176
 3686SOL     OW11245   2.299   2.339   4.844 -0.4343 -0.4759  0.2632
 3686SOL    HW111246   2.212   2.334   4.882  0.0747 -0.5802  1.4444
 3686SOL    HW211247   2.350   2.272   4.890  0.4731  0.1276  0.1595
 3687SOL     OW11248   0.880   4.929   2.336  0.3580  0.6097 -0.1793
 3687SOL    HW111249   0.932   4.963   2.410 -0.1229  0.9625  0.0048
 3687SOL    HW211250   0.804   4.888   2.378  0.7069 -0.3113 -0.4251
 3688SOL     OW11251   3.394   1.133   3.111 -0.2225 -0.1417  0.0381
 3688SOL    HW111252   3.477   1.178   3.123  0.2679 -1.1155  0.4224
 3688SOL    HW211253   3.390   1.071   3.184 -1.1564 -0.2944 -0.1337
 3689SOL     OW11254   2.862   2.363   1.282 -0.2604 -0.0196 -0.1575
 3689SOL    HW111255   2.826   2.320   1.204  2.1437 -1.0082 -0.8185
 3689SOL    HW211256   2.947   2.397   1.253 -0.2320  1.4447  1.5099
 3690SOL     OW11257   1.669   2.734   2.266  0.4818 -0.0882 -0.2189
 3690SOL    HW111258   1.582   2.745   2.304  0.9795 -0.1551  0.9963
 3690SOL    HW211259   1.698   2.648   2.297  1.3474  0.3330  0.1965
 3691SOL     OW11260   3.333   3.994   4.264 -0.0764  0.0194  0.0640
 3691SOL    HW111261   3.410   3.938   4.266  0.6593  0.7691 -2.6870
 3691SOL    HW211262   3.262   3.937   4.235 -0.3222 -0.4100  1.4657
 3692SOL     OW11263   2.430   1.605   3.810 -0.3527  0.1199  0.4766
 3692SOL    HW111264   2.406   1.524   3.855  0.0698 -0.0090  0.4737
 3692SOL    HW211265   2.495   1.646   3.868  2.2269 -1.3259 -1.1918
 3693SOL     OW11266   3.001   0.010   0.130  0.2987  0.4305  0.5946
 3693SOL    HW111267   2.958   0.074   0.074 -1.5405  0.1913  1.6448
 3693SOL    HW211268   3.035  -0.056   0.070  1.8943  2.1264 -0.4849
 3694SOL     OW11269   4.477   4.478   2.420  0.3388 -0.1525 -0.9690
 3694SOL    HW111270   4.565   4.451   2.392 -0.1864 -1.7171 -1.2179
 3694SOL    HW211271   4.490   4.515   2.508  1.4889  1.4216 -1.7573
 3695SOL     OW11272   1.415   1.988   1.950 -0.5926 -0.1921  0.1545
 3695SOL    HW111273   1.371   2.030   1.876 -1.1244 -0.2001  0.4593
 3695SOL    HW211274   1.455   1.910   1.913 -1.1934 -0.4088 -0.0523
 3696SOL     OW11275   0.078   1.362   3.435 -0.3825  0.4680 -0.2211
 3696SOL    HW111276  -0.001   1.355   3.382 -0.7500 -1.4331  0.4989
 3696SOL    HW211277   0.046   1.375   3.525  0.1374  0.3272 -0.0101
 3697SOL     OW11278   4.856   3.223   0.616  0.4157  0.1808  0.2201
 3697SOL    HW111279   4.950   3.209   0.624  0.6829  1.6641 -0.0182
 3697SOL    HW211280   4.846   3.280   0.540 -0.6588  0.2036  0.3546
 3698SOL     OW11281   4.145   3.336   3.904 -0.1467  0.5093 -0.4367
 3698SOL    HW111282   4.089   3.270   3.864  1.9999 -0.9320 -1.2448
 3698SOL    HW211283   4.206   3.286   3.958  0.5282  1.9881  0.2313
 3699SOL     OW11284   2.386   4.261   1.872 -0.3362 -0.0071 -0.2657
 3699SOL    HW111285   2.372   4.353   1.847  0.5077  0.2199  0.0858
 3699SOL    HW211286   2.301   4.220   1.857 -1.3152  1.2541  1.4490
 3700SOL     OW11287   0.029   4.721   2.884  0.0253  1.0564  0.4488
 3700SOL    HW111288  -0.045   4.669   2.916  0.7944  0.6146  1.5713
 3700SOL    HW211289   0.101   4.700   2.944  1.2984  0.8766 -1.0757
 3701SOL     OW11290   3.068   0.316   0.197  0.3129 -0.4667  0.1509
 3701SOL    HW111291   3.080   0.225   0.224  0.9642  0.2247  2.3839
 3701SOL    HW211292   3.022   0.357   0.271  0.3995  1.1057 -0.6325
 3702SOL     OW11293   0.934   3.981   4.010  0.0657  0.3605  0.2064
 3702SOL    HW111294   0.978   4.005   4.092  0.9611  0.1595 -0.2052
 3702SOL    HW211295   0.998   3.927   3.963 -1.1172 -1.0709  0.1722
 3703SOL     OW11296   3.630   3.804   1.710  0.4326  0.1750  0.0411
 3703SOL    HW111297   3.616   3.897   1.691  1.0756  0.2823  0.0710
 3703SOL    HW211298   3.642   3.801   1.805 -2.8034 -0.3630  0.5520
 3704SOL     OW11299   2.743   4.799   0.370 -0.2172  0.4235  0.1171
 3704SOL    HW111300   2.720   4.890   0.386 -0.8455  0.2799  0.0524
 3704SOL    HW211301   2.756   4.761   0.457 -3.1552 -0.2389  0.3743
 3705SOL     OW11302   2.153   3.756   1.867  0.2092 -0.6289  0.1314
 3705SOL    HW111303   2.132   3.827   1.807  0.3288  0.4524  1.3511
 3705SOL    HW211304   2.240   3.778   1.902 -0.7865 -0.0265  2.4063
 3706SOL     OW11305   3.733   4.455   2.826  0.2830 -0.1224 -0.0806
 3706SOL    HW111306   3.653   4.479   2.779  0.9514 -1.9876 -2.3641
 3706SOL    HW211307   3.804   4.493   2.775  0.9883 -0.7887  0.3719
 3707SOL     OW11308   3.662   3.393   2.988  0.5710 -0.7481  0.0299
 3707SOL    HW111309   3.589   3.451   3.009 -0.6981 -2.2852  0.0505
 3707SOL    HW211310   3.741   3.444   3.009 -0.5139  0.1719  2.1363
 3708SOL     OW11311   1.806   3.821   2.118 -0.0186 -0.1160 -0.3137
 3708SOL    HW111312   1.900   3.805   2.123 -0.1173 -0.6470 -0.0697
 3708SOL    HW211313   1.766   3.736   2.138 -0.5493  0.1394 -0.2688
 3709SOL     OW11314   3.386   1.285   0.411  0.1725  0.2893 -0.6516
 3709SOL    HW111315   3.314   1.294   0.348 -1.3218 -0.3309  0.8947
 3709SOL    HW211316   3.454   1.237   0.363 -0.6892  0.3261 -1.9563
 3710SOL     OW11317   0.433   4.573   4.094 -0.4393 -0.0604 -0.3139
 3710SOL    HW111318   0.356   4.546   4.043 -1.0109  0.1283  0.4270
 3710SOL    HW211319   0.442   4.505   4.161 -0.7222  0.5616  0.3669
 3711SOL     OW11320   0.465   3.264   0.820 -0.3590  0.3546 -0.0898
 3711SOL    HW111321   0.523   3.290   0.892 -1.2424  1.4690  0.2507
 3711SOL    HW211322   0.453   3.344   0.769 -1.4855  0.1204 -0.2153
 3712SOL     OW11323   0.631   0.767   2.372 -0.3550 -0.6084 -0.0456
 3712SOL    HW111324   0.624   0.777   2.277 -0.3590 -1.3380 -0.1309
 3712SOL    HW211325   0.541   0.771   2.404 -0.5624 -2.3166 -0.3023
 3713SOL     OW11326   0.635   2.393   0.079  0.5226 -0.0979 -0.0157
 3713SOL    HW111327   0.609   2.413  -0.011 -0.2125  0.3530  0.2853
 3713SOL    HW211328   0.730   2.405   0.080  0.4597  0.4872 -0.5845
 3714SOL     OW11329   1.015   0.403   0.791 -0.1318  0.0380  0.8964
 3714SOL    HW111330   1.097   0.367   0.824  0.6215 -0.4399 -1.2983
 3714SOL    HW211331   0.957   0.328   0.783 -0.0466  0.0163  0.4434
 3715SOL     OW11332   4.587   4.830   2.187  0.2804  0.4635  0.5739
 3715SOL    HW111333   4.654   4.816   2.255 -1.3352 -1.3041  1.8895
 3715SOL    HW211334   4.570   4.924   2.190  1.1812  0.6205  1.6873
 3716SOL     OW11335   0.876   0.183   1.015  0.1425 -0.0453 -0.5578
 3716SOL    HW111336   0.831   0.260   1.050  0.8303  0.1645 -0.1180
 3716SOL    HW211337   0.862   0.188   0.921  0.4187  0.7747 -0.5624
 3717SOL     OW11338   4.778   0.812   3.806  0.6600 -0.8203  0.0120
 3717SOL    HW111339   4.752   0.812   3.714 -1.9722  0.4172  0.6534
 3717SOL    HW211340   4.762   0.722   3.836  0.9234 -1.0621 -0.5545
 3718SOL     OW11341   1.749   2.932   3.817 -0.1822 -0.4441 -0.5340
 3718SOL    HW111342   1.795   2.956   3.898  0.8022  1.9296 -1.6956
 3718SOL    HW211343   1.738   2.837   3.823 -2.1284 -0.1575  3.3749
 3719SOL     OW11344   1.759   1.330   1.652  0.2230  0.0707 -0.3689
 3719SOL    HW111345   1.837   1.322   1.597 -0.7484 -1.7963 -1.5716
 3719SOL    HW211346   1.788   1.301   1.739  1.1535  0.6004 -0.4909
 3720SOL     OW11347   4.388   1.980   3.673 -0.3998 -0.4846 -0.1833
 3720SOL    HW111348   4.375   2.041   3.601 -0.2788 -0.4352 -0.1628
 3720SOL    HW211349   4.477   1.947   3.661 -0.0506  0.1933  0.4525
 3721SOL     OW11350   0.556   4.315   0.447  0.1525  0.0570 -0.3907
 3721SOL    HW111351   0.627   4.277   0.499 -0.9793 -0.5372  0.7633
 3721SOL    HW211352   0.570   4.280   0.359  0.8003 -0.7521  0.0165
 3722SOL     OW11353   3.664   2.115   4.675 -0.3260 -0.3161 -0.3281
 3722SOL    HW111354   3.586   2.170   4.674 -0.2508 -0.2212 -1.2641
 3722SOL    HW211355   3.630   2.026   4.683 -0.4372 -0.1541  1.5541
 3723SOL     OW11356   2.808   2.838   2.339 -0.4798  0.0443  0.0186
 3723SOL    HW111357   2.810   2.745   2.361  1.4586  0.3493  1.3808
 3723SOL    HW211358   2.766   2.842   2.253 -0.7740 -2.0422  0.0267
 3724SOL     OW11359   0.389   2.706   1.443 -0.2232  0.3383  0.0550
 3724SOL    HW111360   0.320   2.641   1.459  0.1385 -0.1550 -0.3389
 3724SOL    HW211361   0.470   2.654   1.441  0.0182  0.7397 -0.7643
 3725SOL     OW11362   1.433   3.763   0.689  0.8059 -0.0499  0.1565
 3725SOL    HW111363   1.468   3.765   0.600  1.7777 -0.4099  0.5253
 3725SOL    HW211364   1.391   3.677   0.697 -1.2162  0.7969 -0.6563
 3726SOL     OW11365   3.500   0.812   2.867 -0.1878 -0.5758  0.0404
 3726SOL    HW111366   3.505   0.724   2.829  0.4640 -0.3719 -0.3623
 3726SOL    HW211367   3.589   0.831   2.895 -0.6518 -0.7520  1.7955
 3727SOL     OW11368   1.746   2.996   3.016 -0.1528  0.1251 -0.0573
 3727SOL    HW111369   1.694   3.077   3.016 -1.6447 -0.7832 -0.4241
 3727SOL    HW211370   1.699   2.939   2.955  1.9688 -0.3626 -1.3221
 3728SOL     OW11371   2.994   2.434   0.206 -0.2482 -0.4638  0.4329
 3728SOL    HW111372   2.976   2.345   0.177 -1.3015 -0.7721  1.9259
 3728SOL    HW211373   2.909   2.467   0.237  0.1123  1.0764 -0.1143
 3729SOL     OW11374   0.463   1.339   3.207  0.4701 -0.3531  0.4119
 3729SOL    HW111375   0.412   1.363   3.284  0.6960 -0.2521  0.5291
 3729SOL    HW211376   0.509   1.259   3.232  1.4685  0.3225  0.7938
 3730SOL     OW11377   2.884   1.544   4.696 -0.0992  0.0746  0.0221
 3730SOL    HW111378   2.862   1.575   4.608 -1.1055  1.6799  0.7969
 3730SOL    HW211379   2.928   1.618   4.738  0.0998 -0.5663  0.9893
 3731SOL     OW11380   4.227   3.405   4.222  0.5714  0.3717 -0.0435
 3731SOL    HW111381   4.294   3.471   4.203  0.1353  0.2650 -2.2467
 3731SOL    HW211382   4.269   3.322   4.202  0.6224  0.0730  1.2328
 3732SOL     OW11383   2.941   4.875   3.301 -0.5107  0.1684  0.2882
 3732SOL    HW111384   2.856   4.845   3.333 -0.4558 -0.6003 -0.2624
 3732SOL    HW211385   2.992   4.892   3.381 -0.7946 -0.5048  0.6177
 3733SOL     OW11386   4.326   4.770   3.534 -0.2424 -0.7496  0.0392
 3733SOL    HW111387   4.373   4.843   3.493 -2.1751  0.7943  0.4581
 3733SOL    HW211388   4.283   4.725   3.461 -1.2618  0.2002  0.0405
 3734SOL     OW11389   2.724   0.844   0.448  1.0507  0.0792  0.1909
 3734SOL    HW111390   2.733   0.933   0.484  2.8792 -0.4055  1.0692
 3734SOL    HW211391   2.738   0.855   0.354 -1.0062  0.9974 -0.0558
 3735SOL     OW11392   3.161   2.790   0.130 -0.2332  0.1672  0.2120
 3735SOL    HW111393   3.218   2.724   0.091 -1.1354 -0.7139  0.3621
 3735SOL    HW211394   3.174   2.868   0.076 -0.8593 -0.7927 -1.3898
 3736SOL     OW11395   3.576   1.578   1.595 -0.5176  0.0683 -0.6226
 3736SOL    HW111396   3.492   1.546   1.630 -0.8083  1.5730  0.1869
 3736SOL    HW211397   3.631   1.500   1.588 -1.7008 -0.8235 -0.3156
 3737SOL     OW11398   4.533   4.585   2.675  0.1719 -0.7037  0.2760
 3737SOL    HW111399   4.575   4.522   2.734 -0.2050 -1.3079 -0.0913
 3737SOL    HW211400   4.454   4.612   2.722  0.9587  0.4419  0.9712
 3738SOL     OW11401   4.540   2.731   1.850  0.4407 -0.1868 -0.1020
 3738SOL    HW111402   4.505   2.775   1.773  0.1457  0.4089  0.3560
 3738SOL    HW211403   4.473   2.668   1.875  0.6578 -0.5756 -0.4890
 3739SOL     OW11404   2.859   3.354   2.999  0.1938  0.4719 -0.1328
 3739SOL    HW111405   2.909   3.316   2.926 -0.0519 -0.2462  0.0628
 3739SOL    HW211406   2.892   3.443   3.006 -0.8845  1.1017 -2.1382
 3740SOL     OW11407   1.068   4.918   2.748 -0.1183 -0.1737 -0.4215
 3740SOL    HW111408   1.040   4.852   2.810  0.8333  0.8260  1.1409
 3740SOL    HW211409   1.027   4.999   2.779 -0.4171  0.1847 -1.6837
 3741SOL     OW11410   4.416   4.830   4.852  0.6062 -0.5469 -0.0353
 3741SOL    HW111411   4.391   4.921   4.870 -0.8673 -0.8912 -0.1755
 3741SOL    HW211412   4.368   4.808   4.772  1.0642 -1.3987 -0.0815
 3742SOL     OW11413   4.297   0.226   2.565 -0.6923 -0.1642  0.1806
 3742SOL    HW111414   4.304   0.186   2.478 -1.3501  1.2380 -0.5549
 3742SOL    HW211415   4.378   0.276   2.574 -1.0069  0.3941 -0.0180
 3743SOL     OW11416   1.781   2.083   3.552  0.6394 -0.1077  0.3092
 3743SOL    HW111417   1.792   2.178   3.556 -2.0510  0.2674  0.6524
 3743SOL    HW211418   1.847   2.055   3.488  1.5539  1.9523  0.2473
 3744SOL     OW11419   0.551   3.434   2.715  0.4190 -0.0844  0.0673
 3744SOL    HW111420   0.503   3.404   2.637  1.4364 -1.3255 -0.1216
 3744SOL    HW211421   0.643   3.432   2.689  0.6101  3.0792  0.1454
 3745SOL     OW11422   0.583   2.268   0.326 -0.0059  0.7642  0.3088
 3745SOL    HW111423   0.609   2.326   0.254  2.5218 -1.3008 -0.6127
 3745SOL    HW211424   0.655   2.205   0.333 -2.5094 -2.2825  1.1996
 3746SOL     OW11425   4.438   4.237   3.337 -0.4195  0.3867 -0.2283
 3746SOL    HW111426   4.416   4.153   3.297 -1.0797 -0.1564  1.1907
 3746SOL    HW211427   4.356   4.286   3.335 -0.7223 -0.0114  1.2464
 3747SOL     OW11428   3.695   2.097   3.005  0.6268  0.2008  0.0827
 3747SOL    HW111429   3.608   2.101   2.965  0.8685  0.2527 -0.4396
 3747SOL    HW211430   3.746   2.041   2.947  0.6095 -0.8220  1.0225
 3748SOL     OW11431   4.565   2.566   2.877  0.3991 -0.0438  0.2063
 3748SOL    HW111432   4.516   2.555   2.796  0.5322 -1.5272  0.2904
 3748SOL    HW211433   4.649   2.603   2.850  0.5152 -0.7104 -0.3756
 3749SOL     OW11434   4.376   1.105   2.174  0.3693  0.1562  0.1670
 3749SOL    HW111435   4.295   1.110   2.225  0.9525  1.3710  1.0280
 3749SOL    HW211436   4.355   1.145   2.090  0.4931  2.0872  1.0046
 3750SOL     OW11437   2.367   4.259   3.834 -0.6156 -0.1591  0.3064
 3750SOL    HW111438   2.436   4.232   3.774  0.2008  0.4557  0.9578
 3750SOL    HW211439   2.289   4.213   3.803 -0.6290  1.4357 -2.2539
 3751SOL     OW11440   3.320   0.038   0.253 -0.0005  0.1462 -0.6723
 3751SOL    HW111441   3.253   0.074   0.195  0.6969  2.4777 -0.1049
 3751SOL    HW211442   3.403   0.065   0.214  0.5073  0.5263  0.6321
 3752SOL     OW11443   4.528   1.585   3.024  0.0959 -0.2830 -0.1010
 3752SOL    HW111444   4.470   1.648   3.065  0.4644 -0.4115  0.6282
 3752SOL    HW211445   4.480   1.555   2.947 -0.3253  0.4462 -0.1311
 3753SOL     OW11446   4.707   2.610   3.360 -1.1159 -0.1360  0.5287
 3753SOL    HW111447   4.661   2.614   3.276  0.6164  0.4373 -0.4296
 3753SOL    HW211448   4.728   2.701   3.380 -1.1675 -0.3109  1.3932
 3754SOL     OW11449   3.887   2.929   0.634  0.4206  0.5856 -0.0910
 3754SOL    HW111450   3.969   2.922   0.683  0.3466 -1.3447 -0.1932
 3754SOL    HW211451   3.820   2.899   0.696  0.2084 -0.9465 -1.0254
 3755SOL     OW11452   4.780   0.613   0.944 -0.3309 -0.4059  0.3258
 3755SOL    HW111453   4.686   0.594   0.941 -0.8626  1.8730  0.8395
 3755SOL    HW211454   4.786   0.695   0.993  1.6727  1.0289 -2.1249
 3756SOL     OW11455   4.046   1.016   3.824  0.0342  0.1384  0.0501
 3756SOL    HW111456   4.067   1.071   3.748 -1.0075  1.3179  0.5818
 3756SOL    HW211457   3.975   0.960   3.794  0.7248 -0.5695 -0.3208
 3757SOL     OW11458   0.266   4.010   3.437  0.4408 -0.2966  1.0554
 3757SOL    HW111459   0.326   3.936   3.442 -0.9463 -1.4670  1.3847
 3757SOL    HW211460   0.212   3.992   3.359  0.9974  1.1328  0.2978
 3758SOL     OW11461   3.149   0.515   2.907 -0.0341  0.0496 -0.1845
 3758SOL    HW111462   3.137   0.558   2.822 -0.8860 -0.9887 -0.6073
 3758SOL    HW211463   3.162   0.588   2.968  1.4094  0.7912 -1.3062
 3759SOL     OW11464   3.261   3.811   0.589 -0.3675 -0.6856 -0.2582
 3759SOL    HW111465   3.326   3.880   0.578 -1.5214  0.3944 -0.6565
 3759SOL    HW211466   3.293   3.759   0.662 -0.1682  1.1597  1.0619
 3760SOL     OW11467   0.438   4.355   0.873  0.1772 -0.1301 -0.4287
 3760SOL    HW111468   0.488   4.416   0.818 -0.2121 -1.0857 -1.9002
 3760SOL    HW211469   0.497   4.336   0.946  1.3049  0.0758 -1.2430
 3761SOL     OW11470   0.193   3.408   1.623  0.4231 -0.3404  0.5004
 3761SOL    HW111471   0.139   3.381   1.549  0.3575 -2.4564  1.2250
 3761SOL    HW211472   0.134   3.402   1.699  1.1305 -0.7194  1.0370
 3762SOL     OW11473   3.986   2.158   3.978  0.0007 -0.1725  0.2199
 3762SOL    HW111474   4.018   2.152   3.888  0.0358  1.2530  0.1051
 3762SOL    HW211475   3.998   2.071   4.014  1.9009 -0.2700 -0.5281
 3763SOL     OW11476   1.819   4.411   2.612 -0.3660 -0.1941 -0.3248
 3763SOL    HW111477   1.789   4.414   2.522  1.2521  2.2786 -0.8732
 3763SOL    HW211478   1.911   4.384   2.607 -0.5391 -1.0501  0.6901
 3764SOL     OW11479   3.744   2.068   3.656 -0.1799 -0.1789 -0.5644
 3764SOL    HW111480   3.730   2.067   3.751  2.0624  0.6316 -0.1637
 3764SOL    HW211481   3.713   1.982   3.626 -3.1258  0.4027  0.4774
 3765SOL     OW11482   2.792   4.753   2.065  0.3225  0.1527 -0.4055
 3765SOL    HW111483   2.790   4.743   2.160  0.6329 -0.5303 -0.4644
 3765SOL    HW211484   2.865   4.698   2.037 -0.7430 -0.9215 -1.1841
 3766SOL     OW11485   0.601   4.393   2.903 -0.3019  0.3523 -0.7250
 3766SOL    HW111486   0.685   4.349   2.913 -0.1512  0.5885 -0.9517
 3766SOL    HW211487   0.536   4.322   2.908 -0.1555  0.2836  0.4610
 3767SOL     OW11488   0.854   2.464   3.826 -0.2182 -0.0467  0.0356
 3767SOL    HW111489   0.809   2.450   3.743  1.3046 -2.0078 -0.5158
 3767SOL    HW211490   0.836   2.556   3.847 -1.1699  0.3216 -2.1157
 3768SOL     OW11491   2.504   2.304   3.517 -0.3972  0.1733 -0.2179
 3768SOL    HW111492   2.500   2.268   3.606 -0.4360 -2.2860 -1.1303
 3768SOL    HW211493   2.422   2.278   3.477 -1.3781  3.1787 -0.3908
 3769SOL     OW11494   1.415   3.316   1.179  0.0185 -0.4072  0.2472
 3769SOL    HW111495   1.477   3.325   1.106  0.5353  1.6461  0.8724
 3769SOL    HW211496   1.471   3.306   1.257 -0.4787 -0.2094  0.6359
 3770SOL     OW11497   4.388   0.564   3.655 -0.5639  0.3877 -0.1180
 3770SOL    HW111498   4.357   0.591   3.741 -0.2124  2.8028 -0.6776
 3770SOL    HW211499   4.310   0.533   3.610 -1.6559  3.1507 -0.3300
 3771SOL     OW11500   4.470   0.756   2.307 -0.2241 -1.1961 -0.0888
 3771SOL    HW111501   4.503   0.797   2.227 -1.1022 -1.0648 -0.4016
 3771SOL    HW211502   4.538   0.770   2.372 -1.1423  2.2989  0.3189
 3772SOL     OW11503   0.890   0.572   0.614 -0.0860 -0.3826 -0.4863
 3772SOL    HW111504   0.940   0.534   0.685  1.1091  1.6176 -0.1583
 3772SOL    HW211505   0.945   0.561   0.537 -0.8115 -1.4185 -0.8756
 3773SOL     OW11506   0.972   1.111   4.851 -0.2259 -0.4573 -0.0514
 3773SOL    HW111507   0.997   1.095   4.760 -0.1096 -0.7847  0.0386
 3773SOL    HW211508   1.018   1.044   4.901  2.0684  1.4624  0.5765
 3774SOL     OW11509   4.420   3.112   1.893  0.0279  0.5926  0.0931
 3774SOL    HW111510   4.419   3.085   1.985 -1.2049 -0.4139 -0.1880
 3774SOL    HW211511   4.395   3.033   1.845 -1.3222  1.6217 -0.9560
 3775SOL     OW11512   1.278   1.728   4.710 -0.0403 -0.3921 -0.6854
 3775SOL    HW111513   1.280   1.722   4.806  0.6681  0.6853 -0.6174
 3775SOL    HW211514   1.240   1.645   4.682 -0.1553 -0.7703  0.5234
 3776SOL     OW11515   2.289   0.846   0.577 -0.4081  0.0073 -0.1420
 3776SOL    HW111516   2.256   0.931   0.547 -1.4020 -0.1131  0.5718
 3776SOL    HW211517   2.251   0.783   0.517  0.5117  0.0747 -0.8099
 3777SOL     OW11518   4.046   3.757   1.616  0.2190 -0.4013  0.2352
 3777SOL    HW111519   4.061   3.844   1.579 -1.0105 -0.8838 -1.5546
 3777SOL    HW211520   4.059   3.768   1.710  1.6218  1.3452 -0.1140
 3778SOL     OW11521   0.145   3.934   0.947  0.6747 -0.4233 -0.2948
 3778SOL    HW111522   0.155   3.930   0.852  0.8969 -0.8335 -0.2563
 3778SOL    HW211523   0.235   3.924   0.980  0.5955 -0.2971 -0.0417
 3779SOL     OW11524   2.684   1.844   4.459  0.7251 -0.1247 -0.0280
 3779SOL    HW111525   2.741   1.900   4.511 -0.4079  1.4260 -0.3455
 3779SOL    HW211526   2.604   1.897   4.447  1.0617 -0.1594 -3.6642
 3780SOL     OW11527   1.313   4.564   4.721 -0.2056  0.0951 -0.3717
 3780SOL    HW111528   1.287   4.567   4.629  0.4744  1.8474 -0.5332
 3780SOL    HW211529   1.409   4.555   4.718 -0.0455  1.4654  0.1396
 3781SOL     OW11530   2.420   2.540   0.521 -0.1574  0.3469  0.6158
 3781SOL    HW111531   2.450   2.506   0.437 -2.3344 -0.9952  0.3128
 3781SOL    HW211532   2.481   2.503   0.585  1.3821  1.1949 -0.2908
 3782SOL     OW11533   1.048   3.831   2.919 -0.0828 -0.7288 -0.3474
 3782SOL    HW111534   1.093   3.903   2.875 -0.0297 -1.6435 -1.8383
 3782SOL    HW211535   1.109   3.803   2.987 -0.0963  0.5945  0.2415
 3783SOL     OW11536   4.878   1.176   1.771  0.2154 -0.0085  0.3507
 3783SOL    HW111537   4.967   1.211   1.776  0.4771 -0.4796 -0.6813
 3783SOL    HW211538   4.871   1.142   1.681 -0.9167 -0.2087  0.5036
 3784SOL     OW11539   1.288   1.467   1.235 -0.2372 -0.5679  0.2173
 3784SOL    HW111540   1.309   1.405   1.305 -1.0658 -0.5389  0.4964
 3784SOL    HW211541   1.370   1.512   1.217  0.4652 -1.9690 -0.2028
 3785SOL     OW11542   3.554   1.667   0.828  0.2360  0.2558  0.0950
 3785SOL    HW111543   3.537   1.683   0.735 -1.0777  2.9691  0.7024
 3785SOL    HW211544   3.558   1.571   0.835 -1.2545 -0.1083 -2.4888
 3786SOL     OW11545   0.394   1.378   3.967 -0.1777  0.4843  0.2643
 3786SOL    HW111546   0.310   1.386   4.013 -0.7003  0.5135 -0.6848
 3786SOL    HW211547   0.431   1.296   4.000 -1.6878 -0.7907 -1.0377
 3787SOL     OW11548   4.622   3.441   1.674 -0.2567  0.0351  0.7872
 3787SOL    HW111549   4.577   3.500   1.612  0.9004 -1.3559 -1.5033
 3787SOL    HW211550   4.552   3.411   1.732 -1.2035  2.2161  0.8890
 3788SOL     OW11551   1.127   2.787   0.893  0.3407 -0.0692  0.0680
 3788SOL    HW111552   1.078   2.796   0.975 -1.5350 -0.9937 -0.8808
 3788SOL    HW211553   1.103   2.701   0.860  0.2342  0.6683 -1.9218
 3789SOL     OW11554   1.132   4.003   1.397 -0.2928 -0.8586 -0.4143
 3789SOL    HW111555   1.182   3.934   1.439 -1.4091 -0.3884  1.8503
 3789SOL    HW211556   1.191   4.079   1.396 -0.2447 -0.8842  0.3178
 3790SOL     OW11557   0.786   1.973   1.059 -0.2763  0.9947 -0.2629
 3790SOL    HW111558   0.847   1.901   1.073 -0.3648  1.3944  3.1605
 3790SOL    HW211559   0.798   1.998   0.968  0.3140 -2.7771 -1.3579
 3791SOL     OW11560   0.115   3.259   2.002 -0.3039  0.0401 -0.2714
 3791SOL    HW111561   0.058   3.245   1.927  0.4265  1.4210 -1.1308
 3791SOL    HW211562   0.069   3.324   2.055 -0.9884 -1.1942  0.7094
 3792SOL     OW11563   3.619   4.814   1.771  0.2605 -0.1500  0.3667
 3792SOL    HW111564   3.631   4.848   1.682  0.5890  1.9532  1.1539
 3792SOL    HW211565   3.525   4.820   1.787  0.3096  0.4252  0.4829
 3793SOL     OW11566   4.538   4.317   1.779 -0.0354 -0.2353 -0.2955
 3793SOL    HW111567   4.621   4.320   1.826  0.1380 -0.5658 -0.5778
 3793SOL    HW211568   4.493   4.241   1.816 -0.3310  0.1020  0.0497
 3794SOL     OW11569   4.485   3.098   2.686 -0.4741  0.3335  0.0398
 3794SOL    HW111570   4.453   3.185   2.708 -0.0400  0.4651  0.1643
 3794SOL    HW211571   4.429   3.038   2.735 -0.5820  0.5564  0.1878
 3795SOL     OW11572   0.084   1.840   3.344 -0.9871  0.1481 -0.0268
 3795SOL    HW111573   0.047   1.820   3.258 -0.6970  2.2715 -0.7130
 3795SOL    HW211574   0.118   1.929   3.335  0.6266 -0.2196  1.7884
 3796SOL     OW11575   0.556   1.320   1.230 -0.0472 -0.1398 -0.2883
 3796SOL    HW111576   0.468   1.339   1.198 -0.6911 -0.9644  0.9248
 3796SOL    HW211577   0.552   1.230   1.263  0.2227  0.9049  2.9908
 3797SOL     OW11578   0.359   0.240   4.440 -0.4051 -0.4941 -0.0424
 3797SOL    HW111579   0.277   0.233   4.391 -0.4284 -0.1899 -0.0485
 3797SOL    HW211580   0.340   0.199   4.525 -1.0577  1.0177  0.5651
 3798SOL     OW11581   1.384   3.999   0.413 -0.1837  0.3007 -0.1785
 3798SOL    HW111582   1.354   4.003   0.504 -0.6335 -0.7080 -0.2658
 3798SOL    HW211583   1.437   3.920   0.409  1.5391  1.4238 -0.3313
 3799SOL     OW11584   3.150   3.867   0.202 -0.1161 -0.1244 -0.6211
 3799SOL    HW111585   3.069   3.821   0.179  0.2805 -0.0515 -2.2340
 3799SOL    HW211586   3.165   3.928   0.130  0.7093  0.7634  0.2770
 3800SOL     OW11587   2.285   0.408   1.358  0.3782 -0.0710 -0.1348
 3800SOL    HW111588   2.361   0.402   1.300  0.2833 -2.3418 -0.1242
 3800SOL    HW211589   2.310   0.360   1.437 -0.5441  0.4350  0.4929
 3801SOL     OW11590   3.171   1.819   1.245  0.3334  0.6444 -0.3269
 3801SOL    HW111591   3.107   1.787   1.182  1.2933 -2.6509  0.1947
 3801SOL    HW211592   3.255   1.812   1.200  0.8747 -0.4014  0.8019
 3802SOL     OW11593   1.257   2.522   4.342  0.7247 -0.3326 -0.3322
 3802SOL    HW111594   1.264   2.474   4.260  1.6305 -0.0527 -0.4230
 3802SOL    HW211595   1.327   2.587   4.339  0.3331  0.1418  0.3606
 3803SOL     OW11596   1.037   3.506   4.253  0.1331 -0.0486  0.1781
 3803SOL    HW111597   1.035   3.443   4.325 -1.0127 -0.9289 -0.5700
 3803SOL    HW211598   0.986   3.463   4.183  0.1788  1.2880 -0.7097
 3804SOL     OW11599   4.653   0.690   1.990 -0.0113 -0.4976 -0.7025
 3804SOL    HW111600   4.635   0.775   2.032 -1.7151 -1.8803  1.5873
 3804SOL    HW211601   4.581   0.678   1.929 -1.2327 -1.3878  0.8577
 3805SOL     OW11602   2.439   3.130   0.870  0.1911 -0.2049 -0.3264
 3805SOL    HW111603   2.507   3.064   0.861 -1.4977 -2.0378 -0.4318
 3805SOL    HW211604   2.424   3.162   0.781  0.9134  0.2204 -0.2974
 3806SOL     OW11605   4.870   2.784   4.686  0.3034 -0.0770 -0.1923
 3806SOL    HW111606   4.884   2.805   4.779  1.1886 -0.7662 -0.1536
 3806SOL    HW211607   4.843   2.692   4.687 -0.1851  0.0615 -0.5894
 3807SOL     OW11608   0.410   3.000   1.117  0.1882  0.0211 -0.5996
 3807SOL    HW111609   0.411   3.000   1.021 -0.9024 -0.5474 -0.6210
 3807SOL    HW211610   0.330   2.954   1.141  0.3190  0.3700  0.5940
 3808SOL     OW11611   3.584   0.022   3.930 -0.3565  0.0202 -0.0506
 3808SOL    HW111612   3.637   0.004   4.008  0.0857 -0.2252 -0.4014
 3808SOL    HW211613   3.648   0.045   3.862 -0.5496 -1.7565 -0.8909
 3809SOL     OW11614   4.070   1.139   3.565 -0.3273  0.0660  0.1831
 3809SOL    HW111615   4.050   1.223   3.522 -0.7812  0.0441  0.3434
 3809SOL    HW211616   4.086   1.078   3.493 -2.0037 -0.2016 -0.0080
 3810SOL     OW11617   3.472   0.999   1.977  0.2015  0.2282 -0.8420
 3810SOL    HW111618   3.459   1.079   2.029 -0.5344  0.9683 -2.0982
 3810SOL    HW211619   3.384   0.960   1.971  0.9546 -2.2843  2.1263
 3811SOL     OW11620   2.013   0.211   3.065  0.6163  0.5169 -0.6041
 3811SOL    HW111621   2.059   0.177   3.142  0.5750 -1.0013 -1.2169
 3811SOL    HW211622   2.082   0.246   3.009  1.2071 -2.1442 -1.7175
 3812SOL     OW11623   4.390   2.366   2.980  0.3905 -0.1072 -0.7074
 3812SOL    HW111624   4.458   2.421   2.941  0.2578 -0.0146 -0.8110
 3812SOL    HW211625   4.437   2.293   3.019  0.5403 -0.1143 -0.8983
 3813SOL     OW11626   1.705   1.931   3.766 -0.4136  0.3038 -0.0227
 3813SOL    HW111627   1.681   1.989   3.839  3.0821  0.2953  1.3458
 3813SOL    HW211628   1.748   1.988   3.703 -1.0940 -0.1219 -0.8908
 3814SOL     OW11629   0.668   2.886   2.129 -0.4802  1.1310 -0.5355
 3814SOL    HW111630   0.671   2.893   2.034  1.4190  0.8917 -0.5182
 3814SOL    HW211631   0.697   2.971   2.160 -0.9500  1.1567 -0.1485
 3815SOL     OW11632   1.410   3.592   4.419 -0.4452 -0.0011  0.0880
 3815SOL    HW111633   1.471   3.519   4.406 -0.1154  0.0556  1.2279
 3815SOL    HW211634   1.458   3.654   4.472 -1.9027 -0.5284  2.1334
 3816SOL     OW11635   0.575   2.116   0.000 -0.1316  0.2756  1.0374
 3816SOL    HW111636   0.481   2.131  -0.005 -0.0719  0.7318  1.2185
 3816SOL    HW211637   0.612   2.202   0.017  0.5234  0.4897 -1.2741
 3817SOL     OW11638   4.769   2.658   1.255  0.4850  0.1008  0.2754
 3817SOL    HW111639   4.781   2.749   1.228 -0.7165 -0.0258 -0.7959
 3817SOL    HW211640   4.855   2.619   1.245  0.8015  0.8931 -0.2298
 3818SOL     OW11641   3.012   1.656   1.809  1.1405  0.0301 -0.0405
 3818SOL    HW111642   2.977   1.734   1.851  1.0960 -0.5167  0.9766
 3818SOL    HW211643   2.936   1.601   1.792  1.1968  0.0985 -0.5257
 3819SOL     OW11644   2.700   3.054   4.310 -0.1599  0.0808  0.3908
 3819SOL    HW111645   2.746   2.972   4.330  0.3548  0.4595  0.8065
 3819SOL    HW211646   2.637   3.064   4.382  0.6078  0.6449  1.0130
 3820SOL     OW11647   1.080   0.408   4.071  0.0575 -0.0803  0.0634
 3820SOL    HW111648   1.015   0.457   4.021  0.5644  0.0548 -0.4786
 3820SOL    HW211649   1.029   0.349   4.126 -0.5982  1.6756  1.4213
 3821SOL     OW11650   3.315   2.538   2.638 -0.0984 -0.7177  0.5323
 3821SOL    HW111651   3.367   2.607   2.680  1.4903 -2.4058  1.4989
 3821SOL    HW211652   3.246   2.520   2.701 -0.6542  0.1055  0.1793
 3822SOL     OW11653   1.335   4.441   0.398  0.2807 -0.0040 -0.1151
 3822SOL    HW111654   1.299   4.365   0.445  1.0538 -0.2010  0.1728
 3822SOL    HW211655   1.301   4.517   0.446  0.4263 -0.1909  0.2863
 3823SOL     OW11656   1.330   1.277   2.896 -0.4179 -0.0923 -0.3624
 3823SOL    HW111657   1.353   1.334   2.969  0.1115 -0.2336 -0.4166
 3823SOL    HW211658   1.282   1.205   2.936 -0.7531  0.1965 -0.2459
 3824SOL     OW11659   1.299   4.931   1.172 -0.5333  0.0825  0.1034
 3824SOL    HW111660   1.206   4.920   1.152 -0.7075 -0.2622  1.0595
 3824SOL    HW211661   1.343   4.872   1.111 -0.8780  0.7559 -0.8301
 3825SOL     OW11662   4.195   0.078   3.398 -0.7444 -0.3010 -0.3764
 3825SOL    HW111663   4.146   0.111   3.322  1.4009 -1.8431 -2.5896
 3825SOL    HW211664   4.186  -0.017   3.393  0.8953 -0.5163  0.2501
 3826SOL     OW11665   2.146   2.331   1.639 -0.1849  0.0614  0.6778
 3826SOL    HW111666   2.111   2.381   1.565  0.0522 -0.4984  0.1790
 3826SOL    HW211667   2.187   2.254   1.598  0.9713  0.3287  1.2944
 3827SOL     OW11668   1.374   3.259   1.841 -0.4299 -0.0024  0.2201
 3827SOL    HW111669   1.445   3.305   1.885 -0.3883  0.8466 -0.6891
 3827SOL    HW211670   1.297   3.315   1.855 -0.1388  1.0337 -1.8914
 3828SOL     OW11671   0.613   0.183   3.040 -0.2744 -0.3514 -0.1331
 3828SOL    HW111672   0.604   0.115   2.974 -1.9520  0.0638 -0.3600
 3828SOL    HW211673   0.607   0.265   2.990 -0.5699 -0.0389  0.4126
 3829SOL     OW11674   0.622   1.153   2.661 -0.4985  0.3157  0.0124
 3829SOL    HW111675   0.597   1.237   2.700  0.2723  0.4701  0.1924
 3829SOL    HW211676   0.681   1.113   2.725  0.2119  0.2455 -0.6593
 3830SOL     OW11677   4.501   0.008   1.122  0.1635  0.2421 -0.2971
 3830SOL    HW111678   4.472   0.061   1.197  1.0105  0.6454 -0.2438
 3830SOL    HW211679   4.577  -0.041   1.154  0.2272  0.0380 -0.7454
 3831SOL     OW11680   2.632   3.064   2.375 -0.4633  0.1294  0.1233
 3831SOL    HW111681   2.708   3.006   2.375  0.5121  1.3413 -0.9928
 3831SOL    HW211682   2.571   3.023   2.314  0.3328  0.3796 -0.8732
 3832SOL     OW11683   4.130   2.787   0.001 -0.2620  0.3112  0.3232
 3832SOL    HW111684   4.200   2.835  -0.042 -0.1130  0.5581  0.8381
 3832SOL    HW211685   4.118   2.708  -0.053  0.2886  0.3529  0.1390
 3833SOL     OW11686   3.787   3.510   2.557 -0.0811 -0.6959 -0.2604
 3833SOL    HW111687   3.870   3.530   2.601  0.7190  1.9405 -2.6626
 3833SOL    HW211688   3.720   3.522   2.625  1.3051 -0.6966  1.1777
 3834SOL     OW11689   3.555   2.024   4.390 -0.5249 -0.2370 -0.2536
 3834SOL    HW111690   3.557   1.980   4.475  0.7883  0.1921 -0.0251
 3834SOL    HW211691   3.516   2.110   4.408 -0.3117 -0.1729 -0.0894
 3835SOL     OW11692   3.130   0.968   0.073  0.2674  0.4844  0.2896
 3835SOL    HW111693   3.184   0.998  -0.000  0.2991  0.0464  0.1313
 3835SOL    HW211694   3.170   0.886   0.100 -0.8261 -0.3094 -0.4075
 3836SOL     OW11695   2.866   4.307   3.944 -0.4073 -0.5541 -0.0812
 3836SOL    HW111696   2.833   4.237   4.000 -1.1458 -1.9051 -2.0951
 3836SOL    HW211697   2.881   4.265   3.860  0.3960  1.4566 -0.9987
 3837SOL     OW11698   1.133   1.239   0.891  0.2660  0.2756 -0.2825
 3837SOL    HW111699   1.196   1.297   0.848 -2.2090  2.8589 -0.7791
 3837SOL    HW211700   1.130   1.269   0.982  0.7387 -0.7686  0.0889
 3838SOL     OW11701   4.675   0.647   3.325  0.2325 -0.3093 -0.7241
 3838SOL    HW111702   4.635   0.680   3.244 -5.4029 -0.2508  1.5826
 3838SOL    HW211703   4.679   0.724   3.382 -2.3149 -1.3456  1.0366
 3839SOL     OW11704   2.607   1.542   1.285 -0.0901  0.0367  0.0652
 3839SOL    HW111705   2.540   1.515   1.347  1.0631 -1.5925  0.6721
 3839SOL    HW211706   2.644   1.622   1.322 -1.3583  0.6923 -0.0507
 3840SOL     OW11707   1.171   4.080   0.260  0.1551 -0.2462 -0.3510
 3840SOL    HW111708   1.103   4.035   0.312  0.7151 -0.3406  0.3147
 3840SOL    HW211709   1.253   4.052   0.300  0.5964 -0.2327 -1.2351
 3841SOL     OW11710   0.565   2.681   0.703 -0.1345 -0.2058 -0.0680
 3841SOL    HW111711   0.559   2.704   0.796  0.8574  0.2105 -0.0926
 3841SOL    HW211712   0.524   2.754   0.658  1.5586  0.8201 -0.0568
 3842SOL     OW11713   1.494   0.427   3.344 -0.5356  0.0080 -0.5291
 3842SOL    HW111714   1.584   0.405   3.319 -0.5680 -0.3035 -0.3756
 3842SOL    HW211715   1.440   0.374   3.285 -0.6218  0.3450 -0.7562
 3843SOL     OW11716   4.749   4.408   1.925  0.2292 -0.0359  0.1355
 3843SOL    HW111717   4.692   4.481   1.950 -1.0693 -1.6414  2.1456
 3843SOL    HW211718   4.778   4.371   2.008  1.6290 -1.2653 -0.8513
 3844SOL     OW11719   1.163   4.698   1.534  0.2418 -0.4836  0.4041
 3844SOL    HW111720   1.231   4.765   1.539 -0.6876  0.7169 -1.4558
 3844SOL    HW211721   1.209   4.619   1.505  1.0627 -0.1283  0.7035
 3845SOL     OW11722   2.860   0.406   2.525  0.2332  0.2355 -0.0910
 3845SOL    HW111723   2.848   0.428   2.618  1.4421  4.0793 -0.6889
 3845SOL    HW211724   2.787   0.447   2.481  0.6075 -0.0638 -1.0075
 3846SOL     OW11725   1.429   0.300   1.433 -0.2486  0.0968 -0.0284
 3846SOL    HW111726   1.441   0.380   1.484  1.7328  0.4804 -0.9975
 3846SOL    HW211727   1.345   0.265   1.462 -1.5013  2.8561 -0.0603
 3847SOL     OW11728   2.336   0.035   2.010 -0.6299  0.3737 -0.1823
 3847SOL    HW111729   2.395   0.110   2.001 -1.3350  0.9419 -0.1492
 3847SOL    HW211730   2.320   0.006   1.920  0.1974 -0.1865 -0.1587
 3848SOL     OW11731   2.524   3.563   1.525 -0.1632 -0.0354 -0.1867
 3848SOL    HW111732   2.550   3.495   1.463  1.8704 -0.0848  0.6346
 3848SOL    HW211733   2.460   3.521   1.582  0.7008 -1.1249  0.0093
 3849SOL     OW11734   2.426   1.606   3.262 -0.4986 -0.4044 -0.1708
 3849SOL    HW111735   2.441   1.532   3.202 -2.2569 -0.9583 -0.0006
 3849SOL    HW211736   2.374   1.668   3.211 -0.2625  0.0570  0.1442
 3850SOL     OW11737   1.138   3.243   4.206  0.3702  0.5715 -0.2267
 3850SOL    HW111738   1.216   3.234   4.262 -0.0298 -1.2525  0.0912
 3850SOL    HW211739   1.068   3.199   4.254 -0.3748  0.3892 -1.4223
 3851SOL     OW11740   1.150   3.507   4.688 -0.1305  0.1885 -0.8022
 3851SOL    HW111741   1.095   3.434   4.660  0.1068 -0.5601  0.6177
 3851SOL    HW211742   1.142   3.571   4.618 -1.0077 -0.8502 -1.6845
 3852SOL     OW11743   4.353   0.872   2.585  0.5066  0.0482 -0.0949
 3852SOL    HW111744   4.430   0.926   2.605 -0.0959  0.6572  0.6237
 3852SOL    HW211745   4.344   0.878   2.490  0.4855  1.1681 -0.0295
 3853SOL     OW11746   4.852   2.120   3.312  0.9432 -0.4410 -0.0896
 3853SOL    HW111747   4.829   2.071   3.233  2.2495  1.3957 -1.6848
 3853SOL    HW211748   4.784   2.187   3.319 -0.0837 -1.5518  1.3361
 3854SOL     OW11749   2.691   0.211   2.079  0.0319 -0.1924 -0.4057
 3854SOL    HW111750   2.657   0.155   2.148  0.6244 -2.2039 -1.6608
 3854SOL    HW211751   2.783   0.185   2.071  0.0365  0.1830 -1.7584
 3855SOL     OW11752   3.680   3.381   0.748 -0.4414  0.0462  0.3000
 3855SOL    HW111753   3.765   3.384   0.792 -0.5323 -1.4690  0.6567
 3855SOL    HW211754   3.646   3.470   0.754  1.5754  0.9475 -0.8106
 3856SOL     OW11755   4.427   3.473   3.957 -0.3847 -0.0654  0.0213
 3856SOL    HW111756   4.418   3.386   3.997  1.2255 -0.2934 -0.0683
 3856SOL    HW211757   4.414   3.534   4.029 -1.9141 -0.3435  0.0177
 3857SOL     OW11758   0.114   4.644   0.633  0.0549 -0.0635  0.0659
 3857SOL    HW111759   0.184   4.581   0.643  0.0562 -0.0513  0.1343
 3857SOL    HW211760   0.043   4.610   0.688  0.1247  0.0944  0.2564
 3858SOL     OW11761   2.132   3.690   1.533  0.2302  0.6804 -0.4238
 3858SOL    HW111762   2.191   3.758   1.502  0.9906  0.2510  0.0683
 3858SOL    HW211763   2.081   3.731   1.603  2.2587  0.1402  1.4616
 3859SOL     OW11764   3.314   3.473   2.323 -0.5850  0.3702 -0.2201
 3859SOL    HW111765   3.358   3.557   2.310 -0.4570  0.3580  0.1339
 3859SOL    HW211766   3.374   3.408   2.286 -0.0170  0.2918  0.8016
 3860SOL     OW11767   0.228   0.685   0.579  0.3926  0.3427 -0.4901
 3860SOL    HW111768   0.302   0.626   0.562 -1.4238 -1.8104 -1.4732
 3860SOL    HW211769   0.244   0.718   0.668  2.8673  0.5502 -0.9356
 3861SOL     OW11770   2.249   2.738   4.875  0.4196  0.0867  0.0974
 3861SOL    HW111771   2.173   2.769   4.826  0.8586  0.3892 -0.4070
 3861SOL    HW211772   2.320   2.738   4.811  0.9722  0.3669  0.6984
 3862SOL     OW11773   3.144   3.995   1.031 -0.2305 -0.3913  0.3589
 3862SOL    HW111774   3.201   4.013   0.957 -0.4831  0.5399  0.3812
 3862SOL    HW211775   3.055   4.004   0.996 -0.3596 -0.9480  0.5364
 3863SOL     OW11776   3.503   4.903   2.052 -0.4144 -0.4258 -0.2647
 3863SOL    HW111777   3.598   4.896   2.052 -0.4016 -0.2489 -0.4820
 3863SOL    HW211778   3.486   4.991   2.019 -0.6594 -0.5177 -0.3815
 3864SOL     OW11779   2.331   0.971   1.515 -0.0267  0.3136 -0.3882
 3864SOL    HW111780   2.289   1.019   1.444 -1.9262  0.4603  0.7632
 3864SOL    HW211781   2.286   1.000   1.594  0.6951 -1.2727  0.6685
 3865SOL     OW11782   0.062   2.015   4.821  0.4378 -0.1927  0.0156
 3865SOL    HW111783   0.126   2.041   4.755 -0.2640  2.5250  0.3189
 3865SOL    HW211784  -0.022   2.043   4.786 -0.3400 -1.5920  0.6886
 3866SOL     OW11785   1.455   3.453   0.625  0.3607  0.3650 -0.6862
 3866SOL    HW111786   1.506   3.477   0.548  2.6691  3.4535  1.4969
 3866SOL    HW211787   1.520   3.427   0.690 -1.2599  0.0631  0.9082
 3867SOL     OW11788   0.174   2.102   3.307 -0.3307 -0.4909  0.1958
 3867SOL    HW111789   0.255   2.135   3.347 -0.6693  0.0886  0.4196
 3867SOL    HW211790   0.106   2.161   3.340 -0.4791  0.6944 -2.0776
 3868SOL     OW11791   0.599   2.862   1.842 -0.5756  0.4751  0.0293
 3868SOL    HW111792   0.647   2.822   1.769 -1.0609  0.5844 -0.3558
 3868SOL    HW211793   0.604   2.956   1.825 -0.4456  0.5175  0.2963
 3869SOL     OW11794   2.777   4.831   0.890 -0.2360  0.2355  0.2151
 3869SOL    HW111795   2.743   4.894   0.827 -2.5587  0.6725  1.7469
 3869SOL    HW211796   2.835   4.882   0.947  1.3641 -0.0294 -1.1021
 3870SOL     OW11797   2.022   3.664   0.622  0.1579 -0.2872 -0.0204
 3870SOL    HW111798   2.091   3.702   0.676  1.4843  0.7853 -2.3186
 3870SOL    HW211799   2.033   3.705   0.536 -4.5271  1.4309 -0.1075
 3871SOL     OW11800   2.154   4.083   0.361  0.2296  0.3607  0.5056
 3871SOL    HW111801   2.118   4.157   0.410 -1.1547  0.8149 -1.1034
 3871SOL    HW211802   2.192   4.122   0.283 -1.0936 -0.6490 -0.6841
 3872SOL     OW11803   2.580   2.145   2.209 -0.5100  0.2698 -0.1073
 3872SOL    HW111804   2.514   2.110   2.268  0.0548  0.4654  0.6487
 3872SOL    HW211805   2.640   2.072   2.193 -0.5212  0.2884 -0.2356
 3873SOL     OW11806   4.696   3.187   3.797  0.1277 -0.2837  0.1115
 3873SOL    HW111807   4.669   3.278   3.785 -0.9810 -0.4564  1.1463
 3873SOL    HW211808   4.614   3.137   3.797  0.7698 -1.4047 -1.3008
 3874SOL     OW11809   1.403   3.569   3.690  0.4545 -0.2884 -0.3508
 3874SOL    HW111810   1.396   3.491   3.634 -0.8586  0.5756 -1.4533
 3874SOL    HW211811   1.333   3.559   3.754  2.1178 -1.4031  1.3978
 3875SOL     OW11812   1.125   4.373   1.626 -0.1258 -0.0901  0.1656
 3875SOL    HW111813   1.209   4.330   1.642 -0.0185 -1.3176 -3.0363
 3875SOL    HW211814   1.135   4.416   1.542 -2.1941  1.2088  0.4946
 3876SOL     OW11815   3.761   0.632   0.950  0.2180  0.6354 -0.9791
 3876SOL    HW111816   3.706   0.704   0.921  0.9962  1.1412 -1.2390
 3876SOL    HW211817   3.777   0.580   0.871 -2.6784 -1.5072 -0.3114
 3877SOL     OW11818   4.245   3.267   3.493  0.3299 -0.2805  0.5194
 3877SOL    HW111819   4.173   3.252   3.555  0.0518  0.2962  0.3489
 3877SOL    HW211820   4.219   3.220   3.414  0.0183  0.1218  0.3774
 3878SOL     OW11821   0.309   2.955   0.281  0.3328 -0.2056  0.1833
 3878SOL    HW111822   0.292   2.860   0.277 -0.0569 -0.3160  2.8542
 3878SOL    HW211823   0.320   2.981   0.190 -2.0452 -2.3699 -0.8361
 3879SOL     OW11824   0.828   0.729   0.310 -0.1032  0.6537 -0.2289
 3879SOL    HW111825   0.850   0.639   0.334  0.6012  0.7994 -0.2941
 3879SOL    HW211826   0.909   0.778   0.324 -0.5752  1.3455  0.1253
 3880SOL     OW11827   2.957   4.595   3.728 -0.1586 -0.5223  0.2466
 3880SOL    HW111828   2.934   4.572   3.638  0.1156  0.3108 -0.0440
 3880SOL    HW211829   3.042   4.553   3.743 -0.9994 -2.1400  0.7332
 3881SOL     OW11830   0.509   3.512   3.670  0.1864 -0.1994  0.1400
 3881SOL    HW111831   0.599   3.521   3.640  0.1950 -1.1553 -0.1513
 3881SOL    HW211832   0.514   3.529   3.764  0.4189  1.1832 -0.1009
 3882SOL     OW11833   0.883   0.257   4.199 -0.4838 -0.5778 -0.0330
 3882SOL    HW111834   0.788   0.264   4.190 -0.7193 -0.9178  1.7000
 3882SOL    HW211835   0.900   0.280   4.291  1.1103 -0.5276 -0.3057
 3883SOL     OW11836   2.592   3.785   2.337  0.4195  0.7117  0.2875
 3883SOL    HW111837   2.591   3.731   2.257  1.0256 -1.3329  1.5820
 3883SOL    HW211838   2.684   3.802   2.353  0.4246 -0.1254  1.2906
 3884SOL     OW11839   2.722   1.749   1.422  0.7109 -0.2229 -0.6794
 3884SOL    HW111840   2.816   1.742   1.442  0.5137 -1.6590 -0.1206
 3884SOL    HW211841   2.709   1.842   1.402  1.7948  0.4863  1.5671
 3885SOL     OW11842   4.640   3.779   3.395  0.5535 -0.6108  0.5444
 3885SOL    HW111843   4.637   3.862   3.443  1.3989 -0.5701  0.5433
 3885SOL    HW211844   4.694   3.797   3.318 -0.5548 -0.7548 -0.2977
 3886SOL     OW11845   2.475   1.353   4.350 -0.4248  0.6586 -0.5256
 3886SOL    HW111846   2.469   1.431   4.406  0.5788  0.8074 -0.6060
 3886SOL    HW211847   2.566   1.326   4.357 -0.2765  0.6705 -2.0850
 3887SOL     OW11848   0.910   4.601   0.455 -0.3008 -0.7683 -0.0848
 3887SOL    HW111849   0.926   4.602   0.549  0.4408 -3.1098 -0.1127
 3887SOL    HW211850   0.981   4.652   0.417  0.6114 -1.5553  0.5213
 3888SOL     OW11851   4.803   0.488   4.745 -0.1462 -0.0640 -0.1670
 3888SOL    HW111852   4.887   0.506   4.704 -0.5655 -0.4475 -1.2478
 3888SOL    HW211853   4.752   0.445   4.677 -1.2509  0.2430  0.4300
 3889SOL     OW11854   4.618   3.085   0.657  0.2355 -0.4964 -0.0965
 3889SOL    HW111855   4.706   3.117   0.637  0.6105 -0.7052  1.1444
 3889SOL    HW211856   4.566   3.109   0.580  1.0841  0.7621 -0.3155
 3890SOL     OW11857   4.654   3.753   0.232  0.3816 -0.2048  0.0917
 3890SOL    HW111858   4.561   3.735   0.247  0.4326  0.5579  1.5358
 3890SOL    HW211859   4.657   3.803   0.151 -0.5434  0.3215  0.3729
 3891SOL     OW11860   4.794   2.538   4.805 -0.0640 -0.1248 -0.2196
 3891SOL    HW111861   4.870   2.531   4.862  2.6614  4.9572 -2.5677
 3891SOL    HW211862   4.806   2.468   4.740  2.7599  0.5212 -0.5388
 3892SOL     OW11863   4.762   1.729   0.494 -0.4983  0.3069 -0.2450
 3892SOL    HW111864   4.819   1.675   0.440 -0.2384 -0.5371  0.8422
 3892SOL    HW211865   4.747   1.808   0.442 -1.6091 -1.1534 -2.2735
 3893NA      NA11866   1.100   4.583   4.760  0.1072  0.3252  0.0223
 3894NA      NA11867   0.836   0.970   0.717 -0.6571 -0.3417 -0.2152
 3895NA      NA11868   1.828   1.961   2.218  0.3274 -0.4567  0.1200
 3896NA      NA11869   3.483   1.706   4.070  0.2116  0.3196 -0.3615
 3897NA      NA11870   0.939   4.368   1.738  0.4864 -0.5544 -0.3043
 3898NA      NA11871   2.077   0.131   1.113  0.6513 -0.3202  0.0602
 3899NA      NA11872   2.692   3.130   0.259  0.0957 -0.0390 -0.1071
 3900NA      NA11873   0.754   4.842   4.218 -0.0220 -0.1721 -0.0461
 3901NA      NA11874   2.362   2.487   1.981  0.3583  0.0043 -0.1454
 3902NA      NA11875   4.760   0.472   3.398 -0.3488  0.2795 -0.0590
 3903NA      NA11876   2.090   1.635   3.588 -0.2623 -0.5358  0.3982
 3904CL      CL11877   2.183   1.428   1.250 -0.2951  0.3931  0.1476
 3905CL      CL11878   4.821   0.360   4.072 -0.1694  0.2776 -0.0679
 3906CL      CL11879   2.380   1.663   2.027  0.0440  0.0428  0.1991
 3907CL      CL11880   4.758   2.004   3.049 -0.0075 -0.2021  0.6202
 3908CL      CL11881   1.164   2.133   0.330  0.3819  0.0751 -0.2482
 3909CL      CL11882   2.356   0.059   2.719  0.1657 -0.1407  0.0508
 3910CL      CL11883   2.119   0.755   4.448  0.3304  0.1333 -0.8005
 3911CL      CL11884   3.553   1.821   4.634 -0.0193  0.0685  0.0310
 3912CL      CL11885   1.528   4.743   1.035  0.0711  0.6054 -0.0618
 3913CL      CL11886   4.285   2.787   3.166  0.2339  0.5258 -0.6239
 3914CL      CL11887   1.121   0.077   4.578  0.2019 -0.5001  0.1930
   4.94105   4.94105   4.94105
