;
;   File g4npncore_petim_betagalactose.itp  was generated
;   By user: sairam (1000)
;   On host: sairam
;   At date: Tue. September  2 16:13:32 2023
;
;   This is a standalone topology file
;
;   Created by:
;   ParmEd:       amb2gro_top_gro.py, VERSION 3.4.1
;   Executable:   amb2gro_top_gro.py
;   Library dir:  /usr/local/gromacs/share/gromacs/top
;   Command line:
;     ./amb2gro_top_gro.py -p g4npncore_petim_betagalactose.prmtop -c g4npncore_petim_betagalactose.inpcrd -t g4npncore_petim_betagalactose.itp -g g4npncore_petim_betagalactose.gro -b g4npncore_petim_betagalactose.pdb
;

;[ defaults ]
;; nbfunc        comb-rule       gen-pairs       fudgeLJ fudgeQQ
;1               2               yes             0.5          0.83333333  
;
;[ atomtypes ]
;; name    at.num    mass    charge ptype  sigma      epsilon
;n3             7  14.010000  0.00000000  A     0.32499985        0.71128
;c3             6  12.010000  0.00000000  A     0.33996695      0.4577296
;h1             1   1.008000  0.00000000  A      0.2471353      0.0656888
;hc             1   1.008000  0.00000000  A     0.26495328      0.0656888
;os             8  16.000000  0.00000000  A     0.30000123        0.71128
;h2             1   1.008000  0.00000000  A     0.22931733      0.0656888
;oh             8  16.000000  0.00000000  A     0.30664734      0.8803136
;ho             1   1.008000  0.00000000  A              0              0


[ moleculetype ]
; Name            nrexcl
g4npncore_petim_betagalactose       3

[ atoms ]
;   nr       type  resnr residue  atom   cgnr    charge       mass  typeB    chargeB      massB
; residue    1 aaa rtp aaa q 0.0
    1         n3      1    aaa     N1      1 -0.65416500  14.010000   ; qtot -0.654165
    2         c3      1    aaa     C1      2 0.05178400  12.010000   ; qtot -0.602381
    3         h1      1    aaa     H1      3 0.06475500   1.008000   ; qtot -0.537626
    4         h1      1    aaa     H2      4 0.06475500   1.008000   ; qtot -0.472871
    5         c3      1    aaa     C2      5 0.05178400  12.010000   ; qtot -0.421087
    6         h1      1    aaa     H3      6 0.06475500   1.008000   ; qtot -0.356332
    7         h1      1    aaa     H4      7 0.06475500   1.008000   ; qtot -0.291577
    8         c3      1    aaa     C3      8 0.05178400  12.010000   ; qtot -0.239793
    9         h1      1    aaa     H5      9 0.06475500   1.008000   ; qtot -0.175038
   10         h1      1    aaa     H6     10 0.06475500   1.008000   ; qtot -0.110283
   11         c3      1    aaa     C4     11 0.07871100  12.010000   ; qtot -0.031572
   12         hc      1    aaa     H7     12 0.08683700   1.008000   ; qtot 0.055265
   13         hc      1    aaa     H8     13 0.08683700   1.008000   ; qtot 0.142102
   14         c3      1    aaa     C5     14 0.07871100  12.010000   ; qtot 0.220813
   15         hc      1    aaa     H9     15 0.08683700   1.008000   ; qtot 0.307650
   16         hc      1    aaa    H10     16 0.08683700   1.008000   ; qtot 0.394487
   17         c3      1    aaa     C6     17 0.07871100  12.010000   ; qtot 0.473198
   18         hc      1    aaa    H11     18 0.08683700   1.008000   ; qtot 0.560035
   19         hc      1    aaa    H12     19 0.08683700   1.008000   ; qtot 0.646872
   20         c3      1    aaa     C7     20 -0.74941200  12.010000   ; qtot -0.102540
   21         h1      1    aaa    H13     21 0.26689400   1.008000   ; qtot 0.164354
   22         h1      1    aaa    H14     22 0.26689400   1.008000   ; qtot 0.431248
   23         c3      1    aaa     C8     23 -0.74941200  12.010000   ; qtot -0.318164
   24         h1      1    aaa    H15     24 0.26689400   1.008000   ; qtot -0.051270
   25         h1      1    aaa    H16     25 0.26689400   1.008000   ; qtot 0.215624
   26         c3      1    aaa     C9     26 -0.74941200  12.010000   ; qtot -0.533788
   27         h1      1    aaa    H17     27 0.26689400   1.008000   ; qtot -0.266894
   28         h1      1    aaa    H18     28 0.26689400   1.008000   ; qtot 0.000000
; residue    2 bbb rtp bbb q -0.0
   29         n3      2    bbb     N1     29 -0.59685800  14.010000   ; qtot -0.596858
   30         c3      2    bbb     C1     30 0.10137000  12.010000   ; qtot -0.495488
   31         h1      2    bbb     H1     31 0.04411300   1.008000   ; qtot -0.451375
   32         h1      2    bbb     H2     32 0.04411300   1.008000   ; qtot -0.407262
   33         c3      2    bbb     C2     33 0.10137000  12.010000   ; qtot -0.305892
   34         h1      2    bbb     H3     34 0.04411300   1.008000   ; qtot -0.261779
   35         h1      2    bbb     H4     35 0.04411300   1.008000   ; qtot -0.217666
   36         c3      2    bbb     C3     36 -0.00195300  12.010000   ; qtot -0.219619
   37         h1      2    bbb     H5     37 0.05064400   1.008000   ; qtot -0.168975
   38         h1      2    bbb     H6     38 0.05064400   1.008000   ; qtot -0.118331
   39         c3      2    bbb     C4     39 -0.01612100  12.010000   ; qtot -0.134452
   40         hc      2    bbb     H7     40 0.04936100   1.008000   ; qtot -0.085091
   41         hc      2    bbb     H8     41 0.04936100   1.008000   ; qtot -0.035730
   42         c3      2    bbb     C5     42 0.11363000  12.010000   ; qtot 0.077900
   43         hc      2    bbb     H9     43 0.06265900   1.008000   ; qtot 0.140559
   44         hc      2    bbb    H10     44 0.06265900   1.008000   ; qtot 0.203218
   45         c3      2    bbb     C6     45 0.11363000  12.010000   ; qtot 0.316848
   46         hc      2    bbb    H11     46 0.06265900   1.008000   ; qtot 0.379507
   47         hc      2    bbb    H12     47 0.06265900   1.008000   ; qtot 0.442166
   48         c3      2    bbb     C7     48 0.05858200  12.010000   ; qtot 0.500748
   49         h1      2    bbb    H13     49 0.06123400   1.008000   ; qtot 0.561982
   50         h1      2    bbb    H14     50 0.06123400   1.008000   ; qtot 0.623216
   51         c3      2    bbb     C8     51 -0.72423400  12.010000   ; qtot -0.101018
   52         h1      2    bbb    H15     52 0.25637600   1.008000   ; qtot 0.155358
   53         h1      2    bbb    H16     53 0.25637600   1.008000   ; qtot 0.411734
   54         c3      2    bbb     C9     54 -0.72423400  12.010000   ; qtot -0.312500
   55         h1      2    bbb    H17     55 0.25637600   1.008000   ; qtot -0.056124
   56         h1      2    bbb    H18     56 0.25637600   1.008000   ; qtot 0.200252
   57         os      2    bbb     O1     57 -0.20025300  16.000000   ; qtot -0.000001
; residue    3 bbb rtp bbb q -0.0
   58         n3      3    bbb     N1     58 -0.59685800  14.010000   ; qtot -0.596859
   59         c3      3    bbb     C1     59 0.10137000  12.010000   ; qtot -0.495489
   60         h1      3    bbb     H1     60 0.04411300   1.008000   ; qtot -0.451376
   61         h1      3    bbb     H2     61 0.04411300   1.008000   ; qtot -0.407263
   62         c3      3    bbb     C2     62 0.10137000  12.010000   ; qtot -0.305893
   63         h1      3    bbb     H3     63 0.04411300   1.008000   ; qtot -0.261780
   64         h1      3    bbb     H4     64 0.04411300   1.008000   ; qtot -0.217667
   65         c3      3    bbb     C3     65 -0.00195300  12.010000   ; qtot -0.219620
   66         h1      3    bbb     H5     66 0.05064400   1.008000   ; qtot -0.168976
   67         h1      3    bbb     H6     67 0.05064400   1.008000   ; qtot -0.118332
   68         c3      3    bbb     C4     68 -0.01612100  12.010000   ; qtot -0.134453
   69         hc      3    bbb     H7     69 0.04936100   1.008000   ; qtot -0.085092
   70         hc      3    bbb     H8     70 0.04936100   1.008000   ; qtot -0.035731
   71         c3      3    bbb     C5     71 0.11363000  12.010000   ; qtot 0.077899
   72         hc      3    bbb     H9     72 0.06265900   1.008000   ; qtot 0.140558
   73         hc      3    bbb    H10     73 0.06265900   1.008000   ; qtot 0.203217
   74         c3      3    bbb     C6     74 0.11363000  12.010000   ; qtot 0.316847
   75         hc      3    bbb    H11     75 0.06265900   1.008000   ; qtot 0.379506
   76         hc      3    bbb    H12     76 0.06265900   1.008000   ; qtot 0.442165
   77         c3      3    bbb     C7     77 0.05858200  12.010000   ; qtot 0.500747
   78         h1      3    bbb    H13     78 0.06123400   1.008000   ; qtot 0.561981
   79         h1      3    bbb    H14     79 0.06123400   1.008000   ; qtot 0.623215
   80         c3      3    bbb     C8     80 -0.72423400  12.010000   ; qtot -0.101019
   81         h1      3    bbb    H15     81 0.25637600   1.008000   ; qtot 0.155357
   82         h1      3    bbb    H16     82 0.25637600   1.008000   ; qtot 0.411733
   83         c3      3    bbb     C9     83 -0.72423400  12.010000   ; qtot -0.312501
   84         h1      3    bbb    H17     84 0.25637600   1.008000   ; qtot -0.056125
   85         h1      3    bbb    H18     85 0.25637600   1.008000   ; qtot 0.200251
   86         os      3    bbb     O1     86 -0.20025300  16.000000   ; qtot -0.000002
; residue    4 bbb rtp bbb q -0.0
   87         n3      4    bbb     N1     87 -0.59685800  14.010000   ; qtot -0.596860
   88         c3      4    bbb     C1     88 0.10137000  12.010000   ; qtot -0.495490
   89         h1      4    bbb     H1     89 0.04411300   1.008000   ; qtot -0.451377
   90         h1      4    bbb     H2     90 0.04411300   1.008000   ; qtot -0.407264
   91         c3      4    bbb     C2     91 0.10137000  12.010000   ; qtot -0.305894
   92         h1      4    bbb     H3     92 0.04411300   1.008000   ; qtot -0.261781
   93         h1      4    bbb     H4     93 0.04411300   1.008000   ; qtot -0.217668
   94         c3      4    bbb     C3     94 -0.00195300  12.010000   ; qtot -0.219621
   95         h1      4    bbb     H5     95 0.05064400   1.008000   ; qtot -0.168977
   96         h1      4    bbb     H6     96 0.05064400   1.008000   ; qtot -0.118333
   97         c3      4    bbb     C4     97 -0.01612100  12.010000   ; qtot -0.134454
   98         hc      4    bbb     H7     98 0.04936100   1.008000   ; qtot -0.085093
   99         hc      4    bbb     H8     99 0.04936100   1.008000   ; qtot -0.035732
  100         c3      4    bbb     C5    100 0.11363000  12.010000   ; qtot 0.077898
  101         hc      4    bbb     H9    101 0.06265900   1.008000   ; qtot 0.140557
  102         hc      4    bbb    H10    102 0.06265900   1.008000   ; qtot 0.203216
  103         c3      4    bbb     C6    103 0.11363000  12.010000   ; qtot 0.316846
  104         hc      4    bbb    H11    104 0.06265900   1.008000   ; qtot 0.379505
  105         hc      4    bbb    H12    105 0.06265900   1.008000   ; qtot 0.442164
  106         c3      4    bbb     C7    106 0.05858200  12.010000   ; qtot 0.500746
  107         h1      4    bbb    H13    107 0.06123400   1.008000   ; qtot 0.561980
  108         h1      4    bbb    H14    108 0.06123400   1.008000   ; qtot 0.623214
  109         c3      4    bbb     C8    109 -0.72423400  12.010000   ; qtot -0.101020
  110         h1      4    bbb    H15    110 0.25637600   1.008000   ; qtot 0.155356
  111         h1      4    bbb    H16    111 0.25637600   1.008000   ; qtot 0.411732
  112         c3      4    bbb     C9    112 -0.72423400  12.010000   ; qtot -0.312502
  113         h1      4    bbb    H17    113 0.25637600   1.008000   ; qtot -0.056126
  114         h1      4    bbb    H18    114 0.25637600   1.008000   ; qtot 0.200250
  115         os      4    bbb     O1    115 -0.20025300  16.000000   ; qtot -0.000003
; residue    5 bbb rtp bbb q -0.0
  116         n3      5    bbb     N1    116 -0.59685800  14.010000   ; qtot -0.596861
  117         c3      5    bbb     C1    117 0.10137000  12.010000   ; qtot -0.495491
  118         h1      5    bbb     H1    118 0.04411300   1.008000   ; qtot -0.451378
  119         h1      5    bbb     H2    119 0.04411300   1.008000   ; qtot -0.407265
  120         c3      5    bbb     C2    120 0.10137000  12.010000   ; qtot -0.305895
  121         h1      5    bbb     H3    121 0.04411300   1.008000   ; qtot -0.261782
  122         h1      5    bbb     H4    122 0.04411300   1.008000   ; qtot -0.217669
  123         c3      5    bbb     C3    123 -0.00195300  12.010000   ; qtot -0.219622
  124         h1      5    bbb     H5    124 0.05064400   1.008000   ; qtot -0.168978
  125         h1      5    bbb     H6    125 0.05064400   1.008000   ; qtot -0.118334
  126         c3      5    bbb     C4    126 -0.01612100  12.010000   ; qtot -0.134455
  127         hc      5    bbb     H7    127 0.04936100   1.008000   ; qtot -0.085094
  128         hc      5    bbb     H8    128 0.04936100   1.008000   ; qtot -0.035733
  129         c3      5    bbb     C5    129 0.11363000  12.010000   ; qtot 0.077897
  130         hc      5    bbb     H9    130 0.06265900   1.008000   ; qtot 0.140556
  131         hc      5    bbb    H10    131 0.06265900   1.008000   ; qtot 0.203215
  132         c3      5    bbb     C6    132 0.11363000  12.010000   ; qtot 0.316845
  133         hc      5    bbb    H11    133 0.06265900   1.008000   ; qtot 0.379504
  134         hc      5    bbb    H12    134 0.06265900   1.008000   ; qtot 0.442163
  135         c3      5    bbb     C7    135 0.05858200  12.010000   ; qtot 0.500745
  136         h1      5    bbb    H13    136 0.06123400   1.008000   ; qtot 0.561979
  137         h1      5    bbb    H14    137 0.06123400   1.008000   ; qtot 0.623213
  138         c3      5    bbb     C8    138 -0.72423400  12.010000   ; qtot -0.101021
  139         h1      5    bbb    H15    139 0.25637600   1.008000   ; qtot 0.155355
  140         h1      5    bbb    H16    140 0.25637600   1.008000   ; qtot 0.411731
  141         c3      5    bbb     C9    141 -0.72423400  12.010000   ; qtot -0.312503
  142         h1      5    bbb    H17    142 0.25637600   1.008000   ; qtot -0.056127
  143         h1      5    bbb    H18    143 0.25637600   1.008000   ; qtot 0.200249
  144         os      5    bbb     O1    144 -0.20025300  16.000000   ; qtot -0.000004
; residue    6 bbb rtp bbb q -0.0
  145         n3      6    bbb     N1    145 -0.59685800  14.010000   ; qtot -0.596862
  146         c3      6    bbb     C1    146 0.10137000  12.010000   ; qtot -0.495492
  147         h1      6    bbb     H1    147 0.04411300   1.008000   ; qtot -0.451379
  148         h1      6    bbb     H2    148 0.04411300   1.008000   ; qtot -0.407266
  149         c3      6    bbb     C2    149 0.10137000  12.010000   ; qtot -0.305896
  150         h1      6    bbb     H3    150 0.04411300   1.008000   ; qtot -0.261783
  151         h1      6    bbb     H4    151 0.04411300   1.008000   ; qtot -0.217670
  152         c3      6    bbb     C3    152 -0.00195300  12.010000   ; qtot -0.219623
  153         h1      6    bbb     H5    153 0.05064400   1.008000   ; qtot -0.168979
  154         h1      6    bbb     H6    154 0.05064400   1.008000   ; qtot -0.118335
  155         c3      6    bbb     C4    155 -0.01612100  12.010000   ; qtot -0.134456
  156         hc      6    bbb     H7    156 0.04936100   1.008000   ; qtot -0.085095
  157         hc      6    bbb     H8    157 0.04936100   1.008000   ; qtot -0.035734
  158         c3      6    bbb     C5    158 0.11363000  12.010000   ; qtot 0.077896
  159         hc      6    bbb     H9    159 0.06265900   1.008000   ; qtot 0.140555
  160         hc      6    bbb    H10    160 0.06265900   1.008000   ; qtot 0.203214
  161         c3      6    bbb     C6    161 0.11363000  12.010000   ; qtot 0.316844
  162         hc      6    bbb    H11    162 0.06265900   1.008000   ; qtot 0.379503
  163         hc      6    bbb    H12    163 0.06265900   1.008000   ; qtot 0.442162
  164         c3      6    bbb     C7    164 0.05858200  12.010000   ; qtot 0.500744
  165         h1      6    bbb    H13    165 0.06123400   1.008000   ; qtot 0.561978
  166         h1      6    bbb    H14    166 0.06123400   1.008000   ; qtot 0.623212
  167         c3      6    bbb     C8    167 -0.72423400  12.010000   ; qtot -0.101022
  168         h1      6    bbb    H15    168 0.25637600   1.008000   ; qtot 0.155354
  169         h1      6    bbb    H16    169 0.25637600   1.008000   ; qtot 0.411730
  170         c3      6    bbb     C9    170 -0.72423400  12.010000   ; qtot -0.312504
  171         h1      6    bbb    H17    171 0.25637600   1.008000   ; qtot -0.056128
  172         h1      6    bbb    H18    172 0.25637600   1.008000   ; qtot 0.200248
  173         os      6    bbb     O1    173 -0.20025300  16.000000   ; qtot -0.000005
; residue    7 bbb rtp bbb q -0.0
  174         n3      7    bbb     N1    174 -0.59685800  14.010000   ; qtot -0.596863
  175         c3      7    bbb     C1    175 0.10137000  12.010000   ; qtot -0.495493
  176         h1      7    bbb     H1    176 0.04411300   1.008000   ; qtot -0.451380
  177         h1      7    bbb     H2    177 0.04411300   1.008000   ; qtot -0.407267
  178         c3      7    bbb     C2    178 0.10137000  12.010000   ; qtot -0.305897
  179         h1      7    bbb     H3    179 0.04411300   1.008000   ; qtot -0.261784
  180         h1      7    bbb     H4    180 0.04411300   1.008000   ; qtot -0.217671
  181         c3      7    bbb     C3    181 -0.00195300  12.010000   ; qtot -0.219624
  182         h1      7    bbb     H5    182 0.05064400   1.008000   ; qtot -0.168980
  183         h1      7    bbb     H6    183 0.05064400   1.008000   ; qtot -0.118336
  184         c3      7    bbb     C4    184 -0.01612100  12.010000   ; qtot -0.134457
  185         hc      7    bbb     H7    185 0.04936100   1.008000   ; qtot -0.085096
  186         hc      7    bbb     H8    186 0.04936100   1.008000   ; qtot -0.035735
  187         c3      7    bbb     C5    187 0.11363000  12.010000   ; qtot 0.077895
  188         hc      7    bbb     H9    188 0.06265900   1.008000   ; qtot 0.140554
  189         hc      7    bbb    H10    189 0.06265900   1.008000   ; qtot 0.203213
  190         c3      7    bbb     C6    190 0.11363000  12.010000   ; qtot 0.316843
  191         hc      7    bbb    H11    191 0.06265900   1.008000   ; qtot 0.379502
  192         hc      7    bbb    H12    192 0.06265900   1.008000   ; qtot 0.442161
  193         c3      7    bbb     C7    193 0.05858200  12.010000   ; qtot 0.500743
  194         h1      7    bbb    H13    194 0.06123400   1.008000   ; qtot 0.561977
  195         h1      7    bbb    H14    195 0.06123400   1.008000   ; qtot 0.623211
  196         c3      7    bbb     C8    196 -0.72423400  12.010000   ; qtot -0.101023
  197         h1      7    bbb    H15    197 0.25637600   1.008000   ; qtot 0.155353
  198         h1      7    bbb    H16    198 0.25637600   1.008000   ; qtot 0.411729
  199         c3      7    bbb     C9    199 -0.72423400  12.010000   ; qtot -0.312505
  200         h1      7    bbb    H17    200 0.25637600   1.008000   ; qtot -0.056129
  201         h1      7    bbb    H18    201 0.25637600   1.008000   ; qtot 0.200247
  202         os      7    bbb     O1    202 -0.20025300  16.000000   ; qtot -0.000006
; residue    8 bbb rtp bbb q -0.0
  203         n3      8    bbb     N1    203 -0.59685800  14.010000   ; qtot -0.596864
  204         c3      8    bbb     C1    204 0.10137000  12.010000   ; qtot -0.495494
  205         h1      8    bbb     H1    205 0.04411300   1.008000   ; qtot -0.451381
  206         h1      8    bbb     H2    206 0.04411300   1.008000   ; qtot -0.407268
  207         c3      8    bbb     C2    207 0.10137000  12.010000   ; qtot -0.305898
  208         h1      8    bbb     H3    208 0.04411300   1.008000   ; qtot -0.261785
  209         h1      8    bbb     H4    209 0.04411300   1.008000   ; qtot -0.217672
  210         c3      8    bbb     C3    210 -0.00195300  12.010000   ; qtot -0.219625
  211         h1      8    bbb     H5    211 0.05064400   1.008000   ; qtot -0.168981
  212         h1      8    bbb     H6    212 0.05064400   1.008000   ; qtot -0.118337
  213         c3      8    bbb     C4    213 -0.01612100  12.010000   ; qtot -0.134458
  214         hc      8    bbb     H7    214 0.04936100   1.008000   ; qtot -0.085097
  215         hc      8    bbb     H8    215 0.04936100   1.008000   ; qtot -0.035736
  216         c3      8    bbb     C5    216 0.11363000  12.010000   ; qtot 0.077894
  217         hc      8    bbb     H9    217 0.06265900   1.008000   ; qtot 0.140553
  218         hc      8    bbb    H10    218 0.06265900   1.008000   ; qtot 0.203212
  219         c3      8    bbb     C6    219 0.11363000  12.010000   ; qtot 0.316842
  220         hc      8    bbb    H11    220 0.06265900   1.008000   ; qtot 0.379501
  221         hc      8    bbb    H12    221 0.06265900   1.008000   ; qtot 0.442160
  222         c3      8    bbb     C7    222 0.05858200  12.010000   ; qtot 0.500742
  223         h1      8    bbb    H13    223 0.06123400   1.008000   ; qtot 0.561976
  224         h1      8    bbb    H14    224 0.06123400   1.008000   ; qtot 0.623210
  225         c3      8    bbb     C8    225 -0.72423400  12.010000   ; qtot -0.101024
  226         h1      8    bbb    H15    226 0.25637600   1.008000   ; qtot 0.155352
  227         h1      8    bbb    H16    227 0.25637600   1.008000   ; qtot 0.411728
  228         c3      8    bbb     C9    228 -0.72423400  12.010000   ; qtot -0.312506
  229         h1      8    bbb    H17    229 0.25637600   1.008000   ; qtot -0.056130
  230         h1      8    bbb    H18    230 0.25637600   1.008000   ; qtot 0.200246
  231         os      8    bbb     O1    231 -0.20025300  16.000000   ; qtot -0.000007
; residue    9 bbb rtp bbb q -0.0
  232         n3      9    bbb     N1    232 -0.59685800  14.010000   ; qtot -0.596865
  233         c3      9    bbb     C1    233 0.10137000  12.010000   ; qtot -0.495495
  234         h1      9    bbb     H1    234 0.04411300   1.008000   ; qtot -0.451382
  235         h1      9    bbb     H2    235 0.04411300   1.008000   ; qtot -0.407269
  236         c3      9    bbb     C2    236 0.10137000  12.010000   ; qtot -0.305899
  237         h1      9    bbb     H3    237 0.04411300   1.008000   ; qtot -0.261786
  238         h1      9    bbb     H4    238 0.04411300   1.008000   ; qtot -0.217673
  239         c3      9    bbb     C3    239 -0.00195300  12.010000   ; qtot -0.219626
  240         h1      9    bbb     H5    240 0.05064400   1.008000   ; qtot -0.168982
  241         h1      9    bbb     H6    241 0.05064400   1.008000   ; qtot -0.118338
  242         c3      9    bbb     C4    242 -0.01612100  12.010000   ; qtot -0.134459
  243         hc      9    bbb     H7    243 0.04936100   1.008000   ; qtot -0.085098
  244         hc      9    bbb     H8    244 0.04936100   1.008000   ; qtot -0.035737
  245         c3      9    bbb     C5    245 0.11363000  12.010000   ; qtot 0.077893
  246         hc      9    bbb     H9    246 0.06265900   1.008000   ; qtot 0.140552
  247         hc      9    bbb    H10    247 0.06265900   1.008000   ; qtot 0.203211
  248         c3      9    bbb     C6    248 0.11363000  12.010000   ; qtot 0.316841
  249         hc      9    bbb    H11    249 0.06265900   1.008000   ; qtot 0.379500
  250         hc      9    bbb    H12    250 0.06265900   1.008000   ; qtot 0.442159
  251         c3      9    bbb     C7    251 0.05858200  12.010000   ; qtot 0.500741
  252         h1      9    bbb    H13    252 0.06123400   1.008000   ; qtot 0.561975
  253         h1      9    bbb    H14    253 0.06123400   1.008000   ; qtot 0.623209
  254         c3      9    bbb     C8    254 -0.72423400  12.010000   ; qtot -0.101025
  255         h1      9    bbb    H15    255 0.25637600   1.008000   ; qtot 0.155351
  256         h1      9    bbb    H16    256 0.25637600   1.008000   ; qtot 0.411727
  257         c3      9    bbb     C9    257 -0.72423400  12.010000   ; qtot -0.312507
  258         h1      9    bbb    H17    258 0.25637600   1.008000   ; qtot -0.056131
  259         h1      9    bbb    H18    259 0.25637600   1.008000   ; qtot 0.200245
  260         os      9    bbb     O1    260 -0.20025300  16.000000   ; qtot -0.000008
; residue   10 bbb rtp bbb q -0.0
  261         n3     10    bbb     N1    261 -0.59685800  14.010000   ; qtot -0.596866
  262         c3     10    bbb     C1    262 0.10137000  12.010000   ; qtot -0.495496
  263         h1     10    bbb     H1    263 0.04411300   1.008000   ; qtot -0.451383
  264         h1     10    bbb     H2    264 0.04411300   1.008000   ; qtot -0.407270
  265         c3     10    bbb     C2    265 0.10137000  12.010000   ; qtot -0.305900
  266         h1     10    bbb     H3    266 0.04411300   1.008000   ; qtot -0.261787
  267         h1     10    bbb     H4    267 0.04411300   1.008000   ; qtot -0.217674
  268         c3     10    bbb     C3    268 -0.00195300  12.010000   ; qtot -0.219627
  269         h1     10    bbb     H5    269 0.05064400   1.008000   ; qtot -0.168983
  270         h1     10    bbb     H6    270 0.05064400   1.008000   ; qtot -0.118339
  271         c3     10    bbb     C4    271 -0.01612100  12.010000   ; qtot -0.134460
  272         hc     10    bbb     H7    272 0.04936100   1.008000   ; qtot -0.085099
  273         hc     10    bbb     H8    273 0.04936100   1.008000   ; qtot -0.035738
  274         c3     10    bbb     C5    274 0.11363000  12.010000   ; qtot 0.077892
  275         hc     10    bbb     H9    275 0.06265900   1.008000   ; qtot 0.140551
  276         hc     10    bbb    H10    276 0.06265900   1.008000   ; qtot 0.203210
  277         c3     10    bbb     C6    277 0.11363000  12.010000   ; qtot 0.316840
  278         hc     10    bbb    H11    278 0.06265900   1.008000   ; qtot 0.379499
  279         hc     10    bbb    H12    279 0.06265900   1.008000   ; qtot 0.442158
  280         c3     10    bbb     C7    280 0.05858200  12.010000   ; qtot 0.500740
  281         h1     10    bbb    H13    281 0.06123400   1.008000   ; qtot 0.561974
  282         h1     10    bbb    H14    282 0.06123400   1.008000   ; qtot 0.623208
  283         c3     10    bbb     C8    283 -0.72423400  12.010000   ; qtot -0.101026
  284         h1     10    bbb    H15    284 0.25637600   1.008000   ; qtot 0.155350
  285         h1     10    bbb    H16    285 0.25637600   1.008000   ; qtot 0.411726
  286         c3     10    bbb     C9    286 -0.72423400  12.010000   ; qtot -0.312508
  287         h1     10    bbb    H17    287 0.25637600   1.008000   ; qtot -0.056132
  288         h1     10    bbb    H18    288 0.25637600   1.008000   ; qtot 0.200244
  289         os     10    bbb     O1    289 -0.20025300  16.000000   ; qtot -0.000009
; residue   11 bbb rtp bbb q -0.0
  290         n3     11    bbb     N1    290 -0.59685800  14.010000   ; qtot -0.596867
  291         c3     11    bbb     C1    291 0.10137000  12.010000   ; qtot -0.495497
  292         h1     11    bbb     H1    292 0.04411300   1.008000   ; qtot -0.451384
  293         h1     11    bbb     H2    293 0.04411300   1.008000   ; qtot -0.407271
  294         c3     11    bbb     C2    294 0.10137000  12.010000   ; qtot -0.305901
  295         h1     11    bbb     H3    295 0.04411300   1.008000   ; qtot -0.261788
  296         h1     11    bbb     H4    296 0.04411300   1.008000   ; qtot -0.217675
  297         c3     11    bbb     C3    297 -0.00195300  12.010000   ; qtot -0.219628
  298         h1     11    bbb     H5    298 0.05064400   1.008000   ; qtot -0.168984
  299         h1     11    bbb     H6    299 0.05064400   1.008000   ; qtot -0.118340
  300         c3     11    bbb     C4    300 -0.01612100  12.010000   ; qtot -0.134461
  301         hc     11    bbb     H7    301 0.04936100   1.008000   ; qtot -0.085100
  302         hc     11    bbb     H8    302 0.04936100   1.008000   ; qtot -0.035739
  303         c3     11    bbb     C5    303 0.11363000  12.010000   ; qtot 0.077891
  304         hc     11    bbb     H9    304 0.06265900   1.008000   ; qtot 0.140550
  305         hc     11    bbb    H10    305 0.06265900   1.008000   ; qtot 0.203209
  306         c3     11    bbb     C6    306 0.11363000  12.010000   ; qtot 0.316839
  307         hc     11    bbb    H11    307 0.06265900   1.008000   ; qtot 0.379498
  308         hc     11    bbb    H12    308 0.06265900   1.008000   ; qtot 0.442157
  309         c3     11    bbb     C7    309 0.05858200  12.010000   ; qtot 0.500739
  310         h1     11    bbb    H13    310 0.06123400   1.008000   ; qtot 0.561973
  311         h1     11    bbb    H14    311 0.06123400   1.008000   ; qtot 0.623207
  312         c3     11    bbb     C8    312 -0.72423400  12.010000   ; qtot -0.101027
  313         h1     11    bbb    H15    313 0.25637600   1.008000   ; qtot 0.155349
  314         h1     11    bbb    H16    314 0.25637600   1.008000   ; qtot 0.411725
  315         c3     11    bbb     C9    315 -0.72423400  12.010000   ; qtot -0.312509
  316         h1     11    bbb    H17    316 0.25637600   1.008000   ; qtot -0.056133
  317         h1     11    bbb    H18    317 0.25637600   1.008000   ; qtot 0.200243
  318         os     11    bbb     O1    318 -0.20025300  16.000000   ; qtot -0.000010
; residue   12 bbb rtp bbb q -0.0
  319         n3     12    bbb     N1    319 -0.59685800  14.010000   ; qtot -0.596868
  320         c3     12    bbb     C1    320 0.10137000  12.010000   ; qtot -0.495498
  321         h1     12    bbb     H1    321 0.04411300   1.008000   ; qtot -0.451385
  322         h1     12    bbb     H2    322 0.04411300   1.008000   ; qtot -0.407272
  323         c3     12    bbb     C2    323 0.10137000  12.010000   ; qtot -0.305902
  324         h1     12    bbb     H3    324 0.04411300   1.008000   ; qtot -0.261789
  325         h1     12    bbb     H4    325 0.04411300   1.008000   ; qtot -0.217676
  326         c3     12    bbb     C3    326 -0.00195300  12.010000   ; qtot -0.219629
  327         h1     12    bbb     H5    327 0.05064400   1.008000   ; qtot -0.168985
  328         h1     12    bbb     H6    328 0.05064400   1.008000   ; qtot -0.118341
  329         c3     12    bbb     C4    329 -0.01612100  12.010000   ; qtot -0.134462
  330         hc     12    bbb     H7    330 0.04936100   1.008000   ; qtot -0.085101
  331         hc     12    bbb     H8    331 0.04936100   1.008000   ; qtot -0.035740
  332         c3     12    bbb     C5    332 0.11363000  12.010000   ; qtot 0.077890
  333         hc     12    bbb     H9    333 0.06265900   1.008000   ; qtot 0.140549
  334         hc     12    bbb    H10    334 0.06265900   1.008000   ; qtot 0.203208
  335         c3     12    bbb     C6    335 0.11363000  12.010000   ; qtot 0.316838
  336         hc     12    bbb    H11    336 0.06265900   1.008000   ; qtot 0.379497
  337         hc     12    bbb    H12    337 0.06265900   1.008000   ; qtot 0.442156
  338         c3     12    bbb     C7    338 0.05858200  12.010000   ; qtot 0.500738
  339         h1     12    bbb    H13    339 0.06123400   1.008000   ; qtot 0.561972
  340         h1     12    bbb    H14    340 0.06123400   1.008000   ; qtot 0.623206
  341         c3     12    bbb     C8    341 -0.72423400  12.010000   ; qtot -0.101028
  342         h1     12    bbb    H15    342 0.25637600   1.008000   ; qtot 0.155348
  343         h1     12    bbb    H16    343 0.25637600   1.008000   ; qtot 0.411724
  344         c3     12    bbb     C9    344 -0.72423400  12.010000   ; qtot -0.312510
  345         h1     12    bbb    H17    345 0.25637600   1.008000   ; qtot -0.056134
  346         h1     12    bbb    H18    346 0.25637600   1.008000   ; qtot 0.200242
  347         os     12    bbb     O1    347 -0.20025300  16.000000   ; qtot -0.000011
; residue   13 bbb rtp bbb q -0.0
  348         n3     13    bbb     N1    348 -0.59685800  14.010000   ; qtot -0.596869
  349         c3     13    bbb     C1    349 0.10137000  12.010000   ; qtot -0.495499
  350         h1     13    bbb     H1    350 0.04411300   1.008000   ; qtot -0.451386
  351         h1     13    bbb     H2    351 0.04411300   1.008000   ; qtot -0.407273
  352         c3     13    bbb     C2    352 0.10137000  12.010000   ; qtot -0.305903
  353         h1     13    bbb     H3    353 0.04411300   1.008000   ; qtot -0.261790
  354         h1     13    bbb     H4    354 0.04411300   1.008000   ; qtot -0.217677
  355         c3     13    bbb     C3    355 -0.00195300  12.010000   ; qtot -0.219630
  356         h1     13    bbb     H5    356 0.05064400   1.008000   ; qtot -0.168986
  357         h1     13    bbb     H6    357 0.05064400   1.008000   ; qtot -0.118342
  358         c3     13    bbb     C4    358 -0.01612100  12.010000   ; qtot -0.134463
  359         hc     13    bbb     H7    359 0.04936100   1.008000   ; qtot -0.085102
  360         hc     13    bbb     H8    360 0.04936100   1.008000   ; qtot -0.035741
  361         c3     13    bbb     C5    361 0.11363000  12.010000   ; qtot 0.077889
  362         hc     13    bbb     H9    362 0.06265900   1.008000   ; qtot 0.140548
  363         hc     13    bbb    H10    363 0.06265900   1.008000   ; qtot 0.203207
  364         c3     13    bbb     C6    364 0.11363000  12.010000   ; qtot 0.316837
  365         hc     13    bbb    H11    365 0.06265900   1.008000   ; qtot 0.379496
  366         hc     13    bbb    H12    366 0.06265900   1.008000   ; qtot 0.442155
  367         c3     13    bbb     C7    367 0.05858200  12.010000   ; qtot 0.500737
  368         h1     13    bbb    H13    368 0.06123400   1.008000   ; qtot 0.561971
  369         h1     13    bbb    H14    369 0.06123400   1.008000   ; qtot 0.623205
  370         c3     13    bbb     C8    370 -0.72423400  12.010000   ; qtot -0.101029
  371         h1     13    bbb    H15    371 0.25637600   1.008000   ; qtot 0.155347
  372         h1     13    bbb    H16    372 0.25637600   1.008000   ; qtot 0.411723
  373         c3     13    bbb     C9    373 -0.72423400  12.010000   ; qtot -0.312511
  374         h1     13    bbb    H17    374 0.25637600   1.008000   ; qtot -0.056135
  375         h1     13    bbb    H18    375 0.25637600   1.008000   ; qtot 0.200241
  376         os     13    bbb     O1    376 -0.20025300  16.000000   ; qtot -0.000012
; residue   14 bbb rtp bbb q -0.0
  377         n3     14    bbb     N1    377 -0.59685800  14.010000   ; qtot -0.596870
  378         c3     14    bbb     C1    378 0.10137000  12.010000   ; qtot -0.495500
  379         h1     14    bbb     H1    379 0.04411300   1.008000   ; qtot -0.451387
  380         h1     14    bbb     H2    380 0.04411300   1.008000   ; qtot -0.407274
  381         c3     14    bbb     C2    381 0.10137000  12.010000   ; qtot -0.305904
  382         h1     14    bbb     H3    382 0.04411300   1.008000   ; qtot -0.261791
  383         h1     14    bbb     H4    383 0.04411300   1.008000   ; qtot -0.217678
  384         c3     14    bbb     C3    384 -0.00195300  12.010000   ; qtot -0.219631
  385         h1     14    bbb     H5    385 0.05064400   1.008000   ; qtot -0.168987
  386         h1     14    bbb     H6    386 0.05064400   1.008000   ; qtot -0.118343
  387         c3     14    bbb     C4    387 -0.01612100  12.010000   ; qtot -0.134464
  388         hc     14    bbb     H7    388 0.04936100   1.008000   ; qtot -0.085103
  389         hc     14    bbb     H8    389 0.04936100   1.008000   ; qtot -0.035742
  390         c3     14    bbb     C5    390 0.11363000  12.010000   ; qtot 0.077888
  391         hc     14    bbb     H9    391 0.06265900   1.008000   ; qtot 0.140547
  392         hc     14    bbb    H10    392 0.06265900   1.008000   ; qtot 0.203206
  393         c3     14    bbb     C6    393 0.11363000  12.010000   ; qtot 0.316836
  394         hc     14    bbb    H11    394 0.06265900   1.008000   ; qtot 0.379495
  395         hc     14    bbb    H12    395 0.06265900   1.008000   ; qtot 0.442154
  396         c3     14    bbb     C7    396 0.05858200  12.010000   ; qtot 0.500736
  397         h1     14    bbb    H13    397 0.06123400   1.008000   ; qtot 0.561970
  398         h1     14    bbb    H14    398 0.06123400   1.008000   ; qtot 0.623204
  399         c3     14    bbb     C8    399 -0.72423400  12.010000   ; qtot -0.101030
  400         h1     14    bbb    H15    400 0.25637600   1.008000   ; qtot 0.155346
  401         h1     14    bbb    H16    401 0.25637600   1.008000   ; qtot 0.411722
  402         c3     14    bbb     C9    402 -0.72423400  12.010000   ; qtot -0.312512
  403         h1     14    bbb    H17    403 0.25637600   1.008000   ; qtot -0.056136
  404         h1     14    bbb    H18    404 0.25637600   1.008000   ; qtot 0.200240
  405         os     14    bbb     O1    405 -0.20025300  16.000000   ; qtot -0.000013
; residue   15 bbb rtp bbb q -0.0
  406         n3     15    bbb     N1    406 -0.59685800  14.010000   ; qtot -0.596871
  407         c3     15    bbb     C1    407 0.10137000  12.010000   ; qtot -0.495501
  408         h1     15    bbb     H1    408 0.04411300   1.008000   ; qtot -0.451388
  409         h1     15    bbb     H2    409 0.04411300   1.008000   ; qtot -0.407275
  410         c3     15    bbb     C2    410 0.10137000  12.010000   ; qtot -0.305905
  411         h1     15    bbb     H3    411 0.04411300   1.008000   ; qtot -0.261792
  412         h1     15    bbb     H4    412 0.04411300   1.008000   ; qtot -0.217679
  413         c3     15    bbb     C3    413 -0.00195300  12.010000   ; qtot -0.219632
  414         h1     15    bbb     H5    414 0.05064400   1.008000   ; qtot -0.168988
  415         h1     15    bbb     H6    415 0.05064400   1.008000   ; qtot -0.118344
  416         c3     15    bbb     C4    416 -0.01612100  12.010000   ; qtot -0.134465
  417         hc     15    bbb     H7    417 0.04936100   1.008000   ; qtot -0.085104
  418         hc     15    bbb     H8    418 0.04936100   1.008000   ; qtot -0.035743
  419         c3     15    bbb     C5    419 0.11363000  12.010000   ; qtot 0.077887
  420         hc     15    bbb     H9    420 0.06265900   1.008000   ; qtot 0.140546
  421         hc     15    bbb    H10    421 0.06265900   1.008000   ; qtot 0.203205
  422         c3     15    bbb     C6    422 0.11363000  12.010000   ; qtot 0.316835
  423         hc     15    bbb    H11    423 0.06265900   1.008000   ; qtot 0.379494
  424         hc     15    bbb    H12    424 0.06265900   1.008000   ; qtot 0.442153
  425         c3     15    bbb     C7    425 0.05858200  12.010000   ; qtot 0.500735
  426         h1     15    bbb    H13    426 0.06123400   1.008000   ; qtot 0.561969
  427         h1     15    bbb    H14    427 0.06123400   1.008000   ; qtot 0.623203
  428         c3     15    bbb     C8    428 -0.72423400  12.010000   ; qtot -0.101031
  429         h1     15    bbb    H15    429 0.25637600   1.008000   ; qtot 0.155345
  430         h1     15    bbb    H16    430 0.25637600   1.008000   ; qtot 0.411721
  431         c3     15    bbb     C9    431 -0.72423400  12.010000   ; qtot -0.312513
  432         h1     15    bbb    H17    432 0.25637600   1.008000   ; qtot -0.056137
  433         h1     15    bbb    H18    433 0.25637600   1.008000   ; qtot 0.200239
  434         os     15    bbb     O1    434 -0.20025300  16.000000   ; qtot -0.000014
; residue   16 bbb rtp bbb q -0.0
  435         n3     16    bbb     N1    435 -0.59685800  14.010000   ; qtot -0.596872
  436         c3     16    bbb     C1    436 0.10137000  12.010000   ; qtot -0.495502
  437         h1     16    bbb     H1    437 0.04411300   1.008000   ; qtot -0.451389
  438         h1     16    bbb     H2    438 0.04411300   1.008000   ; qtot -0.407276
  439         c3     16    bbb     C2    439 0.10137000  12.010000   ; qtot -0.305906
  440         h1     16    bbb     H3    440 0.04411300   1.008000   ; qtot -0.261793
  441         h1     16    bbb     H4    441 0.04411300   1.008000   ; qtot -0.217680
  442         c3     16    bbb     C3    442 -0.00195300  12.010000   ; qtot -0.219633
  443         h1     16    bbb     H5    443 0.05064400   1.008000   ; qtot -0.168989
  444         h1     16    bbb     H6    444 0.05064400   1.008000   ; qtot -0.118345
  445         c3     16    bbb     C4    445 -0.01612100  12.010000   ; qtot -0.134466
  446         hc     16    bbb     H7    446 0.04936100   1.008000   ; qtot -0.085105
  447         hc     16    bbb     H8    447 0.04936100   1.008000   ; qtot -0.035744
  448         c3     16    bbb     C5    448 0.11363000  12.010000   ; qtot 0.077886
  449         hc     16    bbb     H9    449 0.06265900   1.008000   ; qtot 0.140545
  450         hc     16    bbb    H10    450 0.06265900   1.008000   ; qtot 0.203204
  451         c3     16    bbb     C6    451 0.11363000  12.010000   ; qtot 0.316834
  452         hc     16    bbb    H11    452 0.06265900   1.008000   ; qtot 0.379493
  453         hc     16    bbb    H12    453 0.06265900   1.008000   ; qtot 0.442152
  454         c3     16    bbb     C7    454 0.05858200  12.010000   ; qtot 0.500734
  455         h1     16    bbb    H13    455 0.06123400   1.008000   ; qtot 0.561968
  456         h1     16    bbb    H14    456 0.06123400   1.008000   ; qtot 0.623202
  457         c3     16    bbb     C8    457 -0.72423400  12.010000   ; qtot -0.101032
  458         h1     16    bbb    H15    458 0.25637600   1.008000   ; qtot 0.155344
  459         h1     16    bbb    H16    459 0.25637600   1.008000   ; qtot 0.411720
  460         c3     16    bbb     C9    460 -0.72423400  12.010000   ; qtot -0.312514
  461         h1     16    bbb    H17    461 0.25637600   1.008000   ; qtot -0.056138
  462         h1     16    bbb    H18    462 0.25637600   1.008000   ; qtot 0.200238
  463         os     16    bbb     O1    463 -0.20025300  16.000000   ; qtot -0.000015
; residue   17 bbb rtp bbb q -0.0
  464         n3     17    bbb     N1    464 -0.59685800  14.010000   ; qtot -0.596873
  465         c3     17    bbb     C1    465 0.10137000  12.010000   ; qtot -0.495503
  466         h1     17    bbb     H1    466 0.04411300   1.008000   ; qtot -0.451390
  467         h1     17    bbb     H2    467 0.04411300   1.008000   ; qtot -0.407277
  468         c3     17    bbb     C2    468 0.10137000  12.010000   ; qtot -0.305907
  469         h1     17    bbb     H3    469 0.04411300   1.008000   ; qtot -0.261794
  470         h1     17    bbb     H4    470 0.04411300   1.008000   ; qtot -0.217681
  471         c3     17    bbb     C3    471 -0.00195300  12.010000   ; qtot -0.219634
  472         h1     17    bbb     H5    472 0.05064400   1.008000   ; qtot -0.168990
  473         h1     17    bbb     H6    473 0.05064400   1.008000   ; qtot -0.118346
  474         c3     17    bbb     C4    474 -0.01612100  12.010000   ; qtot -0.134467
  475         hc     17    bbb     H7    475 0.04936100   1.008000   ; qtot -0.085106
  476         hc     17    bbb     H8    476 0.04936100   1.008000   ; qtot -0.035745
  477         c3     17    bbb     C5    477 0.11363000  12.010000   ; qtot 0.077885
  478         hc     17    bbb     H9    478 0.06265900   1.008000   ; qtot 0.140544
  479         hc     17    bbb    H10    479 0.06265900   1.008000   ; qtot 0.203203
  480         c3     17    bbb     C6    480 0.11363000  12.010000   ; qtot 0.316833
  481         hc     17    bbb    H11    481 0.06265900   1.008000   ; qtot 0.379492
  482         hc     17    bbb    H12    482 0.06265900   1.008000   ; qtot 0.442151
  483         c3     17    bbb     C7    483 0.05858200  12.010000   ; qtot 0.500733
  484         h1     17    bbb    H13    484 0.06123400   1.008000   ; qtot 0.561967
  485         h1     17    bbb    H14    485 0.06123400   1.008000   ; qtot 0.623201
  486         c3     17    bbb     C8    486 -0.72423400  12.010000   ; qtot -0.101033
  487         h1     17    bbb    H15    487 0.25637600   1.008000   ; qtot 0.155343
  488         h1     17    bbb    H16    488 0.25637600   1.008000   ; qtot 0.411719
  489         c3     17    bbb     C9    489 -0.72423400  12.010000   ; qtot -0.312515
  490         h1     17    bbb    H17    490 0.25637600   1.008000   ; qtot -0.056139
  491         h1     17    bbb    H18    491 0.25637600   1.008000   ; qtot 0.200237
  492         os     17    bbb     O1    492 -0.20025300  16.000000   ; qtot -0.000016
; residue   18 bbb rtp bbb q -0.0
  493         n3     18    bbb     N1    493 -0.59685800  14.010000   ; qtot -0.596874
  494         c3     18    bbb     C1    494 0.10137000  12.010000   ; qtot -0.495504
  495         h1     18    bbb     H1    495 0.04411300   1.008000   ; qtot -0.451391
  496         h1     18    bbb     H2    496 0.04411300   1.008000   ; qtot -0.407278
  497         c3     18    bbb     C2    497 0.10137000  12.010000   ; qtot -0.305908
  498         h1     18    bbb     H3    498 0.04411300   1.008000   ; qtot -0.261795
  499         h1     18    bbb     H4    499 0.04411300   1.008000   ; qtot -0.217682
  500         c3     18    bbb     C3    500 -0.00195300  12.010000   ; qtot -0.219635
  501         h1     18    bbb     H5    501 0.05064400   1.008000   ; qtot -0.168991
  502         h1     18    bbb     H6    502 0.05064400   1.008000   ; qtot -0.118347
  503         c3     18    bbb     C4    503 -0.01612100  12.010000   ; qtot -0.134468
  504         hc     18    bbb     H7    504 0.04936100   1.008000   ; qtot -0.085107
  505         hc     18    bbb     H8    505 0.04936100   1.008000   ; qtot -0.035746
  506         c3     18    bbb     C5    506 0.11363000  12.010000   ; qtot 0.077884
  507         hc     18    bbb     H9    507 0.06265900   1.008000   ; qtot 0.140543
  508         hc     18    bbb    H10    508 0.06265900   1.008000   ; qtot 0.203202
  509         c3     18    bbb     C6    509 0.11363000  12.010000   ; qtot 0.316832
  510         hc     18    bbb    H11    510 0.06265900   1.008000   ; qtot 0.379491
  511         hc     18    bbb    H12    511 0.06265900   1.008000   ; qtot 0.442150
  512         c3     18    bbb     C7    512 0.05858200  12.010000   ; qtot 0.500732
  513         h1     18    bbb    H13    513 0.06123400   1.008000   ; qtot 0.561966
  514         h1     18    bbb    H14    514 0.06123400   1.008000   ; qtot 0.623200
  515         c3     18    bbb     C8    515 -0.72423400  12.010000   ; qtot -0.101034
  516         h1     18    bbb    H15    516 0.25637600   1.008000   ; qtot 0.155342
  517         h1     18    bbb    H16    517 0.25637600   1.008000   ; qtot 0.411718
  518         c3     18    bbb     C9    518 -0.72423400  12.010000   ; qtot -0.312516
  519         h1     18    bbb    H17    519 0.25637600   1.008000   ; qtot -0.056140
  520         h1     18    bbb    H18    520 0.25637600   1.008000   ; qtot 0.200236
  521         os     18    bbb     O1    521 -0.20025300  16.000000   ; qtot -0.000017
; residue   19 bbb rtp bbb q -0.0
  522         n3     19    bbb     N1    522 -0.59685800  14.010000   ; qtot -0.596875
  523         c3     19    bbb     C1    523 0.10137000  12.010000   ; qtot -0.495505
  524         h1     19    bbb     H1    524 0.04411300   1.008000   ; qtot -0.451392
  525         h1     19    bbb     H2    525 0.04411300   1.008000   ; qtot -0.407279
  526         c3     19    bbb     C2    526 0.10137000  12.010000   ; qtot -0.305909
  527         h1     19    bbb     H3    527 0.04411300   1.008000   ; qtot -0.261796
  528         h1     19    bbb     H4    528 0.04411300   1.008000   ; qtot -0.217683
  529         c3     19    bbb     C3    529 -0.00195300  12.010000   ; qtot -0.219636
  530         h1     19    bbb     H5    530 0.05064400   1.008000   ; qtot -0.168992
  531         h1     19    bbb     H6    531 0.05064400   1.008000   ; qtot -0.118348
  532         c3     19    bbb     C4    532 -0.01612100  12.010000   ; qtot -0.134469
  533         hc     19    bbb     H7    533 0.04936100   1.008000   ; qtot -0.085108
  534         hc     19    bbb     H8    534 0.04936100   1.008000   ; qtot -0.035747
  535         c3     19    bbb     C5    535 0.11363000  12.010000   ; qtot 0.077883
  536         hc     19    bbb     H9    536 0.06265900   1.008000   ; qtot 0.140542
  537         hc     19    bbb    H10    537 0.06265900   1.008000   ; qtot 0.203201
  538         c3     19    bbb     C6    538 0.11363000  12.010000   ; qtot 0.316831
  539         hc     19    bbb    H11    539 0.06265900   1.008000   ; qtot 0.379490
  540         hc     19    bbb    H12    540 0.06265900   1.008000   ; qtot 0.442149
  541         c3     19    bbb     C7    541 0.05858200  12.010000   ; qtot 0.500731
  542         h1     19    bbb    H13    542 0.06123400   1.008000   ; qtot 0.561965
  543         h1     19    bbb    H14    543 0.06123400   1.008000   ; qtot 0.623199
  544         c3     19    bbb     C8    544 -0.72423400  12.010000   ; qtot -0.101035
  545         h1     19    bbb    H15    545 0.25637600   1.008000   ; qtot 0.155341
  546         h1     19    bbb    H16    546 0.25637600   1.008000   ; qtot 0.411717
  547         c3     19    bbb     C9    547 -0.72423400  12.010000   ; qtot -0.312517
  548         h1     19    bbb    H17    548 0.25637600   1.008000   ; qtot -0.056141
  549         h1     19    bbb    H18    549 0.25637600   1.008000   ; qtot 0.200235
  550         os     19    bbb     O1    550 -0.20025300  16.000000   ; qtot -0.000018
; residue   20 bbb rtp bbb q -0.0
  551         n3     20    bbb     N1    551 -0.59685800  14.010000   ; qtot -0.596876
  552         c3     20    bbb     C1    552 0.10137000  12.010000   ; qtot -0.495506
  553         h1     20    bbb     H1    553 0.04411300   1.008000   ; qtot -0.451393
  554         h1     20    bbb     H2    554 0.04411300   1.008000   ; qtot -0.407280
  555         c3     20    bbb     C2    555 0.10137000  12.010000   ; qtot -0.305910
  556         h1     20    bbb     H3    556 0.04411300   1.008000   ; qtot -0.261797
  557         h1     20    bbb     H4    557 0.04411300   1.008000   ; qtot -0.217684
  558         c3     20    bbb     C3    558 -0.00195300  12.010000   ; qtot -0.219637
  559         h1     20    bbb     H5    559 0.05064400   1.008000   ; qtot -0.168993
  560         h1     20    bbb     H6    560 0.05064400   1.008000   ; qtot -0.118349
  561         c3     20    bbb     C4    561 -0.01612100  12.010000   ; qtot -0.134470
  562         hc     20    bbb     H7    562 0.04936100   1.008000   ; qtot -0.085109
  563         hc     20    bbb     H8    563 0.04936100   1.008000   ; qtot -0.035748
  564         c3     20    bbb     C5    564 0.11363000  12.010000   ; qtot 0.077882
  565         hc     20    bbb     H9    565 0.06265900   1.008000   ; qtot 0.140541
  566         hc     20    bbb    H10    566 0.06265900   1.008000   ; qtot 0.203200
  567         c3     20    bbb     C6    567 0.11363000  12.010000   ; qtot 0.316830
  568         hc     20    bbb    H11    568 0.06265900   1.008000   ; qtot 0.379489
  569         hc     20    bbb    H12    569 0.06265900   1.008000   ; qtot 0.442148
  570         c3     20    bbb     C7    570 0.05858200  12.010000   ; qtot 0.500730
  571         h1     20    bbb    H13    571 0.06123400   1.008000   ; qtot 0.561964
  572         h1     20    bbb    H14    572 0.06123400   1.008000   ; qtot 0.623198
  573         c3     20    bbb     C8    573 -0.72423400  12.010000   ; qtot -0.101036
  574         h1     20    bbb    H15    574 0.25637600   1.008000   ; qtot 0.155340
  575         h1     20    bbb    H16    575 0.25637600   1.008000   ; qtot 0.411716
  576         c3     20    bbb     C9    576 -0.72423400  12.010000   ; qtot -0.312518
  577         h1     20    bbb    H17    577 0.25637600   1.008000   ; qtot -0.056142
  578         h1     20    bbb    H18    578 0.25637600   1.008000   ; qtot 0.200234
  579         os     20    bbb     O1    579 -0.20025300  16.000000   ; qtot -0.000019
; residue   21 bbb rtp bbb q -0.0
  580         n3     21    bbb     N1    580 -0.59685800  14.010000   ; qtot -0.596877
  581         c3     21    bbb     C1    581 0.10137000  12.010000   ; qtot -0.495507
  582         h1     21    bbb     H1    582 0.04411300   1.008000   ; qtot -0.451394
  583         h1     21    bbb     H2    583 0.04411300   1.008000   ; qtot -0.407281
  584         c3     21    bbb     C2    584 0.10137000  12.010000   ; qtot -0.305911
  585         h1     21    bbb     H3    585 0.04411300   1.008000   ; qtot -0.261798
  586         h1     21    bbb     H4    586 0.04411300   1.008000   ; qtot -0.217685
  587         c3     21    bbb     C3    587 -0.00195300  12.010000   ; qtot -0.219638
  588         h1     21    bbb     H5    588 0.05064400   1.008000   ; qtot -0.168994
  589         h1     21    bbb     H6    589 0.05064400   1.008000   ; qtot -0.118350
  590         c3     21    bbb     C4    590 -0.01612100  12.010000   ; qtot -0.134471
  591         hc     21    bbb     H7    591 0.04936100   1.008000   ; qtot -0.085110
  592         hc     21    bbb     H8    592 0.04936100   1.008000   ; qtot -0.035749
  593         c3     21    bbb     C5    593 0.11363000  12.010000   ; qtot 0.077881
  594         hc     21    bbb     H9    594 0.06265900   1.008000   ; qtot 0.140540
  595         hc     21    bbb    H10    595 0.06265900   1.008000   ; qtot 0.203199
  596         c3     21    bbb     C6    596 0.11363000  12.010000   ; qtot 0.316829
  597         hc     21    bbb    H11    597 0.06265900   1.008000   ; qtot 0.379488
  598         hc     21    bbb    H12    598 0.06265900   1.008000   ; qtot 0.442147
  599         c3     21    bbb     C7    599 0.05858200  12.010000   ; qtot 0.500729
  600         h1     21    bbb    H13    600 0.06123400   1.008000   ; qtot 0.561963
  601         h1     21    bbb    H14    601 0.06123400   1.008000   ; qtot 0.623197
  602         c3     21    bbb     C8    602 -0.72423400  12.010000   ; qtot -0.101037
  603         h1     21    bbb    H15    603 0.25637600   1.008000   ; qtot 0.155339
  604         h1     21    bbb    H16    604 0.25637600   1.008000   ; qtot 0.411715
  605         c3     21    bbb     C9    605 -0.72423400  12.010000   ; qtot -0.312519
  606         h1     21    bbb    H17    606 0.25637600   1.008000   ; qtot -0.056143
  607         h1     21    bbb    H18    607 0.25637600   1.008000   ; qtot 0.200233
  608         os     21    bbb     O1    608 -0.20025300  16.000000   ; qtot -0.000020
; residue   22 bbb rtp bbb q -0.0
  609         n3     22    bbb     N1    609 -0.59685800  14.010000   ; qtot -0.596878
  610         c3     22    bbb     C1    610 0.10137000  12.010000   ; qtot -0.495508
  611         h1     22    bbb     H1    611 0.04411300   1.008000   ; qtot -0.451395
  612         h1     22    bbb     H2    612 0.04411300   1.008000   ; qtot -0.407282
  613         c3     22    bbb     C2    613 0.10137000  12.010000   ; qtot -0.305912
  614         h1     22    bbb     H3    614 0.04411300   1.008000   ; qtot -0.261799
  615         h1     22    bbb     H4    615 0.04411300   1.008000   ; qtot -0.217686
  616         c3     22    bbb     C3    616 -0.00195300  12.010000   ; qtot -0.219639
  617         h1     22    bbb     H5    617 0.05064400   1.008000   ; qtot -0.168995
  618         h1     22    bbb     H6    618 0.05064400   1.008000   ; qtot -0.118351
  619         c3     22    bbb     C4    619 -0.01612100  12.010000   ; qtot -0.134472
  620         hc     22    bbb     H7    620 0.04936100   1.008000   ; qtot -0.085111
  621         hc     22    bbb     H8    621 0.04936100   1.008000   ; qtot -0.035750
  622         c3     22    bbb     C5    622 0.11363000  12.010000   ; qtot 0.077880
  623         hc     22    bbb     H9    623 0.06265900   1.008000   ; qtot 0.140539
  624         hc     22    bbb    H10    624 0.06265900   1.008000   ; qtot 0.203198
  625         c3     22    bbb     C6    625 0.11363000  12.010000   ; qtot 0.316828
  626         hc     22    bbb    H11    626 0.06265900   1.008000   ; qtot 0.379487
  627         hc     22    bbb    H12    627 0.06265900   1.008000   ; qtot 0.442146
  628         c3     22    bbb     C7    628 0.05858200  12.010000   ; qtot 0.500728
  629         h1     22    bbb    H13    629 0.06123400   1.008000   ; qtot 0.561962
  630         h1     22    bbb    H14    630 0.06123400   1.008000   ; qtot 0.623196
  631         c3     22    bbb     C8    631 -0.72423400  12.010000   ; qtot -0.101038
  632         h1     22    bbb    H15    632 0.25637600   1.008000   ; qtot 0.155338
  633         h1     22    bbb    H16    633 0.25637600   1.008000   ; qtot 0.411714
  634         c3     22    bbb     C9    634 -0.72423400  12.010000   ; qtot -0.312520
  635         h1     22    bbb    H17    635 0.25637600   1.008000   ; qtot -0.056144
  636         h1     22    bbb    H18    636 0.25637600   1.008000   ; qtot 0.200232
  637         os     22    bbb     O1    637 -0.20025300  16.000000   ; qtot -0.000021
; residue   23 bbb rtp bbb q -0.0
  638         n3     23    bbb     N1    638 -0.59685800  14.010000   ; qtot -0.596879
  639         c3     23    bbb     C1    639 0.10137000  12.010000   ; qtot -0.495509
  640         h1     23    bbb     H1    640 0.04411300   1.008000   ; qtot -0.451396
  641         h1     23    bbb     H2    641 0.04411300   1.008000   ; qtot -0.407283
  642         c3     23    bbb     C2    642 0.10137000  12.010000   ; qtot -0.305913
  643         h1     23    bbb     H3    643 0.04411300   1.008000   ; qtot -0.261800
  644         h1     23    bbb     H4    644 0.04411300   1.008000   ; qtot -0.217687
  645         c3     23    bbb     C3    645 -0.00195300  12.010000   ; qtot -0.219640
  646         h1     23    bbb     H5    646 0.05064400   1.008000   ; qtot -0.168996
  647         h1     23    bbb     H6    647 0.05064400   1.008000   ; qtot -0.118352
  648         c3     23    bbb     C4    648 -0.01612100  12.010000   ; qtot -0.134473
  649         hc     23    bbb     H7    649 0.04936100   1.008000   ; qtot -0.085112
  650         hc     23    bbb     H8    650 0.04936100   1.008000   ; qtot -0.035751
  651         c3     23    bbb     C5    651 0.11363000  12.010000   ; qtot 0.077879
  652         hc     23    bbb     H9    652 0.06265900   1.008000   ; qtot 0.140538
  653         hc     23    bbb    H10    653 0.06265900   1.008000   ; qtot 0.203197
  654         c3     23    bbb     C6    654 0.11363000  12.010000   ; qtot 0.316827
  655         hc     23    bbb    H11    655 0.06265900   1.008000   ; qtot 0.379486
  656         hc     23    bbb    H12    656 0.06265900   1.008000   ; qtot 0.442145
  657         c3     23    bbb     C7    657 0.05858200  12.010000   ; qtot 0.500727
  658         h1     23    bbb    H13    658 0.06123400   1.008000   ; qtot 0.561961
  659         h1     23    bbb    H14    659 0.06123400   1.008000   ; qtot 0.623195
  660         c3     23    bbb     C8    660 -0.72423400  12.010000   ; qtot -0.101039
  661         h1     23    bbb    H15    661 0.25637600   1.008000   ; qtot 0.155337
  662         h1     23    bbb    H16    662 0.25637600   1.008000   ; qtot 0.411713
  663         c3     23    bbb     C9    663 -0.72423400  12.010000   ; qtot -0.312521
  664         h1     23    bbb    H17    664 0.25637600   1.008000   ; qtot -0.056145
  665         h1     23    bbb    H18    665 0.25637600   1.008000   ; qtot 0.200231
  666         os     23    bbb     O1    666 -0.20025300  16.000000   ; qtot -0.000022
; residue   24 bbb rtp bbb q -0.0
  667         n3     24    bbb     N1    667 -0.59685800  14.010000   ; qtot -0.596880
  668         c3     24    bbb     C1    668 0.10137000  12.010000   ; qtot -0.495510
  669         h1     24    bbb     H1    669 0.04411300   1.008000   ; qtot -0.451397
  670         h1     24    bbb     H2    670 0.04411300   1.008000   ; qtot -0.407284
  671         c3     24    bbb     C2    671 0.10137000  12.010000   ; qtot -0.305914
  672         h1     24    bbb     H3    672 0.04411300   1.008000   ; qtot -0.261801
  673         h1     24    bbb     H4    673 0.04411300   1.008000   ; qtot -0.217688
  674         c3     24    bbb     C3    674 -0.00195300  12.010000   ; qtot -0.219641
  675         h1     24    bbb     H5    675 0.05064400   1.008000   ; qtot -0.168997
  676         h1     24    bbb     H6    676 0.05064400   1.008000   ; qtot -0.118353
  677         c3     24    bbb     C4    677 -0.01612100  12.010000   ; qtot -0.134474
  678         hc     24    bbb     H7    678 0.04936100   1.008000   ; qtot -0.085113
  679         hc     24    bbb     H8    679 0.04936100   1.008000   ; qtot -0.035752
  680         c3     24    bbb     C5    680 0.11363000  12.010000   ; qtot 0.077878
  681         hc     24    bbb     H9    681 0.06265900   1.008000   ; qtot 0.140537
  682         hc     24    bbb    H10    682 0.06265900   1.008000   ; qtot 0.203196
  683         c3     24    bbb     C6    683 0.11363000  12.010000   ; qtot 0.316826
  684         hc     24    bbb    H11    684 0.06265900   1.008000   ; qtot 0.379485
  685         hc     24    bbb    H12    685 0.06265900   1.008000   ; qtot 0.442144
  686         c3     24    bbb     C7    686 0.05858200  12.010000   ; qtot 0.500726
  687         h1     24    bbb    H13    687 0.06123400   1.008000   ; qtot 0.561960
  688         h1     24    bbb    H14    688 0.06123400   1.008000   ; qtot 0.623194
  689         c3     24    bbb     C8    689 -0.72423400  12.010000   ; qtot -0.101040
  690         h1     24    bbb    H15    690 0.25637600   1.008000   ; qtot 0.155336
  691         h1     24    bbb    H16    691 0.25637600   1.008000   ; qtot 0.411712
  692         c3     24    bbb     C9    692 -0.72423400  12.010000   ; qtot -0.312522
  693         h1     24    bbb    H17    693 0.25637600   1.008000   ; qtot -0.056146
  694         h1     24    bbb    H18    694 0.25637600   1.008000   ; qtot 0.200230
  695         os     24    bbb     O1    695 -0.20025300  16.000000   ; qtot -0.000023
; residue   25 bbb rtp bbb q -0.0
  696         n3     25    bbb     N1    696 -0.59685800  14.010000   ; qtot -0.596881
  697         c3     25    bbb     C1    697 0.10137000  12.010000   ; qtot -0.495511
  698         h1     25    bbb     H1    698 0.04411300   1.008000   ; qtot -0.451398
  699         h1     25    bbb     H2    699 0.04411300   1.008000   ; qtot -0.407285
  700         c3     25    bbb     C2    700 0.10137000  12.010000   ; qtot -0.305915
  701         h1     25    bbb     H3    701 0.04411300   1.008000   ; qtot -0.261802
  702         h1     25    bbb     H4    702 0.04411300   1.008000   ; qtot -0.217689
  703         c3     25    bbb     C3    703 -0.00195300  12.010000   ; qtot -0.219642
  704         h1     25    bbb     H5    704 0.05064400   1.008000   ; qtot -0.168998
  705         h1     25    bbb     H6    705 0.05064400   1.008000   ; qtot -0.118354
  706         c3     25    bbb     C4    706 -0.01612100  12.010000   ; qtot -0.134475
  707         hc     25    bbb     H7    707 0.04936100   1.008000   ; qtot -0.085114
  708         hc     25    bbb     H8    708 0.04936100   1.008000   ; qtot -0.035753
  709         c3     25    bbb     C5    709 0.11363000  12.010000   ; qtot 0.077877
  710         hc     25    bbb     H9    710 0.06265900   1.008000   ; qtot 0.140536
  711         hc     25    bbb    H10    711 0.06265900   1.008000   ; qtot 0.203195
  712         c3     25    bbb     C6    712 0.11363000  12.010000   ; qtot 0.316825
  713         hc     25    bbb    H11    713 0.06265900   1.008000   ; qtot 0.379484
  714         hc     25    bbb    H12    714 0.06265900   1.008000   ; qtot 0.442143
  715         c3     25    bbb     C7    715 0.05858200  12.010000   ; qtot 0.500725
  716         h1     25    bbb    H13    716 0.06123400   1.008000   ; qtot 0.561959
  717         h1     25    bbb    H14    717 0.06123400   1.008000   ; qtot 0.623193
  718         c3     25    bbb     C8    718 -0.72423400  12.010000   ; qtot -0.101041
  719         h1     25    bbb    H15    719 0.25637600   1.008000   ; qtot 0.155335
  720         h1     25    bbb    H16    720 0.25637600   1.008000   ; qtot 0.411711
  721         c3     25    bbb     C9    721 -0.72423400  12.010000   ; qtot -0.312523
  722         h1     25    bbb    H17    722 0.25637600   1.008000   ; qtot -0.056147
  723         h1     25    bbb    H18    723 0.25637600   1.008000   ; qtot 0.200229
  724         os     25    bbb     O1    724 -0.20025300  16.000000   ; qtot -0.000024
; residue   26 bbb rtp bbb q -0.0
  725         n3     26    bbb     N1    725 -0.59685800  14.010000   ; qtot -0.596882
  726         c3     26    bbb     C1    726 0.10137000  12.010000   ; qtot -0.495512
  727         h1     26    bbb     H1    727 0.04411300   1.008000   ; qtot -0.451399
  728         h1     26    bbb     H2    728 0.04411300   1.008000   ; qtot -0.407286
  729         c3     26    bbb     C2    729 0.10137000  12.010000   ; qtot -0.305916
  730         h1     26    bbb     H3    730 0.04411300   1.008000   ; qtot -0.261803
  731         h1     26    bbb     H4    731 0.04411300   1.008000   ; qtot -0.217690
  732         c3     26    bbb     C3    732 -0.00195300  12.010000   ; qtot -0.219643
  733         h1     26    bbb     H5    733 0.05064400   1.008000   ; qtot -0.168999
  734         h1     26    bbb     H6    734 0.05064400   1.008000   ; qtot -0.118355
  735         c3     26    bbb     C4    735 -0.01612100  12.010000   ; qtot -0.134476
  736         hc     26    bbb     H7    736 0.04936100   1.008000   ; qtot -0.085115
  737         hc     26    bbb     H8    737 0.04936100   1.008000   ; qtot -0.035754
  738         c3     26    bbb     C5    738 0.11363000  12.010000   ; qtot 0.077876
  739         hc     26    bbb     H9    739 0.06265900   1.008000   ; qtot 0.140535
  740         hc     26    bbb    H10    740 0.06265900   1.008000   ; qtot 0.203194
  741         c3     26    bbb     C6    741 0.11363000  12.010000   ; qtot 0.316824
  742         hc     26    bbb    H11    742 0.06265900   1.008000   ; qtot 0.379483
  743         hc     26    bbb    H12    743 0.06265900   1.008000   ; qtot 0.442142
  744         c3     26    bbb     C7    744 0.05858200  12.010000   ; qtot 0.500724
  745         h1     26    bbb    H13    745 0.06123400   1.008000   ; qtot 0.561958
  746         h1     26    bbb    H14    746 0.06123400   1.008000   ; qtot 0.623192
  747         c3     26    bbb     C8    747 -0.72423400  12.010000   ; qtot -0.101042
  748         h1     26    bbb    H15    748 0.25637600   1.008000   ; qtot 0.155334
  749         h1     26    bbb    H16    749 0.25637600   1.008000   ; qtot 0.411710
  750         c3     26    bbb     C9    750 -0.72423400  12.010000   ; qtot -0.312524
  751         h1     26    bbb    H17    751 0.25637600   1.008000   ; qtot -0.056148
  752         h1     26    bbb    H18    752 0.25637600   1.008000   ; qtot 0.200228
  753         os     26    bbb     O1    753 -0.20025300  16.000000   ; qtot -0.000025
; residue   27 bbb rtp bbb q -0.0
  754         n3     27    bbb     N1    754 -0.59685800  14.010000   ; qtot -0.596883
  755         c3     27    bbb     C1    755 0.10137000  12.010000   ; qtot -0.495513
  756         h1     27    bbb     H1    756 0.04411300   1.008000   ; qtot -0.451400
  757         h1     27    bbb     H2    757 0.04411300   1.008000   ; qtot -0.407287
  758         c3     27    bbb     C2    758 0.10137000  12.010000   ; qtot -0.305917
  759         h1     27    bbb     H3    759 0.04411300   1.008000   ; qtot -0.261804
  760         h1     27    bbb     H4    760 0.04411300   1.008000   ; qtot -0.217691
  761         c3     27    bbb     C3    761 -0.00195300  12.010000   ; qtot -0.219644
  762         h1     27    bbb     H5    762 0.05064400   1.008000   ; qtot -0.169000
  763         h1     27    bbb     H6    763 0.05064400   1.008000   ; qtot -0.118356
  764         c3     27    bbb     C4    764 -0.01612100  12.010000   ; qtot -0.134477
  765         hc     27    bbb     H7    765 0.04936100   1.008000   ; qtot -0.085116
  766         hc     27    bbb     H8    766 0.04936100   1.008000   ; qtot -0.035755
  767         c3     27    bbb     C5    767 0.11363000  12.010000   ; qtot 0.077875
  768         hc     27    bbb     H9    768 0.06265900   1.008000   ; qtot 0.140534
  769         hc     27    bbb    H10    769 0.06265900   1.008000   ; qtot 0.203193
  770         c3     27    bbb     C6    770 0.11363000  12.010000   ; qtot 0.316823
  771         hc     27    bbb    H11    771 0.06265900   1.008000   ; qtot 0.379482
  772         hc     27    bbb    H12    772 0.06265900   1.008000   ; qtot 0.442141
  773         c3     27    bbb     C7    773 0.05858200  12.010000   ; qtot 0.500723
  774         h1     27    bbb    H13    774 0.06123400   1.008000   ; qtot 0.561957
  775         h1     27    bbb    H14    775 0.06123400   1.008000   ; qtot 0.623191
  776         c3     27    bbb     C8    776 -0.72423400  12.010000   ; qtot -0.101043
  777         h1     27    bbb    H15    777 0.25637600   1.008000   ; qtot 0.155333
  778         h1     27    bbb    H16    778 0.25637600   1.008000   ; qtot 0.411709
  779         c3     27    bbb     C9    779 -0.72423400  12.010000   ; qtot -0.312525
  780         h1     27    bbb    H17    780 0.25637600   1.008000   ; qtot -0.056149
  781         h1     27    bbb    H18    781 0.25637600   1.008000   ; qtot 0.200227
  782         os     27    bbb     O1    782 -0.20025300  16.000000   ; qtot -0.000026
; residue   28 bbb rtp bbb q -0.0
  783         n3     28    bbb     N1    783 -0.59685800  14.010000   ; qtot -0.596884
  784         c3     28    bbb     C1    784 0.10137000  12.010000   ; qtot -0.495514
  785         h1     28    bbb     H1    785 0.04411300   1.008000   ; qtot -0.451401
  786         h1     28    bbb     H2    786 0.04411300   1.008000   ; qtot -0.407288
  787         c3     28    bbb     C2    787 0.10137000  12.010000   ; qtot -0.305918
  788         h1     28    bbb     H3    788 0.04411300   1.008000   ; qtot -0.261805
  789         h1     28    bbb     H4    789 0.04411300   1.008000   ; qtot -0.217692
  790         c3     28    bbb     C3    790 -0.00195300  12.010000   ; qtot -0.219645
  791         h1     28    bbb     H5    791 0.05064400   1.008000   ; qtot -0.169001
  792         h1     28    bbb     H6    792 0.05064400   1.008000   ; qtot -0.118357
  793         c3     28    bbb     C4    793 -0.01612100  12.010000   ; qtot -0.134478
  794         hc     28    bbb     H7    794 0.04936100   1.008000   ; qtot -0.085117
  795         hc     28    bbb     H8    795 0.04936100   1.008000   ; qtot -0.035756
  796         c3     28    bbb     C5    796 0.11363000  12.010000   ; qtot 0.077874
  797         hc     28    bbb     H9    797 0.06265900   1.008000   ; qtot 0.140533
  798         hc     28    bbb    H10    798 0.06265900   1.008000   ; qtot 0.203192
  799         c3     28    bbb     C6    799 0.11363000  12.010000   ; qtot 0.316822
  800         hc     28    bbb    H11    800 0.06265900   1.008000   ; qtot 0.379481
  801         hc     28    bbb    H12    801 0.06265900   1.008000   ; qtot 0.442140
  802         c3     28    bbb     C7    802 0.05858200  12.010000   ; qtot 0.500722
  803         h1     28    bbb    H13    803 0.06123400   1.008000   ; qtot 0.561956
  804         h1     28    bbb    H14    804 0.06123400   1.008000   ; qtot 0.623190
  805         c3     28    bbb     C8    805 -0.72423400  12.010000   ; qtot -0.101044
  806         h1     28    bbb    H15    806 0.25637600   1.008000   ; qtot 0.155332
  807         h1     28    bbb    H16    807 0.25637600   1.008000   ; qtot 0.411708
  808         c3     28    bbb     C9    808 -0.72423400  12.010000   ; qtot -0.312526
  809         h1     28    bbb    H17    809 0.25637600   1.008000   ; qtot -0.056150
  810         h1     28    bbb    H18    810 0.25637600   1.008000   ; qtot 0.200226
  811         os     28    bbb     O1    811 -0.20025300  16.000000   ; qtot -0.000027
; residue   29 bbb rtp bbb q -0.0
  812         n3     29    bbb     N1    812 -0.59685800  14.010000   ; qtot -0.596885
  813         c3     29    bbb     C1    813 0.10137000  12.010000   ; qtot -0.495515
  814         h1     29    bbb     H1    814 0.04411300   1.008000   ; qtot -0.451402
  815         h1     29    bbb     H2    815 0.04411300   1.008000   ; qtot -0.407289
  816         c3     29    bbb     C2    816 0.10137000  12.010000   ; qtot -0.305919
  817         h1     29    bbb     H3    817 0.04411300   1.008000   ; qtot -0.261806
  818         h1     29    bbb     H4    818 0.04411300   1.008000   ; qtot -0.217693
  819         c3     29    bbb     C3    819 -0.00195300  12.010000   ; qtot -0.219646
  820         h1     29    bbb     H5    820 0.05064400   1.008000   ; qtot -0.169002
  821         h1     29    bbb     H6    821 0.05064400   1.008000   ; qtot -0.118358
  822         c3     29    bbb     C4    822 -0.01612100  12.010000   ; qtot -0.134479
  823         hc     29    bbb     H7    823 0.04936100   1.008000   ; qtot -0.085118
  824         hc     29    bbb     H8    824 0.04936100   1.008000   ; qtot -0.035757
  825         c3     29    bbb     C5    825 0.11363000  12.010000   ; qtot 0.077873
  826         hc     29    bbb     H9    826 0.06265900   1.008000   ; qtot 0.140532
  827         hc     29    bbb    H10    827 0.06265900   1.008000   ; qtot 0.203191
  828         c3     29    bbb     C6    828 0.11363000  12.010000   ; qtot 0.316821
  829         hc     29    bbb    H11    829 0.06265900   1.008000   ; qtot 0.379480
  830         hc     29    bbb    H12    830 0.06265900   1.008000   ; qtot 0.442139
  831         c3     29    bbb     C7    831 0.05858200  12.010000   ; qtot 0.500721
  832         h1     29    bbb    H13    832 0.06123400   1.008000   ; qtot 0.561955
  833         h1     29    bbb    H14    833 0.06123400   1.008000   ; qtot 0.623189
  834         c3     29    bbb     C8    834 -0.72423400  12.010000   ; qtot -0.101045
  835         h1     29    bbb    H15    835 0.25637600   1.008000   ; qtot 0.155331
  836         h1     29    bbb    H16    836 0.25637600   1.008000   ; qtot 0.411707
  837         c3     29    bbb     C9    837 -0.72423400  12.010000   ; qtot -0.312527
  838         h1     29    bbb    H17    838 0.25637600   1.008000   ; qtot -0.056151
  839         h1     29    bbb    H18    839 0.25637600   1.008000   ; qtot 0.200225
  840         os     29    bbb     O1    840 -0.20025300  16.000000   ; qtot -0.000028
; residue   30 bbb rtp bbb q -0.0
  841         n3     30    bbb     N1    841 -0.59685800  14.010000   ; qtot -0.596886
  842         c3     30    bbb     C1    842 0.10137000  12.010000   ; qtot -0.495516
  843         h1     30    bbb     H1    843 0.04411300   1.008000   ; qtot -0.451403
  844         h1     30    bbb     H2    844 0.04411300   1.008000   ; qtot -0.407290
  845         c3     30    bbb     C2    845 0.10137000  12.010000   ; qtot -0.305920
  846         h1     30    bbb     H3    846 0.04411300   1.008000   ; qtot -0.261807
  847         h1     30    bbb     H4    847 0.04411300   1.008000   ; qtot -0.217694
  848         c3     30    bbb     C3    848 -0.00195300  12.010000   ; qtot -0.219647
  849         h1     30    bbb     H5    849 0.05064400   1.008000   ; qtot -0.169003
  850         h1     30    bbb     H6    850 0.05064400   1.008000   ; qtot -0.118359
  851         c3     30    bbb     C4    851 -0.01612100  12.010000   ; qtot -0.134480
  852         hc     30    bbb     H7    852 0.04936100   1.008000   ; qtot -0.085119
  853         hc     30    bbb     H8    853 0.04936100   1.008000   ; qtot -0.035758
  854         c3     30    bbb     C5    854 0.11363000  12.010000   ; qtot 0.077872
  855         hc     30    bbb     H9    855 0.06265900   1.008000   ; qtot 0.140531
  856         hc     30    bbb    H10    856 0.06265900   1.008000   ; qtot 0.203190
  857         c3     30    bbb     C6    857 0.11363000  12.010000   ; qtot 0.316820
  858         hc     30    bbb    H11    858 0.06265900   1.008000   ; qtot 0.379479
  859         hc     30    bbb    H12    859 0.06265900   1.008000   ; qtot 0.442138
  860         c3     30    bbb     C7    860 0.05858200  12.010000   ; qtot 0.500720
  861         h1     30    bbb    H13    861 0.06123400   1.008000   ; qtot 0.561954
  862         h1     30    bbb    H14    862 0.06123400   1.008000   ; qtot 0.623188
  863         c3     30    bbb     C8    863 -0.72423400  12.010000   ; qtot -0.101046
  864         h1     30    bbb    H15    864 0.25637600   1.008000   ; qtot 0.155330
  865         h1     30    bbb    H16    865 0.25637600   1.008000   ; qtot 0.411706
  866         c3     30    bbb     C9    866 -0.72423400  12.010000   ; qtot -0.312528
  867         h1     30    bbb    H17    867 0.25637600   1.008000   ; qtot -0.056152
  868         h1     30    bbb    H18    868 0.25637600   1.008000   ; qtot 0.200224
  869         os     30    bbb     O1    869 -0.20025300  16.000000   ; qtot -0.000029
; residue   31 bbb rtp bbb q -0.0
  870         n3     31    bbb     N1    870 -0.59685800  14.010000   ; qtot -0.596887
  871         c3     31    bbb     C1    871 0.10137000  12.010000   ; qtot -0.495517
  872         h1     31    bbb     H1    872 0.04411300   1.008000   ; qtot -0.451404
  873         h1     31    bbb     H2    873 0.04411300   1.008000   ; qtot -0.407291
  874         c3     31    bbb     C2    874 0.10137000  12.010000   ; qtot -0.305921
  875         h1     31    bbb     H3    875 0.04411300   1.008000   ; qtot -0.261808
  876         h1     31    bbb     H4    876 0.04411300   1.008000   ; qtot -0.217695
  877         c3     31    bbb     C3    877 -0.00195300  12.010000   ; qtot -0.219648
  878         h1     31    bbb     H5    878 0.05064400   1.008000   ; qtot -0.169004
  879         h1     31    bbb     H6    879 0.05064400   1.008000   ; qtot -0.118360
  880         c3     31    bbb     C4    880 -0.01612100  12.010000   ; qtot -0.134481
  881         hc     31    bbb     H7    881 0.04936100   1.008000   ; qtot -0.085120
  882         hc     31    bbb     H8    882 0.04936100   1.008000   ; qtot -0.035759
  883         c3     31    bbb     C5    883 0.11363000  12.010000   ; qtot 0.077871
  884         hc     31    bbb     H9    884 0.06265900   1.008000   ; qtot 0.140530
  885         hc     31    bbb    H10    885 0.06265900   1.008000   ; qtot 0.203189
  886         c3     31    bbb     C6    886 0.11363000  12.010000   ; qtot 0.316819
  887         hc     31    bbb    H11    887 0.06265900   1.008000   ; qtot 0.379478
  888         hc     31    bbb    H12    888 0.06265900   1.008000   ; qtot 0.442137
  889         c3     31    bbb     C7    889 0.05858200  12.010000   ; qtot 0.500719
  890         h1     31    bbb    H13    890 0.06123400   1.008000   ; qtot 0.561953
  891         h1     31    bbb    H14    891 0.06123400   1.008000   ; qtot 0.623187
  892         c3     31    bbb     C8    892 -0.72423400  12.010000   ; qtot -0.101047
  893         h1     31    bbb    H15    893 0.25637600   1.008000   ; qtot 0.155329
  894         h1     31    bbb    H16    894 0.25637600   1.008000   ; qtot 0.411705
  895         c3     31    bbb     C9    895 -0.72423400  12.010000   ; qtot -0.312529
  896         h1     31    bbb    H17    896 0.25637600   1.008000   ; qtot -0.056153
  897         h1     31    bbb    H18    897 0.25637600   1.008000   ; qtot 0.200223
  898         os     31    bbb     O1    898 -0.20025300  16.000000   ; qtot -0.000030
; residue   32 bbb rtp bbb q -0.0
  899         n3     32    bbb     N1    899 -0.59685800  14.010000   ; qtot -0.596888
  900         c3     32    bbb     C1    900 0.10137000  12.010000   ; qtot -0.495518
  901         h1     32    bbb     H1    901 0.04411300   1.008000   ; qtot -0.451405
  902         h1     32    bbb     H2    902 0.04411300   1.008000   ; qtot -0.407292
  903         c3     32    bbb     C2    903 0.10137000  12.010000   ; qtot -0.305922
  904         h1     32    bbb     H3    904 0.04411300   1.008000   ; qtot -0.261809
  905         h1     32    bbb     H4    905 0.04411300   1.008000   ; qtot -0.217696
  906         c3     32    bbb     C3    906 -0.00195300  12.010000   ; qtot -0.219649
  907         h1     32    bbb     H5    907 0.05064400   1.008000   ; qtot -0.169005
  908         h1     32    bbb     H6    908 0.05064400   1.008000   ; qtot -0.118361
  909         c3     32    bbb     C4    909 -0.01612100  12.010000   ; qtot -0.134482
  910         hc     32    bbb     H7    910 0.04936100   1.008000   ; qtot -0.085121
  911         hc     32    bbb     H8    911 0.04936100   1.008000   ; qtot -0.035760
  912         c3     32    bbb     C5    912 0.11363000  12.010000   ; qtot 0.077870
  913         hc     32    bbb     H9    913 0.06265900   1.008000   ; qtot 0.140529
  914         hc     32    bbb    H10    914 0.06265900   1.008000   ; qtot 0.203188
  915         c3     32    bbb     C6    915 0.11363000  12.010000   ; qtot 0.316818
  916         hc     32    bbb    H11    916 0.06265900   1.008000   ; qtot 0.379477
  917         hc     32    bbb    H12    917 0.06265900   1.008000   ; qtot 0.442136
  918         c3     32    bbb     C7    918 0.05858200  12.010000   ; qtot 0.500718
  919         h1     32    bbb    H13    919 0.06123400   1.008000   ; qtot 0.561952
  920         h1     32    bbb    H14    920 0.06123400   1.008000   ; qtot 0.623186
  921         c3     32    bbb     C8    921 -0.72423400  12.010000   ; qtot -0.101048
  922         h1     32    bbb    H15    922 0.25637600   1.008000   ; qtot 0.155328
  923         h1     32    bbb    H16    923 0.25637600   1.008000   ; qtot 0.411704
  924         c3     32    bbb     C9    924 -0.72423400  12.010000   ; qtot -0.312530
  925         h1     32    bbb    H17    925 0.25637600   1.008000   ; qtot -0.056154
  926         h1     32    bbb    H18    926 0.25637600   1.008000   ; qtot 0.200222
  927         os     32    bbb     O1    927 -0.20025300  16.000000   ; qtot -0.000031
; residue   33 bbb rtp bbb q -0.0
  928         n3     33    bbb     N1    928 -0.59685800  14.010000   ; qtot -0.596889
  929         c3     33    bbb     C1    929 0.10137000  12.010000   ; qtot -0.495519
  930         h1     33    bbb     H1    930 0.04411300   1.008000   ; qtot -0.451406
  931         h1     33    bbb     H2    931 0.04411300   1.008000   ; qtot -0.407293
  932         c3     33    bbb     C2    932 0.10137000  12.010000   ; qtot -0.305923
  933         h1     33    bbb     H3    933 0.04411300   1.008000   ; qtot -0.261810
  934         h1     33    bbb     H4    934 0.04411300   1.008000   ; qtot -0.217697
  935         c3     33    bbb     C3    935 -0.00195300  12.010000   ; qtot -0.219650
  936         h1     33    bbb     H5    936 0.05064400   1.008000   ; qtot -0.169006
  937         h1     33    bbb     H6    937 0.05064400   1.008000   ; qtot -0.118362
  938         c3     33    bbb     C4    938 -0.01612100  12.010000   ; qtot -0.134483
  939         hc     33    bbb     H7    939 0.04936100   1.008000   ; qtot -0.085122
  940         hc     33    bbb     H8    940 0.04936100   1.008000   ; qtot -0.035761
  941         c3     33    bbb     C5    941 0.11363000  12.010000   ; qtot 0.077869
  942         hc     33    bbb     H9    942 0.06265900   1.008000   ; qtot 0.140528
  943         hc     33    bbb    H10    943 0.06265900   1.008000   ; qtot 0.203187
  944         c3     33    bbb     C6    944 0.11363000  12.010000   ; qtot 0.316817
  945         hc     33    bbb    H11    945 0.06265900   1.008000   ; qtot 0.379476
  946         hc     33    bbb    H12    946 0.06265900   1.008000   ; qtot 0.442135
  947         c3     33    bbb     C7    947 0.05858200  12.010000   ; qtot 0.500717
  948         h1     33    bbb    H13    948 0.06123400   1.008000   ; qtot 0.561951
  949         h1     33    bbb    H14    949 0.06123400   1.008000   ; qtot 0.623185
  950         c3     33    bbb     C8    950 -0.72423400  12.010000   ; qtot -0.101049
  951         h1     33    bbb    H15    951 0.25637600   1.008000   ; qtot 0.155327
  952         h1     33    bbb    H16    952 0.25637600   1.008000   ; qtot 0.411703
  953         c3     33    bbb     C9    953 -0.72423400  12.010000   ; qtot -0.312531
  954         h1     33    bbb    H17    954 0.25637600   1.008000   ; qtot -0.056155
  955         h1     33    bbb    H18    955 0.25637600   1.008000   ; qtot 0.200221
  956         os     33    bbb     O1    956 -0.20025300  16.000000   ; qtot -0.000032
; residue   34 bbb rtp bbb q -0.0
  957         n3     34    bbb     N1    957 -0.59685800  14.010000   ; qtot -0.596890
  958         c3     34    bbb     C1    958 0.10137000  12.010000   ; qtot -0.495520
  959         h1     34    bbb     H1    959 0.04411300   1.008000   ; qtot -0.451407
  960         h1     34    bbb     H2    960 0.04411300   1.008000   ; qtot -0.407294
  961         c3     34    bbb     C2    961 0.10137000  12.010000   ; qtot -0.305924
  962         h1     34    bbb     H3    962 0.04411300   1.008000   ; qtot -0.261811
  963         h1     34    bbb     H4    963 0.04411300   1.008000   ; qtot -0.217698
  964         c3     34    bbb     C3    964 -0.00195300  12.010000   ; qtot -0.219651
  965         h1     34    bbb     H5    965 0.05064400   1.008000   ; qtot -0.169007
  966         h1     34    bbb     H6    966 0.05064400   1.008000   ; qtot -0.118363
  967         c3     34    bbb     C4    967 -0.01612100  12.010000   ; qtot -0.134484
  968         hc     34    bbb     H7    968 0.04936100   1.008000   ; qtot -0.085123
  969         hc     34    bbb     H8    969 0.04936100   1.008000   ; qtot -0.035762
  970         c3     34    bbb     C5    970 0.11363000  12.010000   ; qtot 0.077868
  971         hc     34    bbb     H9    971 0.06265900   1.008000   ; qtot 0.140527
  972         hc     34    bbb    H10    972 0.06265900   1.008000   ; qtot 0.203186
  973         c3     34    bbb     C6    973 0.11363000  12.010000   ; qtot 0.316816
  974         hc     34    bbb    H11    974 0.06265900   1.008000   ; qtot 0.379475
  975         hc     34    bbb    H12    975 0.06265900   1.008000   ; qtot 0.442134
  976         c3     34    bbb     C7    976 0.05858200  12.010000   ; qtot 0.500716
  977         h1     34    bbb    H13    977 0.06123400   1.008000   ; qtot 0.561950
  978         h1     34    bbb    H14    978 0.06123400   1.008000   ; qtot 0.623184
  979         c3     34    bbb     C8    979 -0.72423400  12.010000   ; qtot -0.101050
  980         h1     34    bbb    H15    980 0.25637600   1.008000   ; qtot 0.155326
  981         h1     34    bbb    H16    981 0.25637600   1.008000   ; qtot 0.411702
  982         c3     34    bbb     C9    982 -0.72423400  12.010000   ; qtot -0.312532
  983         h1     34    bbb    H17    983 0.25637600   1.008000   ; qtot -0.056156
  984         h1     34    bbb    H18    984 0.25637600   1.008000   ; qtot 0.200220
  985         os     34    bbb     O1    985 -0.20025300  16.000000   ; qtot -0.000033
; residue   35 bbb rtp bbb q -0.0
  986         n3     35    bbb     N1    986 -0.59685800  14.010000   ; qtot -0.596891
  987         c3     35    bbb     C1    987 0.10137000  12.010000   ; qtot -0.495521
  988         h1     35    bbb     H1    988 0.04411300   1.008000   ; qtot -0.451408
  989         h1     35    bbb     H2    989 0.04411300   1.008000   ; qtot -0.407295
  990         c3     35    bbb     C2    990 0.10137000  12.010000   ; qtot -0.305925
  991         h1     35    bbb     H3    991 0.04411300   1.008000   ; qtot -0.261812
  992         h1     35    bbb     H4    992 0.04411300   1.008000   ; qtot -0.217699
  993         c3     35    bbb     C3    993 -0.00195300  12.010000   ; qtot -0.219652
  994         h1     35    bbb     H5    994 0.05064400   1.008000   ; qtot -0.169008
  995         h1     35    bbb     H6    995 0.05064400   1.008000   ; qtot -0.118364
  996         c3     35    bbb     C4    996 -0.01612100  12.010000   ; qtot -0.134485
  997         hc     35    bbb     H7    997 0.04936100   1.008000   ; qtot -0.085124
  998         hc     35    bbb     H8    998 0.04936100   1.008000   ; qtot -0.035763
  999         c3     35    bbb     C5    999 0.11363000  12.010000   ; qtot 0.077867
 1000         hc     35    bbb     H9   1000 0.06265900   1.008000   ; qtot 0.140526
 1001         hc     35    bbb    H10   1001 0.06265900   1.008000   ; qtot 0.203185
 1002         c3     35    bbb     C6   1002 0.11363000  12.010000   ; qtot 0.316815
 1003         hc     35    bbb    H11   1003 0.06265900   1.008000   ; qtot 0.379474
 1004         hc     35    bbb    H12   1004 0.06265900   1.008000   ; qtot 0.442133
 1005         c3     35    bbb     C7   1005 0.05858200  12.010000   ; qtot 0.500715
 1006         h1     35    bbb    H13   1006 0.06123400   1.008000   ; qtot 0.561949
 1007         h1     35    bbb    H14   1007 0.06123400   1.008000   ; qtot 0.623183
 1008         c3     35    bbb     C8   1008 -0.72423400  12.010000   ; qtot -0.101051
 1009         h1     35    bbb    H15   1009 0.25637600   1.008000   ; qtot 0.155325
 1010         h1     35    bbb    H16   1010 0.25637600   1.008000   ; qtot 0.411701
 1011         c3     35    bbb     C9   1011 -0.72423400  12.010000   ; qtot -0.312533
 1012         h1     35    bbb    H17   1012 0.25637600   1.008000   ; qtot -0.056157
 1013         h1     35    bbb    H18   1013 0.25637600   1.008000   ; qtot 0.200219
 1014         os     35    bbb     O1   1014 -0.20025300  16.000000   ; qtot -0.000034
; residue   36 bbb rtp bbb q -0.0
 1015         n3     36    bbb     N1   1015 -0.59685800  14.010000   ; qtot -0.596892
 1016         c3     36    bbb     C1   1016 0.10137000  12.010000   ; qtot -0.495522
 1017         h1     36    bbb     H1   1017 0.04411300   1.008000   ; qtot -0.451409
 1018         h1     36    bbb     H2   1018 0.04411300   1.008000   ; qtot -0.407296
 1019         c3     36    bbb     C2   1019 0.10137000  12.010000   ; qtot -0.305926
 1020         h1     36    bbb     H3   1020 0.04411300   1.008000   ; qtot -0.261813
 1021         h1     36    bbb     H4   1021 0.04411300   1.008000   ; qtot -0.217700
 1022         c3     36    bbb     C3   1022 -0.00195300  12.010000   ; qtot -0.219653
 1023         h1     36    bbb     H5   1023 0.05064400   1.008000   ; qtot -0.169009
 1024         h1     36    bbb     H6   1024 0.05064400   1.008000   ; qtot -0.118365
 1025         c3     36    bbb     C4   1025 -0.01612100  12.010000   ; qtot -0.134486
 1026         hc     36    bbb     H7   1026 0.04936100   1.008000   ; qtot -0.085125
 1027         hc     36    bbb     H8   1027 0.04936100   1.008000   ; qtot -0.035764
 1028         c3     36    bbb     C5   1028 0.11363000  12.010000   ; qtot 0.077866
 1029         hc     36    bbb     H9   1029 0.06265900   1.008000   ; qtot 0.140525
 1030         hc     36    bbb    H10   1030 0.06265900   1.008000   ; qtot 0.203184
 1031         c3     36    bbb     C6   1031 0.11363000  12.010000   ; qtot 0.316814
 1032         hc     36    bbb    H11   1032 0.06265900   1.008000   ; qtot 0.379473
 1033         hc     36    bbb    H12   1033 0.06265900   1.008000   ; qtot 0.442132
 1034         c3     36    bbb     C7   1034 0.05858200  12.010000   ; qtot 0.500714
 1035         h1     36    bbb    H13   1035 0.06123400   1.008000   ; qtot 0.561948
 1036         h1     36    bbb    H14   1036 0.06123400   1.008000   ; qtot 0.623182
 1037         c3     36    bbb     C8   1037 -0.72423400  12.010000   ; qtot -0.101052
 1038         h1     36    bbb    H15   1038 0.25637600   1.008000   ; qtot 0.155324
 1039         h1     36    bbb    H16   1039 0.25637600   1.008000   ; qtot 0.411700
 1040         c3     36    bbb     C9   1040 -0.72423400  12.010000   ; qtot -0.312534
 1041         h1     36    bbb    H17   1041 0.25637600   1.008000   ; qtot -0.056158
 1042         h1     36    bbb    H18   1042 0.25637600   1.008000   ; qtot 0.200218
 1043         os     36    bbb     O1   1043 -0.20025300  16.000000   ; qtot -0.000035
; residue   37 bbb rtp bbb q -0.0
 1044         n3     37    bbb     N1   1044 -0.59685800  14.010000   ; qtot -0.596893
 1045         c3     37    bbb     C1   1045 0.10137000  12.010000   ; qtot -0.495523
 1046         h1     37    bbb     H1   1046 0.04411300   1.008000   ; qtot -0.451410
 1047         h1     37    bbb     H2   1047 0.04411300   1.008000   ; qtot -0.407297
 1048         c3     37    bbb     C2   1048 0.10137000  12.010000   ; qtot -0.305927
 1049         h1     37    bbb     H3   1049 0.04411300   1.008000   ; qtot -0.261814
 1050         h1     37    bbb     H4   1050 0.04411300   1.008000   ; qtot -0.217701
 1051         c3     37    bbb     C3   1051 -0.00195300  12.010000   ; qtot -0.219654
 1052         h1     37    bbb     H5   1052 0.05064400   1.008000   ; qtot -0.169010
 1053         h1     37    bbb     H6   1053 0.05064400   1.008000   ; qtot -0.118366
 1054         c3     37    bbb     C4   1054 -0.01612100  12.010000   ; qtot -0.134487
 1055         hc     37    bbb     H7   1055 0.04936100   1.008000   ; qtot -0.085126
 1056         hc     37    bbb     H8   1056 0.04936100   1.008000   ; qtot -0.035765
 1057         c3     37    bbb     C5   1057 0.11363000  12.010000   ; qtot 0.077865
 1058         hc     37    bbb     H9   1058 0.06265900   1.008000   ; qtot 0.140524
 1059         hc     37    bbb    H10   1059 0.06265900   1.008000   ; qtot 0.203183
 1060         c3     37    bbb     C6   1060 0.11363000  12.010000   ; qtot 0.316813
 1061         hc     37    bbb    H11   1061 0.06265900   1.008000   ; qtot 0.379472
 1062         hc     37    bbb    H12   1062 0.06265900   1.008000   ; qtot 0.442131
 1063         c3     37    bbb     C7   1063 0.05858200  12.010000   ; qtot 0.500713
 1064         h1     37    bbb    H13   1064 0.06123400   1.008000   ; qtot 0.561947
 1065         h1     37    bbb    H14   1065 0.06123400   1.008000   ; qtot 0.623181
 1066         c3     37    bbb     C8   1066 -0.72423400  12.010000   ; qtot -0.101053
 1067         h1     37    bbb    H15   1067 0.25637600   1.008000   ; qtot 0.155323
 1068         h1     37    bbb    H16   1068 0.25637600   1.008000   ; qtot 0.411699
 1069         c3     37    bbb     C9   1069 -0.72423400  12.010000   ; qtot -0.312535
 1070         h1     37    bbb    H17   1070 0.25637600   1.008000   ; qtot -0.056159
 1071         h1     37    bbb    H18   1071 0.25637600   1.008000   ; qtot 0.200217
 1072         os     37    bbb     O1   1072 -0.20025300  16.000000   ; qtot -0.000036
; residue   38 bbb rtp bbb q -0.0
 1073         n3     38    bbb     N1   1073 -0.59685800  14.010000   ; qtot -0.596894
 1074         c3     38    bbb     C1   1074 0.10137000  12.010000   ; qtot -0.495524
 1075         h1     38    bbb     H1   1075 0.04411300   1.008000   ; qtot -0.451411
 1076         h1     38    bbb     H2   1076 0.04411300   1.008000   ; qtot -0.407298
 1077         c3     38    bbb     C2   1077 0.10137000  12.010000   ; qtot -0.305928
 1078         h1     38    bbb     H3   1078 0.04411300   1.008000   ; qtot -0.261815
 1079         h1     38    bbb     H4   1079 0.04411300   1.008000   ; qtot -0.217702
 1080         c3     38    bbb     C3   1080 -0.00195300  12.010000   ; qtot -0.219655
 1081         h1     38    bbb     H5   1081 0.05064400   1.008000   ; qtot -0.169011
 1082         h1     38    bbb     H6   1082 0.05064400   1.008000   ; qtot -0.118367
 1083         c3     38    bbb     C4   1083 -0.01612100  12.010000   ; qtot -0.134488
 1084         hc     38    bbb     H7   1084 0.04936100   1.008000   ; qtot -0.085127
 1085         hc     38    bbb     H8   1085 0.04936100   1.008000   ; qtot -0.035766
 1086         c3     38    bbb     C5   1086 0.11363000  12.010000   ; qtot 0.077864
 1087         hc     38    bbb     H9   1087 0.06265900   1.008000   ; qtot 0.140523
 1088         hc     38    bbb    H10   1088 0.06265900   1.008000   ; qtot 0.203182
 1089         c3     38    bbb     C6   1089 0.11363000  12.010000   ; qtot 0.316812
 1090         hc     38    bbb    H11   1090 0.06265900   1.008000   ; qtot 0.379471
 1091         hc     38    bbb    H12   1091 0.06265900   1.008000   ; qtot 0.442130
 1092         c3     38    bbb     C7   1092 0.05858200  12.010000   ; qtot 0.500712
 1093         h1     38    bbb    H13   1093 0.06123400   1.008000   ; qtot 0.561946
 1094         h1     38    bbb    H14   1094 0.06123400   1.008000   ; qtot 0.623180
 1095         c3     38    bbb     C8   1095 -0.72423400  12.010000   ; qtot -0.101054
 1096         h1     38    bbb    H15   1096 0.25637600   1.008000   ; qtot 0.155322
 1097         h1     38    bbb    H16   1097 0.25637600   1.008000   ; qtot 0.411698
 1098         c3     38    bbb     C9   1098 -0.72423400  12.010000   ; qtot -0.312536
 1099         h1     38    bbb    H17   1099 0.25637600   1.008000   ; qtot -0.056160
 1100         h1     38    bbb    H18   1100 0.25637600   1.008000   ; qtot 0.200216
 1101         os     38    bbb     O1   1101 -0.20025300  16.000000   ; qtot -0.000037
; residue   39 bbb rtp bbb q -0.0
 1102         n3     39    bbb     N1   1102 -0.59685800  14.010000   ; qtot -0.596895
 1103         c3     39    bbb     C1   1103 0.10137000  12.010000   ; qtot -0.495525
 1104         h1     39    bbb     H1   1104 0.04411300   1.008000   ; qtot -0.451412
 1105         h1     39    bbb     H2   1105 0.04411300   1.008000   ; qtot -0.407299
 1106         c3     39    bbb     C2   1106 0.10137000  12.010000   ; qtot -0.305929
 1107         h1     39    bbb     H3   1107 0.04411300   1.008000   ; qtot -0.261816
 1108         h1     39    bbb     H4   1108 0.04411300   1.008000   ; qtot -0.217703
 1109         c3     39    bbb     C3   1109 -0.00195300  12.010000   ; qtot -0.219656
 1110         h1     39    bbb     H5   1110 0.05064400   1.008000   ; qtot -0.169012
 1111         h1     39    bbb     H6   1111 0.05064400   1.008000   ; qtot -0.118368
 1112         c3     39    bbb     C4   1112 -0.01612100  12.010000   ; qtot -0.134489
 1113         hc     39    bbb     H7   1113 0.04936100   1.008000   ; qtot -0.085128
 1114         hc     39    bbb     H8   1114 0.04936100   1.008000   ; qtot -0.035767
 1115         c3     39    bbb     C5   1115 0.11363000  12.010000   ; qtot 0.077863
 1116         hc     39    bbb     H9   1116 0.06265900   1.008000   ; qtot 0.140522
 1117         hc     39    bbb    H10   1117 0.06265900   1.008000   ; qtot 0.203181
 1118         c3     39    bbb     C6   1118 0.11363000  12.010000   ; qtot 0.316811
 1119         hc     39    bbb    H11   1119 0.06265900   1.008000   ; qtot 0.379470
 1120         hc     39    bbb    H12   1120 0.06265900   1.008000   ; qtot 0.442129
 1121         c3     39    bbb     C7   1121 0.05858200  12.010000   ; qtot 0.500711
 1122         h1     39    bbb    H13   1122 0.06123400   1.008000   ; qtot 0.561945
 1123         h1     39    bbb    H14   1123 0.06123400   1.008000   ; qtot 0.623179
 1124         c3     39    bbb     C8   1124 -0.72423400  12.010000   ; qtot -0.101055
 1125         h1     39    bbb    H15   1125 0.25637600   1.008000   ; qtot 0.155321
 1126         h1     39    bbb    H16   1126 0.25637600   1.008000   ; qtot 0.411697
 1127         c3     39    bbb     C9   1127 -0.72423400  12.010000   ; qtot -0.312537
 1128         h1     39    bbb    H17   1128 0.25637600   1.008000   ; qtot -0.056161
 1129         h1     39    bbb    H18   1129 0.25637600   1.008000   ; qtot 0.200215
 1130         os     39    bbb     O1   1130 -0.20025300  16.000000   ; qtot -0.000038
; residue   40 bbb rtp bbb q -0.0
 1131         n3     40    bbb     N1   1131 -0.59685800  14.010000   ; qtot -0.596896
 1132         c3     40    bbb     C1   1132 0.10137000  12.010000   ; qtot -0.495526
 1133         h1     40    bbb     H1   1133 0.04411300   1.008000   ; qtot -0.451413
 1134         h1     40    bbb     H2   1134 0.04411300   1.008000   ; qtot -0.407300
 1135         c3     40    bbb     C2   1135 0.10137000  12.010000   ; qtot -0.305930
 1136         h1     40    bbb     H3   1136 0.04411300   1.008000   ; qtot -0.261817
 1137         h1     40    bbb     H4   1137 0.04411300   1.008000   ; qtot -0.217704
 1138         c3     40    bbb     C3   1138 -0.00195300  12.010000   ; qtot -0.219657
 1139         h1     40    bbb     H5   1139 0.05064400   1.008000   ; qtot -0.169013
 1140         h1     40    bbb     H6   1140 0.05064400   1.008000   ; qtot -0.118369
 1141         c3     40    bbb     C4   1141 -0.01612100  12.010000   ; qtot -0.134490
 1142         hc     40    bbb     H7   1142 0.04936100   1.008000   ; qtot -0.085129
 1143         hc     40    bbb     H8   1143 0.04936100   1.008000   ; qtot -0.035768
 1144         c3     40    bbb     C5   1144 0.11363000  12.010000   ; qtot 0.077862
 1145         hc     40    bbb     H9   1145 0.06265900   1.008000   ; qtot 0.140521
 1146         hc     40    bbb    H10   1146 0.06265900   1.008000   ; qtot 0.203180
 1147         c3     40    bbb     C6   1147 0.11363000  12.010000   ; qtot 0.316810
 1148         hc     40    bbb    H11   1148 0.06265900   1.008000   ; qtot 0.379469
 1149         hc     40    bbb    H12   1149 0.06265900   1.008000   ; qtot 0.442128
 1150         c3     40    bbb     C7   1150 0.05858200  12.010000   ; qtot 0.500710
 1151         h1     40    bbb    H13   1151 0.06123400   1.008000   ; qtot 0.561944
 1152         h1     40    bbb    H14   1152 0.06123400   1.008000   ; qtot 0.623178
 1153         c3     40    bbb     C8   1153 -0.72423400  12.010000   ; qtot -0.101056
 1154         h1     40    bbb    H15   1154 0.25637600   1.008000   ; qtot 0.155320
 1155         h1     40    bbb    H16   1155 0.25637600   1.008000   ; qtot 0.411696
 1156         c3     40    bbb     C9   1156 -0.72423400  12.010000   ; qtot -0.312538
 1157         h1     40    bbb    H17   1157 0.25637600   1.008000   ; qtot -0.056162
 1158         h1     40    bbb    H18   1158 0.25637600   1.008000   ; qtot 0.200214
 1159         os     40    bbb     O1   1159 -0.20025300  16.000000   ; qtot -0.000039
; residue   41 bbb rtp bbb q -0.0
 1160         n3     41    bbb     N1   1160 -0.59685800  14.010000   ; qtot -0.596897
 1161         c3     41    bbb     C1   1161 0.10137000  12.010000   ; qtot -0.495527
 1162         h1     41    bbb     H1   1162 0.04411300   1.008000   ; qtot -0.451414
 1163         h1     41    bbb     H2   1163 0.04411300   1.008000   ; qtot -0.407301
 1164         c3     41    bbb     C2   1164 0.10137000  12.010000   ; qtot -0.305931
 1165         h1     41    bbb     H3   1165 0.04411300   1.008000   ; qtot -0.261818
 1166         h1     41    bbb     H4   1166 0.04411300   1.008000   ; qtot -0.217705
 1167         c3     41    bbb     C3   1167 -0.00195300  12.010000   ; qtot -0.219658
 1168         h1     41    bbb     H5   1168 0.05064400   1.008000   ; qtot -0.169014
 1169         h1     41    bbb     H6   1169 0.05064400   1.008000   ; qtot -0.118370
 1170         c3     41    bbb     C4   1170 -0.01612100  12.010000   ; qtot -0.134491
 1171         hc     41    bbb     H7   1171 0.04936100   1.008000   ; qtot -0.085130
 1172         hc     41    bbb     H8   1172 0.04936100   1.008000   ; qtot -0.035769
 1173         c3     41    bbb     C5   1173 0.11363000  12.010000   ; qtot 0.077861
 1174         hc     41    bbb     H9   1174 0.06265900   1.008000   ; qtot 0.140520
 1175         hc     41    bbb    H10   1175 0.06265900   1.008000   ; qtot 0.203179
 1176         c3     41    bbb     C6   1176 0.11363000  12.010000   ; qtot 0.316809
 1177         hc     41    bbb    H11   1177 0.06265900   1.008000   ; qtot 0.379468
 1178         hc     41    bbb    H12   1178 0.06265900   1.008000   ; qtot 0.442127
 1179         c3     41    bbb     C7   1179 0.05858200  12.010000   ; qtot 0.500709
 1180         h1     41    bbb    H13   1180 0.06123400   1.008000   ; qtot 0.561943
 1181         h1     41    bbb    H14   1181 0.06123400   1.008000   ; qtot 0.623177
 1182         c3     41    bbb     C8   1182 -0.72423400  12.010000   ; qtot -0.101057
 1183         h1     41    bbb    H15   1183 0.25637600   1.008000   ; qtot 0.155319
 1184         h1     41    bbb    H16   1184 0.25637600   1.008000   ; qtot 0.411695
 1185         c3     41    bbb     C9   1185 -0.72423400  12.010000   ; qtot -0.312539
 1186         h1     41    bbb    H17   1186 0.25637600   1.008000   ; qtot -0.056163
 1187         h1     41    bbb    H18   1187 0.25637600   1.008000   ; qtot 0.200213
 1188         os     41    bbb     O1   1188 -0.20025300  16.000000   ; qtot -0.000040
; residue   42 bbb rtp bbb q -0.0
 1189         n3     42    bbb     N1   1189 -0.59685800  14.010000   ; qtot -0.596898
 1190         c3     42    bbb     C1   1190 0.10137000  12.010000   ; qtot -0.495528
 1191         h1     42    bbb     H1   1191 0.04411300   1.008000   ; qtot -0.451415
 1192         h1     42    bbb     H2   1192 0.04411300   1.008000   ; qtot -0.407302
 1193         c3     42    bbb     C2   1193 0.10137000  12.010000   ; qtot -0.305932
 1194         h1     42    bbb     H3   1194 0.04411300   1.008000   ; qtot -0.261819
 1195         h1     42    bbb     H4   1195 0.04411300   1.008000   ; qtot -0.217706
 1196         c3     42    bbb     C3   1196 -0.00195300  12.010000   ; qtot -0.219659
 1197         h1     42    bbb     H5   1197 0.05064400   1.008000   ; qtot -0.169015
 1198         h1     42    bbb     H6   1198 0.05064400   1.008000   ; qtot -0.118371
 1199         c3     42    bbb     C4   1199 -0.01612100  12.010000   ; qtot -0.134492
 1200         hc     42    bbb     H7   1200 0.04936100   1.008000   ; qtot -0.085131
 1201         hc     42    bbb     H8   1201 0.04936100   1.008000   ; qtot -0.035770
 1202         c3     42    bbb     C5   1202 0.11363000  12.010000   ; qtot 0.077860
 1203         hc     42    bbb     H9   1203 0.06265900   1.008000   ; qtot 0.140519
 1204         hc     42    bbb    H10   1204 0.06265900   1.008000   ; qtot 0.203178
 1205         c3     42    bbb     C6   1205 0.11363000  12.010000   ; qtot 0.316808
 1206         hc     42    bbb    H11   1206 0.06265900   1.008000   ; qtot 0.379467
 1207         hc     42    bbb    H12   1207 0.06265900   1.008000   ; qtot 0.442126
 1208         c3     42    bbb     C7   1208 0.05858200  12.010000   ; qtot 0.500708
 1209         h1     42    bbb    H13   1209 0.06123400   1.008000   ; qtot 0.561942
 1210         h1     42    bbb    H14   1210 0.06123400   1.008000   ; qtot 0.623176
 1211         c3     42    bbb     C8   1211 -0.72423400  12.010000   ; qtot -0.101058
 1212         h1     42    bbb    H15   1212 0.25637600   1.008000   ; qtot 0.155318
 1213         h1     42    bbb    H16   1213 0.25637600   1.008000   ; qtot 0.411694
 1214         c3     42    bbb     C9   1214 -0.72423400  12.010000   ; qtot -0.312540
 1215         h1     42    bbb    H17   1215 0.25637600   1.008000   ; qtot -0.056164
 1216         h1     42    bbb    H18   1216 0.25637600   1.008000   ; qtot 0.200212
 1217         os     42    bbb     O1   1217 -0.20025300  16.000000   ; qtot -0.000041
; residue   43 bbb rtp bbb q -0.0
 1218         n3     43    bbb     N1   1218 -0.59685800  14.010000   ; qtot -0.596899
 1219         c3     43    bbb     C1   1219 0.10137000  12.010000   ; qtot -0.495529
 1220         h1     43    bbb     H1   1220 0.04411300   1.008000   ; qtot -0.451416
 1221         h1     43    bbb     H2   1221 0.04411300   1.008000   ; qtot -0.407303
 1222         c3     43    bbb     C2   1222 0.10137000  12.010000   ; qtot -0.305933
 1223         h1     43    bbb     H3   1223 0.04411300   1.008000   ; qtot -0.261820
 1224         h1     43    bbb     H4   1224 0.04411300   1.008000   ; qtot -0.217707
 1225         c3     43    bbb     C3   1225 -0.00195300  12.010000   ; qtot -0.219660
 1226         h1     43    bbb     H5   1226 0.05064400   1.008000   ; qtot -0.169016
 1227         h1     43    bbb     H6   1227 0.05064400   1.008000   ; qtot -0.118372
 1228         c3     43    bbb     C4   1228 -0.01612100  12.010000   ; qtot -0.134493
 1229         hc     43    bbb     H7   1229 0.04936100   1.008000   ; qtot -0.085132
 1230         hc     43    bbb     H8   1230 0.04936100   1.008000   ; qtot -0.035771
 1231         c3     43    bbb     C5   1231 0.11363000  12.010000   ; qtot 0.077859
 1232         hc     43    bbb     H9   1232 0.06265900   1.008000   ; qtot 0.140518
 1233         hc     43    bbb    H10   1233 0.06265900   1.008000   ; qtot 0.203177
 1234         c3     43    bbb     C6   1234 0.11363000  12.010000   ; qtot 0.316807
 1235         hc     43    bbb    H11   1235 0.06265900   1.008000   ; qtot 0.379466
 1236         hc     43    bbb    H12   1236 0.06265900   1.008000   ; qtot 0.442125
 1237         c3     43    bbb     C7   1237 0.05858200  12.010000   ; qtot 0.500707
 1238         h1     43    bbb    H13   1238 0.06123400   1.008000   ; qtot 0.561941
 1239         h1     43    bbb    H14   1239 0.06123400   1.008000   ; qtot 0.623175
 1240         c3     43    bbb     C8   1240 -0.72423400  12.010000   ; qtot -0.101059
 1241         h1     43    bbb    H15   1241 0.25637600   1.008000   ; qtot 0.155317
 1242         h1     43    bbb    H16   1242 0.25637600   1.008000   ; qtot 0.411693
 1243         c3     43    bbb     C9   1243 -0.72423400  12.010000   ; qtot -0.312541
 1244         h1     43    bbb    H17   1244 0.25637600   1.008000   ; qtot -0.056165
 1245         h1     43    bbb    H18   1245 0.25637600   1.008000   ; qtot 0.200211
 1246         os     43    bbb     O1   1246 -0.20025300  16.000000   ; qtot -0.000042
; residue   44 bbb rtp bbb q -0.0
 1247         n3     44    bbb     N1   1247 -0.59685800  14.010000   ; qtot -0.596900
 1248         c3     44    bbb     C1   1248 0.10137000  12.010000   ; qtot -0.495530
 1249         h1     44    bbb     H1   1249 0.04411300   1.008000   ; qtot -0.451417
 1250         h1     44    bbb     H2   1250 0.04411300   1.008000   ; qtot -0.407304
 1251         c3     44    bbb     C2   1251 0.10137000  12.010000   ; qtot -0.305934
 1252         h1     44    bbb     H3   1252 0.04411300   1.008000   ; qtot -0.261821
 1253         h1     44    bbb     H4   1253 0.04411300   1.008000   ; qtot -0.217708
 1254         c3     44    bbb     C3   1254 -0.00195300  12.010000   ; qtot -0.219661
 1255         h1     44    bbb     H5   1255 0.05064400   1.008000   ; qtot -0.169017
 1256         h1     44    bbb     H6   1256 0.05064400   1.008000   ; qtot -0.118373
 1257         c3     44    bbb     C4   1257 -0.01612100  12.010000   ; qtot -0.134494
 1258         hc     44    bbb     H7   1258 0.04936100   1.008000   ; qtot -0.085133
 1259         hc     44    bbb     H8   1259 0.04936100   1.008000   ; qtot -0.035772
 1260         c3     44    bbb     C5   1260 0.11363000  12.010000   ; qtot 0.077858
 1261         hc     44    bbb     H9   1261 0.06265900   1.008000   ; qtot 0.140517
 1262         hc     44    bbb    H10   1262 0.06265900   1.008000   ; qtot 0.203176
 1263         c3     44    bbb     C6   1263 0.11363000  12.010000   ; qtot 0.316806
 1264         hc     44    bbb    H11   1264 0.06265900   1.008000   ; qtot 0.379465
 1265         hc     44    bbb    H12   1265 0.06265900   1.008000   ; qtot 0.442124
 1266         c3     44    bbb     C7   1266 0.05858200  12.010000   ; qtot 0.500706
 1267         h1     44    bbb    H13   1267 0.06123400   1.008000   ; qtot 0.561940
 1268         h1     44    bbb    H14   1268 0.06123400   1.008000   ; qtot 0.623174
 1269         c3     44    bbb     C8   1269 -0.72423400  12.010000   ; qtot -0.101060
 1270         h1     44    bbb    H15   1270 0.25637600   1.008000   ; qtot 0.155316
 1271         h1     44    bbb    H16   1271 0.25637600   1.008000   ; qtot 0.411692
 1272         c3     44    bbb     C9   1272 -0.72423400  12.010000   ; qtot -0.312542
 1273         h1     44    bbb    H17   1273 0.25637600   1.008000   ; qtot -0.056166
 1274         h1     44    bbb    H18   1274 0.25637600   1.008000   ; qtot 0.200210
 1275         os     44    bbb     O1   1275 -0.20025300  16.000000   ; qtot -0.000043
; residue   45 bbb rtp bbb q -0.0
 1276         n3     45    bbb     N1   1276 -0.59685800  14.010000   ; qtot -0.596901
 1277         c3     45    bbb     C1   1277 0.10137000  12.010000   ; qtot -0.495531
 1278         h1     45    bbb     H1   1278 0.04411300   1.008000   ; qtot -0.451418
 1279         h1     45    bbb     H2   1279 0.04411300   1.008000   ; qtot -0.407305
 1280         c3     45    bbb     C2   1280 0.10137000  12.010000   ; qtot -0.305935
 1281         h1     45    bbb     H3   1281 0.04411300   1.008000   ; qtot -0.261822
 1282         h1     45    bbb     H4   1282 0.04411300   1.008000   ; qtot -0.217709
 1283         c3     45    bbb     C3   1283 -0.00195300  12.010000   ; qtot -0.219662
 1284         h1     45    bbb     H5   1284 0.05064400   1.008000   ; qtot -0.169018
 1285         h1     45    bbb     H6   1285 0.05064400   1.008000   ; qtot -0.118374
 1286         c3     45    bbb     C4   1286 -0.01612100  12.010000   ; qtot -0.134495
 1287         hc     45    bbb     H7   1287 0.04936100   1.008000   ; qtot -0.085134
 1288         hc     45    bbb     H8   1288 0.04936100   1.008000   ; qtot -0.035773
 1289         c3     45    bbb     C5   1289 0.11363000  12.010000   ; qtot 0.077857
 1290         hc     45    bbb     H9   1290 0.06265900   1.008000   ; qtot 0.140516
 1291         hc     45    bbb    H10   1291 0.06265900   1.008000   ; qtot 0.203175
 1292         c3     45    bbb     C6   1292 0.11363000  12.010000   ; qtot 0.316805
 1293         hc     45    bbb    H11   1293 0.06265900   1.008000   ; qtot 0.379464
 1294         hc     45    bbb    H12   1294 0.06265900   1.008000   ; qtot 0.442123
 1295         c3     45    bbb     C7   1295 0.05858200  12.010000   ; qtot 0.500705
 1296         h1     45    bbb    H13   1296 0.06123400   1.008000   ; qtot 0.561939
 1297         h1     45    bbb    H14   1297 0.06123400   1.008000   ; qtot 0.623173
 1298         c3     45    bbb     C8   1298 -0.72423400  12.010000   ; qtot -0.101061
 1299         h1     45    bbb    H15   1299 0.25637600   1.008000   ; qtot 0.155315
 1300         h1     45    bbb    H16   1300 0.25637600   1.008000   ; qtot 0.411691
 1301         c3     45    bbb     C9   1301 -0.72423400  12.010000   ; qtot -0.312543
 1302         h1     45    bbb    H17   1302 0.25637600   1.008000   ; qtot -0.056167
 1303         h1     45    bbb    H18   1303 0.25637600   1.008000   ; qtot 0.200209
 1304         os     45    bbb     O1   1304 -0.20025300  16.000000   ; qtot -0.000044
; residue   46 bbb rtp bbb q -0.0
 1305         n3     46    bbb     N1   1305 -0.59685800  14.010000   ; qtot -0.596902
 1306         c3     46    bbb     C1   1306 0.10137000  12.010000   ; qtot -0.495532
 1307         h1     46    bbb     H1   1307 0.04411300   1.008000   ; qtot -0.451419
 1308         h1     46    bbb     H2   1308 0.04411300   1.008000   ; qtot -0.407306
 1309         c3     46    bbb     C2   1309 0.10137000  12.010000   ; qtot -0.305936
 1310         h1     46    bbb     H3   1310 0.04411300   1.008000   ; qtot -0.261823
 1311         h1     46    bbb     H4   1311 0.04411300   1.008000   ; qtot -0.217710
 1312         c3     46    bbb     C3   1312 -0.00195300  12.010000   ; qtot -0.219663
 1313         h1     46    bbb     H5   1313 0.05064400   1.008000   ; qtot -0.169019
 1314         h1     46    bbb     H6   1314 0.05064400   1.008000   ; qtot -0.118375
 1315         c3     46    bbb     C4   1315 -0.01612100  12.010000   ; qtot -0.134496
 1316         hc     46    bbb     H7   1316 0.04936100   1.008000   ; qtot -0.085135
 1317         hc     46    bbb     H8   1317 0.04936100   1.008000   ; qtot -0.035774
 1318         c3     46    bbb     C5   1318 0.11363000  12.010000   ; qtot 0.077856
 1319         hc     46    bbb     H9   1319 0.06265900   1.008000   ; qtot 0.140515
 1320         hc     46    bbb    H10   1320 0.06265900   1.008000   ; qtot 0.203174
 1321         c3     46    bbb     C6   1321 0.11363000  12.010000   ; qtot 0.316804
 1322         hc     46    bbb    H11   1322 0.06265900   1.008000   ; qtot 0.379463
 1323         hc     46    bbb    H12   1323 0.06265900   1.008000   ; qtot 0.442122
 1324         c3     46    bbb     C7   1324 0.05858200  12.010000   ; qtot 0.500704
 1325         h1     46    bbb    H13   1325 0.06123400   1.008000   ; qtot 0.561938
 1326         h1     46    bbb    H14   1326 0.06123400   1.008000   ; qtot 0.623172
 1327         c3     46    bbb     C8   1327 -0.72423400  12.010000   ; qtot -0.101062
 1328         h1     46    bbb    H15   1328 0.25637600   1.008000   ; qtot 0.155314
 1329         h1     46    bbb    H16   1329 0.25637600   1.008000   ; qtot 0.411690
 1330         c3     46    bbb     C9   1330 -0.72423400  12.010000   ; qtot -0.312544
 1331         h1     46    bbb    H17   1331 0.25637600   1.008000   ; qtot -0.056168
 1332         h1     46    bbb    H18   1332 0.25637600   1.008000   ; qtot 0.200208
 1333         os     46    bbb     O1   1333 -0.20025300  16.000000   ; qtot -0.000045
; residue   47 bbb rtp bbb q -0.0
 1334         n3     47    bbb     N1   1334 -0.59685800  14.010000   ; qtot -0.596903
 1335         c3     47    bbb     C1   1335 0.10137000  12.010000   ; qtot -0.495533
 1336         h1     47    bbb     H1   1336 0.04411300   1.008000   ; qtot -0.451420
 1337         h1     47    bbb     H2   1337 0.04411300   1.008000   ; qtot -0.407307
 1338         c3     47    bbb     C2   1338 0.10137000  12.010000   ; qtot -0.305937
 1339         h1     47    bbb     H3   1339 0.04411300   1.008000   ; qtot -0.261824
 1340         h1     47    bbb     H4   1340 0.04411300   1.008000   ; qtot -0.217711
 1341         c3     47    bbb     C3   1341 -0.00195300  12.010000   ; qtot -0.219664
 1342         h1     47    bbb     H5   1342 0.05064400   1.008000   ; qtot -0.169020
 1343         h1     47    bbb     H6   1343 0.05064400   1.008000   ; qtot -0.118376
 1344         c3     47    bbb     C4   1344 -0.01612100  12.010000   ; qtot -0.134497
 1345         hc     47    bbb     H7   1345 0.04936100   1.008000   ; qtot -0.085136
 1346         hc     47    bbb     H8   1346 0.04936100   1.008000   ; qtot -0.035775
 1347         c3     47    bbb     C5   1347 0.11363000  12.010000   ; qtot 0.077855
 1348         hc     47    bbb     H9   1348 0.06265900   1.008000   ; qtot 0.140514
 1349         hc     47    bbb    H10   1349 0.06265900   1.008000   ; qtot 0.203173
 1350         c3     47    bbb     C6   1350 0.11363000  12.010000   ; qtot 0.316803
 1351         hc     47    bbb    H11   1351 0.06265900   1.008000   ; qtot 0.379462
 1352         hc     47    bbb    H12   1352 0.06265900   1.008000   ; qtot 0.442121
 1353         c3     47    bbb     C7   1353 0.05858200  12.010000   ; qtot 0.500703
 1354         h1     47    bbb    H13   1354 0.06123400   1.008000   ; qtot 0.561937
 1355         h1     47    bbb    H14   1355 0.06123400   1.008000   ; qtot 0.623171
 1356         c3     47    bbb     C8   1356 -0.72423400  12.010000   ; qtot -0.101063
 1357         h1     47    bbb    H15   1357 0.25637600   1.008000   ; qtot 0.155313
 1358         h1     47    bbb    H16   1358 0.25637600   1.008000   ; qtot 0.411689
 1359         c3     47    bbb     C9   1359 -0.72423400  12.010000   ; qtot -0.312545
 1360         h1     47    bbb    H17   1360 0.25637600   1.008000   ; qtot -0.056169
 1361         h1     47    bbb    H18   1361 0.25637600   1.008000   ; qtot 0.200207
 1362         os     47    bbb     O1   1362 -0.20025300  16.000000   ; qtot -0.000046
; residue   48 bbb rtp bbb q -0.0
 1363         n3     48    bbb     N1   1363 -0.59685800  14.010000   ; qtot -0.596904
 1364         c3     48    bbb     C1   1364 0.10137000  12.010000   ; qtot -0.495534
 1365         h1     48    bbb     H1   1365 0.04411300   1.008000   ; qtot -0.451421
 1366         h1     48    bbb     H2   1366 0.04411300   1.008000   ; qtot -0.407308
 1367         c3     48    bbb     C2   1367 0.10137000  12.010000   ; qtot -0.305938
 1368         h1     48    bbb     H3   1368 0.04411300   1.008000   ; qtot -0.261825
 1369         h1     48    bbb     H4   1369 0.04411300   1.008000   ; qtot -0.217712
 1370         c3     48    bbb     C3   1370 -0.00195300  12.010000   ; qtot -0.219665
 1371         h1     48    bbb     H5   1371 0.05064400   1.008000   ; qtot -0.169021
 1372         h1     48    bbb     H6   1372 0.05064400   1.008000   ; qtot -0.118377
 1373         c3     48    bbb     C4   1373 -0.01612100  12.010000   ; qtot -0.134498
 1374         hc     48    bbb     H7   1374 0.04936100   1.008000   ; qtot -0.085137
 1375         hc     48    bbb     H8   1375 0.04936100   1.008000   ; qtot -0.035776
 1376         c3     48    bbb     C5   1376 0.11363000  12.010000   ; qtot 0.077854
 1377         hc     48    bbb     H9   1377 0.06265900   1.008000   ; qtot 0.140513
 1378         hc     48    bbb    H10   1378 0.06265900   1.008000   ; qtot 0.203172
 1379         c3     48    bbb     C6   1379 0.11363000  12.010000   ; qtot 0.316802
 1380         hc     48    bbb    H11   1380 0.06265900   1.008000   ; qtot 0.379461
 1381         hc     48    bbb    H12   1381 0.06265900   1.008000   ; qtot 0.442120
 1382         c3     48    bbb     C7   1382 0.05858200  12.010000   ; qtot 0.500702
 1383         h1     48    bbb    H13   1383 0.06123400   1.008000   ; qtot 0.561936
 1384         h1     48    bbb    H14   1384 0.06123400   1.008000   ; qtot 0.623170
 1385         c3     48    bbb     C8   1385 -0.72423400  12.010000   ; qtot -0.101064
 1386         h1     48    bbb    H15   1386 0.25637600   1.008000   ; qtot 0.155312
 1387         h1     48    bbb    H16   1387 0.25637600   1.008000   ; qtot 0.411688
 1388         c3     48    bbb     C9   1388 -0.72423400  12.010000   ; qtot -0.312546
 1389         h1     48    bbb    H17   1389 0.25637600   1.008000   ; qtot -0.056170
 1390         h1     48    bbb    H18   1390 0.25637600   1.008000   ; qtot 0.200206
 1391         os     48    bbb     O1   1391 -0.20025300  16.000000   ; qtot -0.000047
; residue   49 bbb rtp bbb q -0.0
 1392         n3     49    bbb     N1   1392 -0.59685800  14.010000   ; qtot -0.596905
 1393         c3     49    bbb     C1   1393 0.10137000  12.010000   ; qtot -0.495535
 1394         h1     49    bbb     H1   1394 0.04411300   1.008000   ; qtot -0.451422
 1395         h1     49    bbb     H2   1395 0.04411300   1.008000   ; qtot -0.407309
 1396         c3     49    bbb     C2   1396 0.10137000  12.010000   ; qtot -0.305939
 1397         h1     49    bbb     H3   1397 0.04411300   1.008000   ; qtot -0.261826
 1398         h1     49    bbb     H4   1398 0.04411300   1.008000   ; qtot -0.217713
 1399         c3     49    bbb     C3   1399 -0.00195300  12.010000   ; qtot -0.219666
 1400         h1     49    bbb     H5   1400 0.05064400   1.008000   ; qtot -0.169022
 1401         h1     49    bbb     H6   1401 0.05064400   1.008000   ; qtot -0.118378
 1402         c3     49    bbb     C4   1402 -0.01612100  12.010000   ; qtot -0.134499
 1403         hc     49    bbb     H7   1403 0.04936100   1.008000   ; qtot -0.085138
 1404         hc     49    bbb     H8   1404 0.04936100   1.008000   ; qtot -0.035777
 1405         c3     49    bbb     C5   1405 0.11363000  12.010000   ; qtot 0.077853
 1406         hc     49    bbb     H9   1406 0.06265900   1.008000   ; qtot 0.140512
 1407         hc     49    bbb    H10   1407 0.06265900   1.008000   ; qtot 0.203171
 1408         c3     49    bbb     C6   1408 0.11363000  12.010000   ; qtot 0.316801
 1409         hc     49    bbb    H11   1409 0.06265900   1.008000   ; qtot 0.379460
 1410         hc     49    bbb    H12   1410 0.06265900   1.008000   ; qtot 0.442119
 1411         c3     49    bbb     C7   1411 0.05858200  12.010000   ; qtot 0.500701
 1412         h1     49    bbb    H13   1412 0.06123400   1.008000   ; qtot 0.561935
 1413         h1     49    bbb    H14   1413 0.06123400   1.008000   ; qtot 0.623169
 1414         c3     49    bbb     C8   1414 -0.72423400  12.010000   ; qtot -0.101065
 1415         h1     49    bbb    H15   1415 0.25637600   1.008000   ; qtot 0.155311
 1416         h1     49    bbb    H16   1416 0.25637600   1.008000   ; qtot 0.411687
 1417         c3     49    bbb     C9   1417 -0.72423400  12.010000   ; qtot -0.312547
 1418         h1     49    bbb    H17   1418 0.25637600   1.008000   ; qtot -0.056171
 1419         h1     49    bbb    H18   1419 0.25637600   1.008000   ; qtot 0.200205
 1420         os     49    bbb     O1   1420 -0.20025300  16.000000   ; qtot -0.000048
; residue   50 bbb rtp bbb q -0.0
 1421         n3     50    bbb     N1   1421 -0.59685800  14.010000   ; qtot -0.596906
 1422         c3     50    bbb     C1   1422 0.10137000  12.010000   ; qtot -0.495536
 1423         h1     50    bbb     H1   1423 0.04411300   1.008000   ; qtot -0.451423
 1424         h1     50    bbb     H2   1424 0.04411300   1.008000   ; qtot -0.407310
 1425         c3     50    bbb     C2   1425 0.10137000  12.010000   ; qtot -0.305940
 1426         h1     50    bbb     H3   1426 0.04411300   1.008000   ; qtot -0.261827
 1427         h1     50    bbb     H4   1427 0.04411300   1.008000   ; qtot -0.217714
 1428         c3     50    bbb     C3   1428 -0.00195300  12.010000   ; qtot -0.219667
 1429         h1     50    bbb     H5   1429 0.05064400   1.008000   ; qtot -0.169023
 1430         h1     50    bbb     H6   1430 0.05064400   1.008000   ; qtot -0.118379
 1431         c3     50    bbb     C4   1431 -0.01612100  12.010000   ; qtot -0.134500
 1432         hc     50    bbb     H7   1432 0.04936100   1.008000   ; qtot -0.085139
 1433         hc     50    bbb     H8   1433 0.04936100   1.008000   ; qtot -0.035778
 1434         c3     50    bbb     C5   1434 0.11363000  12.010000   ; qtot 0.077852
 1435         hc     50    bbb     H9   1435 0.06265900   1.008000   ; qtot 0.140511
 1436         hc     50    bbb    H10   1436 0.06265900   1.008000   ; qtot 0.203170
 1437         c3     50    bbb     C6   1437 0.11363000  12.010000   ; qtot 0.316800
 1438         hc     50    bbb    H11   1438 0.06265900   1.008000   ; qtot 0.379459
 1439         hc     50    bbb    H12   1439 0.06265900   1.008000   ; qtot 0.442118
 1440         c3     50    bbb     C7   1440 0.05858200  12.010000   ; qtot 0.500700
 1441         h1     50    bbb    H13   1441 0.06123400   1.008000   ; qtot 0.561934
 1442         h1     50    bbb    H14   1442 0.06123400   1.008000   ; qtot 0.623168
 1443         c3     50    bbb     C8   1443 -0.72423400  12.010000   ; qtot -0.101066
 1444         h1     50    bbb    H15   1444 0.25637600   1.008000   ; qtot 0.155310
 1445         h1     50    bbb    H16   1445 0.25637600   1.008000   ; qtot 0.411686
 1446         c3     50    bbb     C9   1446 -0.72423400  12.010000   ; qtot -0.312548
 1447         h1     50    bbb    H17   1447 0.25637600   1.008000   ; qtot -0.056172
 1448         h1     50    bbb    H18   1448 0.25637600   1.008000   ; qtot 0.200204
 1449         os     50    bbb     O1   1449 -0.20025300  16.000000   ; qtot -0.000049
; residue   51 bbb rtp bbb q -0.0
 1450         n3     51    bbb     N1   1450 -0.59685800  14.010000   ; qtot -0.596907
 1451         c3     51    bbb     C1   1451 0.10137000  12.010000   ; qtot -0.495537
 1452         h1     51    bbb     H1   1452 0.04411300   1.008000   ; qtot -0.451424
 1453         h1     51    bbb     H2   1453 0.04411300   1.008000   ; qtot -0.407311
 1454         c3     51    bbb     C2   1454 0.10137000  12.010000   ; qtot -0.305941
 1455         h1     51    bbb     H3   1455 0.04411300   1.008000   ; qtot -0.261828
 1456         h1     51    bbb     H4   1456 0.04411300   1.008000   ; qtot -0.217715
 1457         c3     51    bbb     C3   1457 -0.00195300  12.010000   ; qtot -0.219668
 1458         h1     51    bbb     H5   1458 0.05064400   1.008000   ; qtot -0.169024
 1459         h1     51    bbb     H6   1459 0.05064400   1.008000   ; qtot -0.118380
 1460         c3     51    bbb     C4   1460 -0.01612100  12.010000   ; qtot -0.134501
 1461         hc     51    bbb     H7   1461 0.04936100   1.008000   ; qtot -0.085140
 1462         hc     51    bbb     H8   1462 0.04936100   1.008000   ; qtot -0.035779
 1463         c3     51    bbb     C5   1463 0.11363000  12.010000   ; qtot 0.077851
 1464         hc     51    bbb     H9   1464 0.06265900   1.008000   ; qtot 0.140510
 1465         hc     51    bbb    H10   1465 0.06265900   1.008000   ; qtot 0.203169
 1466         c3     51    bbb     C6   1466 0.11363000  12.010000   ; qtot 0.316799
 1467         hc     51    bbb    H11   1467 0.06265900   1.008000   ; qtot 0.379458
 1468         hc     51    bbb    H12   1468 0.06265900   1.008000   ; qtot 0.442117
 1469         c3     51    bbb     C7   1469 0.05858200  12.010000   ; qtot 0.500699
 1470         h1     51    bbb    H13   1470 0.06123400   1.008000   ; qtot 0.561933
 1471         h1     51    bbb    H14   1471 0.06123400   1.008000   ; qtot 0.623167
 1472         c3     51    bbb     C8   1472 -0.72423400  12.010000   ; qtot -0.101067
 1473         h1     51    bbb    H15   1473 0.25637600   1.008000   ; qtot 0.155309
 1474         h1     51    bbb    H16   1474 0.25637600   1.008000   ; qtot 0.411685
 1475         c3     51    bbb     C9   1475 -0.72423400  12.010000   ; qtot -0.312549
 1476         h1     51    bbb    H17   1476 0.25637600   1.008000   ; qtot -0.056173
 1477         h1     51    bbb    H18   1477 0.25637600   1.008000   ; qtot 0.200203
 1478         os     51    bbb     O1   1478 -0.20025300  16.000000   ; qtot -0.000050
; residue   52 bbb rtp bbb q -0.0
 1479         n3     52    bbb     N1   1479 -0.59685800  14.010000   ; qtot -0.596908
 1480         c3     52    bbb     C1   1480 0.10137000  12.010000   ; qtot -0.495538
 1481         h1     52    bbb     H1   1481 0.04411300   1.008000   ; qtot -0.451425
 1482         h1     52    bbb     H2   1482 0.04411300   1.008000   ; qtot -0.407312
 1483         c3     52    bbb     C2   1483 0.10137000  12.010000   ; qtot -0.305942
 1484         h1     52    bbb     H3   1484 0.04411300   1.008000   ; qtot -0.261829
 1485         h1     52    bbb     H4   1485 0.04411300   1.008000   ; qtot -0.217716
 1486         c3     52    bbb     C3   1486 -0.00195300  12.010000   ; qtot -0.219669
 1487         h1     52    bbb     H5   1487 0.05064400   1.008000   ; qtot -0.169025
 1488         h1     52    bbb     H6   1488 0.05064400   1.008000   ; qtot -0.118381
 1489         c3     52    bbb     C4   1489 -0.01612100  12.010000   ; qtot -0.134502
 1490         hc     52    bbb     H7   1490 0.04936100   1.008000   ; qtot -0.085141
 1491         hc     52    bbb     H8   1491 0.04936100   1.008000   ; qtot -0.035780
 1492         c3     52    bbb     C5   1492 0.11363000  12.010000   ; qtot 0.077850
 1493         hc     52    bbb     H9   1493 0.06265900   1.008000   ; qtot 0.140509
 1494         hc     52    bbb    H10   1494 0.06265900   1.008000   ; qtot 0.203168
 1495         c3     52    bbb     C6   1495 0.11363000  12.010000   ; qtot 0.316798
 1496         hc     52    bbb    H11   1496 0.06265900   1.008000   ; qtot 0.379457
 1497         hc     52    bbb    H12   1497 0.06265900   1.008000   ; qtot 0.442116
 1498         c3     52    bbb     C7   1498 0.05858200  12.010000   ; qtot 0.500698
 1499         h1     52    bbb    H13   1499 0.06123400   1.008000   ; qtot 0.561932
 1500         h1     52    bbb    H14   1500 0.06123400   1.008000   ; qtot 0.623166
 1501         c3     52    bbb     C8   1501 -0.72423400  12.010000   ; qtot -0.101068
 1502         h1     52    bbb    H15   1502 0.25637600   1.008000   ; qtot 0.155308
 1503         h1     52    bbb    H16   1503 0.25637600   1.008000   ; qtot 0.411684
 1504         c3     52    bbb     C9   1504 -0.72423400  12.010000   ; qtot -0.312550
 1505         h1     52    bbb    H17   1505 0.25637600   1.008000   ; qtot -0.056174
 1506         h1     52    bbb    H18   1506 0.25637600   1.008000   ; qtot 0.200202
 1507         os     52    bbb     O1   1507 -0.20025300  16.000000   ; qtot -0.000051
; residue   53 bbb rtp bbb q -0.0
 1508         n3     53    bbb     N1   1508 -0.59685800  14.010000   ; qtot -0.596909
 1509         c3     53    bbb     C1   1509 0.10137000  12.010000   ; qtot -0.495539
 1510         h1     53    bbb     H1   1510 0.04411300   1.008000   ; qtot -0.451426
 1511         h1     53    bbb     H2   1511 0.04411300   1.008000   ; qtot -0.407313
 1512         c3     53    bbb     C2   1512 0.10137000  12.010000   ; qtot -0.305943
 1513         h1     53    bbb     H3   1513 0.04411300   1.008000   ; qtot -0.261830
 1514         h1     53    bbb     H4   1514 0.04411300   1.008000   ; qtot -0.217717
 1515         c3     53    bbb     C3   1515 -0.00195300  12.010000   ; qtot -0.219670
 1516         h1     53    bbb     H5   1516 0.05064400   1.008000   ; qtot -0.169026
 1517         h1     53    bbb     H6   1517 0.05064400   1.008000   ; qtot -0.118382
 1518         c3     53    bbb     C4   1518 -0.01612100  12.010000   ; qtot -0.134503
 1519         hc     53    bbb     H7   1519 0.04936100   1.008000   ; qtot -0.085142
 1520         hc     53    bbb     H8   1520 0.04936100   1.008000   ; qtot -0.035781
 1521         c3     53    bbb     C5   1521 0.11363000  12.010000   ; qtot 0.077849
 1522         hc     53    bbb     H9   1522 0.06265900   1.008000   ; qtot 0.140508
 1523         hc     53    bbb    H10   1523 0.06265900   1.008000   ; qtot 0.203167
 1524         c3     53    bbb     C6   1524 0.11363000  12.010000   ; qtot 0.316797
 1525         hc     53    bbb    H11   1525 0.06265900   1.008000   ; qtot 0.379456
 1526         hc     53    bbb    H12   1526 0.06265900   1.008000   ; qtot 0.442115
 1527         c3     53    bbb     C7   1527 0.05858200  12.010000   ; qtot 0.500697
 1528         h1     53    bbb    H13   1528 0.06123400   1.008000   ; qtot 0.561931
 1529         h1     53    bbb    H14   1529 0.06123400   1.008000   ; qtot 0.623165
 1530         c3     53    bbb     C8   1530 -0.72423400  12.010000   ; qtot -0.101069
 1531         h1     53    bbb    H15   1531 0.25637600   1.008000   ; qtot 0.155307
 1532         h1     53    bbb    H16   1532 0.25637600   1.008000   ; qtot 0.411683
 1533         c3     53    bbb     C9   1533 -0.72423400  12.010000   ; qtot -0.312551
 1534         h1     53    bbb    H17   1534 0.25637600   1.008000   ; qtot -0.056175
 1535         h1     53    bbb    H18   1535 0.25637600   1.008000   ; qtot 0.200201
 1536         os     53    bbb     O1   1536 -0.20025300  16.000000   ; qtot -0.000052
; residue   54 bbb rtp bbb q -0.0
 1537         n3     54    bbb     N1   1537 -0.59685800  14.010000   ; qtot -0.596910
 1538         c3     54    bbb     C1   1538 0.10137000  12.010000   ; qtot -0.495540
 1539         h1     54    bbb     H1   1539 0.04411300   1.008000   ; qtot -0.451427
 1540         h1     54    bbb     H2   1540 0.04411300   1.008000   ; qtot -0.407314
 1541         c3     54    bbb     C2   1541 0.10137000  12.010000   ; qtot -0.305944
 1542         h1     54    bbb     H3   1542 0.04411300   1.008000   ; qtot -0.261831
 1543         h1     54    bbb     H4   1543 0.04411300   1.008000   ; qtot -0.217718
 1544         c3     54    bbb     C3   1544 -0.00195300  12.010000   ; qtot -0.219671
 1545         h1     54    bbb     H5   1545 0.05064400   1.008000   ; qtot -0.169027
 1546         h1     54    bbb     H6   1546 0.05064400   1.008000   ; qtot -0.118383
 1547         c3     54    bbb     C4   1547 -0.01612100  12.010000   ; qtot -0.134504
 1548         hc     54    bbb     H7   1548 0.04936100   1.008000   ; qtot -0.085143
 1549         hc     54    bbb     H8   1549 0.04936100   1.008000   ; qtot -0.035782
 1550         c3     54    bbb     C5   1550 0.11363000  12.010000   ; qtot 0.077848
 1551         hc     54    bbb     H9   1551 0.06265900   1.008000   ; qtot 0.140507
 1552         hc     54    bbb    H10   1552 0.06265900   1.008000   ; qtot 0.203166
 1553         c3     54    bbb     C6   1553 0.11363000  12.010000   ; qtot 0.316796
 1554         hc     54    bbb    H11   1554 0.06265900   1.008000   ; qtot 0.379455
 1555         hc     54    bbb    H12   1555 0.06265900   1.008000   ; qtot 0.442114
 1556         c3     54    bbb     C7   1556 0.05858200  12.010000   ; qtot 0.500696
 1557         h1     54    bbb    H13   1557 0.06123400   1.008000   ; qtot 0.561930
 1558         h1     54    bbb    H14   1558 0.06123400   1.008000   ; qtot 0.623164
 1559         c3     54    bbb     C8   1559 -0.72423400  12.010000   ; qtot -0.101070
 1560         h1     54    bbb    H15   1560 0.25637600   1.008000   ; qtot 0.155306
 1561         h1     54    bbb    H16   1561 0.25637600   1.008000   ; qtot 0.411682
 1562         c3     54    bbb     C9   1562 -0.72423400  12.010000   ; qtot -0.312552
 1563         h1     54    bbb    H17   1563 0.25637600   1.008000   ; qtot -0.056176
 1564         h1     54    bbb    H18   1564 0.25637600   1.008000   ; qtot 0.200200
 1565         os     54    bbb     O1   1565 -0.20025300  16.000000   ; qtot -0.000053
; residue   55 bbb rtp bbb q -0.0
 1566         n3     55    bbb     N1   1566 -0.59685800  14.010000   ; qtot -0.596911
 1567         c3     55    bbb     C1   1567 0.10137000  12.010000   ; qtot -0.495541
 1568         h1     55    bbb     H1   1568 0.04411300   1.008000   ; qtot -0.451428
 1569         h1     55    bbb     H2   1569 0.04411300   1.008000   ; qtot -0.407315
 1570         c3     55    bbb     C2   1570 0.10137000  12.010000   ; qtot -0.305945
 1571         h1     55    bbb     H3   1571 0.04411300   1.008000   ; qtot -0.261832
 1572         h1     55    bbb     H4   1572 0.04411300   1.008000   ; qtot -0.217719
 1573         c3     55    bbb     C3   1573 -0.00195300  12.010000   ; qtot -0.219672
 1574         h1     55    bbb     H5   1574 0.05064400   1.008000   ; qtot -0.169028
 1575         h1     55    bbb     H6   1575 0.05064400   1.008000   ; qtot -0.118384
 1576         c3     55    bbb     C4   1576 -0.01612100  12.010000   ; qtot -0.134505
 1577         hc     55    bbb     H7   1577 0.04936100   1.008000   ; qtot -0.085144
 1578         hc     55    bbb     H8   1578 0.04936100   1.008000   ; qtot -0.035783
 1579         c3     55    bbb     C5   1579 0.11363000  12.010000   ; qtot 0.077847
 1580         hc     55    bbb     H9   1580 0.06265900   1.008000   ; qtot 0.140506
 1581         hc     55    bbb    H10   1581 0.06265900   1.008000   ; qtot 0.203165
 1582         c3     55    bbb     C6   1582 0.11363000  12.010000   ; qtot 0.316795
 1583         hc     55    bbb    H11   1583 0.06265900   1.008000   ; qtot 0.379454
 1584         hc     55    bbb    H12   1584 0.06265900   1.008000   ; qtot 0.442113
 1585         c3     55    bbb     C7   1585 0.05858200  12.010000   ; qtot 0.500695
 1586         h1     55    bbb    H13   1586 0.06123400   1.008000   ; qtot 0.561929
 1587         h1     55    bbb    H14   1587 0.06123400   1.008000   ; qtot 0.623163
 1588         c3     55    bbb     C8   1588 -0.72423400  12.010000   ; qtot -0.101071
 1589         h1     55    bbb    H15   1589 0.25637600   1.008000   ; qtot 0.155305
 1590         h1     55    bbb    H16   1590 0.25637600   1.008000   ; qtot 0.411681
 1591         c3     55    bbb     C9   1591 -0.72423400  12.010000   ; qtot -0.312553
 1592         h1     55    bbb    H17   1592 0.25637600   1.008000   ; qtot -0.056177
 1593         h1     55    bbb    H18   1593 0.25637600   1.008000   ; qtot 0.200199
 1594         os     55    bbb     O1   1594 -0.20025300  16.000000   ; qtot -0.000054
; residue   56 bbb rtp bbb q -0.0
 1595         n3     56    bbb     N1   1595 -0.59685800  14.010000   ; qtot -0.596912
 1596         c3     56    bbb     C1   1596 0.10137000  12.010000   ; qtot -0.495542
 1597         h1     56    bbb     H1   1597 0.04411300   1.008000   ; qtot -0.451429
 1598         h1     56    bbb     H2   1598 0.04411300   1.008000   ; qtot -0.407316
 1599         c3     56    bbb     C2   1599 0.10137000  12.010000   ; qtot -0.305946
 1600         h1     56    bbb     H3   1600 0.04411300   1.008000   ; qtot -0.261833
 1601         h1     56    bbb     H4   1601 0.04411300   1.008000   ; qtot -0.217720
 1602         c3     56    bbb     C3   1602 -0.00195300  12.010000   ; qtot -0.219673
 1603         h1     56    bbb     H5   1603 0.05064400   1.008000   ; qtot -0.169029
 1604         h1     56    bbb     H6   1604 0.05064400   1.008000   ; qtot -0.118385
 1605         c3     56    bbb     C4   1605 -0.01612100  12.010000   ; qtot -0.134506
 1606         hc     56    bbb     H7   1606 0.04936100   1.008000   ; qtot -0.085145
 1607         hc     56    bbb     H8   1607 0.04936100   1.008000   ; qtot -0.035784
 1608         c3     56    bbb     C5   1608 0.11363000  12.010000   ; qtot 0.077846
 1609         hc     56    bbb     H9   1609 0.06265900   1.008000   ; qtot 0.140505
 1610         hc     56    bbb    H10   1610 0.06265900   1.008000   ; qtot 0.203164
 1611         c3     56    bbb     C6   1611 0.11363000  12.010000   ; qtot 0.316794
 1612         hc     56    bbb    H11   1612 0.06265900   1.008000   ; qtot 0.379453
 1613         hc     56    bbb    H12   1613 0.06265900   1.008000   ; qtot 0.442112
 1614         c3     56    bbb     C7   1614 0.05858200  12.010000   ; qtot 0.500694
 1615         h1     56    bbb    H13   1615 0.06123400   1.008000   ; qtot 0.561928
 1616         h1     56    bbb    H14   1616 0.06123400   1.008000   ; qtot 0.623162
 1617         c3     56    bbb     C8   1617 -0.72423400  12.010000   ; qtot -0.101072
 1618         h1     56    bbb    H15   1618 0.25637600   1.008000   ; qtot 0.155304
 1619         h1     56    bbb    H16   1619 0.25637600   1.008000   ; qtot 0.411680
 1620         c3     56    bbb     C9   1620 -0.72423400  12.010000   ; qtot -0.312554
 1621         h1     56    bbb    H17   1621 0.25637600   1.008000   ; qtot -0.056178
 1622         h1     56    bbb    H18   1622 0.25637600   1.008000   ; qtot 0.200198
 1623         os     56    bbb     O1   1623 -0.20025300  16.000000   ; qtot -0.000055
; residue   57 bbb rtp bbb q -0.0
 1624         n3     57    bbb     N1   1624 -0.59685800  14.010000   ; qtot -0.596913
 1625         c3     57    bbb     C1   1625 0.10137000  12.010000   ; qtot -0.495543
 1626         h1     57    bbb     H1   1626 0.04411300   1.008000   ; qtot -0.451430
 1627         h1     57    bbb     H2   1627 0.04411300   1.008000   ; qtot -0.407317
 1628         c3     57    bbb     C2   1628 0.10137000  12.010000   ; qtot -0.305947
 1629         h1     57    bbb     H3   1629 0.04411300   1.008000   ; qtot -0.261834
 1630         h1     57    bbb     H4   1630 0.04411300   1.008000   ; qtot -0.217721
 1631         c3     57    bbb     C3   1631 -0.00195300  12.010000   ; qtot -0.219674
 1632         h1     57    bbb     H5   1632 0.05064400   1.008000   ; qtot -0.169030
 1633         h1     57    bbb     H6   1633 0.05064400   1.008000   ; qtot -0.118386
 1634         c3     57    bbb     C4   1634 -0.01612100  12.010000   ; qtot -0.134507
 1635         hc     57    bbb     H7   1635 0.04936100   1.008000   ; qtot -0.085146
 1636         hc     57    bbb     H8   1636 0.04936100   1.008000   ; qtot -0.035785
 1637         c3     57    bbb     C5   1637 0.11363000  12.010000   ; qtot 0.077845
 1638         hc     57    bbb     H9   1638 0.06265900   1.008000   ; qtot 0.140504
 1639         hc     57    bbb    H10   1639 0.06265900   1.008000   ; qtot 0.203163
 1640         c3     57    bbb     C6   1640 0.11363000  12.010000   ; qtot 0.316793
 1641         hc     57    bbb    H11   1641 0.06265900   1.008000   ; qtot 0.379452
 1642         hc     57    bbb    H12   1642 0.06265900   1.008000   ; qtot 0.442111
 1643         c3     57    bbb     C7   1643 0.05858200  12.010000   ; qtot 0.500693
 1644         h1     57    bbb    H13   1644 0.06123400   1.008000   ; qtot 0.561927
 1645         h1     57    bbb    H14   1645 0.06123400   1.008000   ; qtot 0.623161
 1646         c3     57    bbb     C8   1646 -0.72423400  12.010000   ; qtot -0.101073
 1647         h1     57    bbb    H15   1647 0.25637600   1.008000   ; qtot 0.155303
 1648         h1     57    bbb    H16   1648 0.25637600   1.008000   ; qtot 0.411679
 1649         c3     57    bbb     C9   1649 -0.72423400  12.010000   ; qtot -0.312555
 1650         h1     57    bbb    H17   1650 0.25637600   1.008000   ; qtot -0.056179
 1651         h1     57    bbb    H18   1651 0.25637600   1.008000   ; qtot 0.200197
 1652         os     57    bbb     O1   1652 -0.20025300  16.000000   ; qtot -0.000056
; residue   58 bbb rtp bbb q -0.0
 1653         n3     58    bbb     N1   1653 -0.59685800  14.010000   ; qtot -0.596914
 1654         c3     58    bbb     C1   1654 0.10137000  12.010000   ; qtot -0.495544
 1655         h1     58    bbb     H1   1655 0.04411300   1.008000   ; qtot -0.451431
 1656         h1     58    bbb     H2   1656 0.04411300   1.008000   ; qtot -0.407318
 1657         c3     58    bbb     C2   1657 0.10137000  12.010000   ; qtot -0.305948
 1658         h1     58    bbb     H3   1658 0.04411300   1.008000   ; qtot -0.261835
 1659         h1     58    bbb     H4   1659 0.04411300   1.008000   ; qtot -0.217722
 1660         c3     58    bbb     C3   1660 -0.00195300  12.010000   ; qtot -0.219675
 1661         h1     58    bbb     H5   1661 0.05064400   1.008000   ; qtot -0.169031
 1662         h1     58    bbb     H6   1662 0.05064400   1.008000   ; qtot -0.118387
 1663         c3     58    bbb     C4   1663 -0.01612100  12.010000   ; qtot -0.134508
 1664         hc     58    bbb     H7   1664 0.04936100   1.008000   ; qtot -0.085147
 1665         hc     58    bbb     H8   1665 0.04936100   1.008000   ; qtot -0.035786
 1666         c3     58    bbb     C5   1666 0.11363000  12.010000   ; qtot 0.077844
 1667         hc     58    bbb     H9   1667 0.06265900   1.008000   ; qtot 0.140503
 1668         hc     58    bbb    H10   1668 0.06265900   1.008000   ; qtot 0.203162
 1669         c3     58    bbb     C6   1669 0.11363000  12.010000   ; qtot 0.316792
 1670         hc     58    bbb    H11   1670 0.06265900   1.008000   ; qtot 0.379451
 1671         hc     58    bbb    H12   1671 0.06265900   1.008000   ; qtot 0.442110
 1672         c3     58    bbb     C7   1672 0.05858200  12.010000   ; qtot 0.500692
 1673         h1     58    bbb    H13   1673 0.06123400   1.008000   ; qtot 0.561926
 1674         h1     58    bbb    H14   1674 0.06123400   1.008000   ; qtot 0.623160
 1675         c3     58    bbb     C8   1675 -0.72423400  12.010000   ; qtot -0.101074
 1676         h1     58    bbb    H15   1676 0.25637600   1.008000   ; qtot 0.155302
 1677         h1     58    bbb    H16   1677 0.25637600   1.008000   ; qtot 0.411678
 1678         c3     58    bbb     C9   1678 -0.72423400  12.010000   ; qtot -0.312556
 1679         h1     58    bbb    H17   1679 0.25637600   1.008000   ; qtot -0.056180
 1680         h1     58    bbb    H18   1680 0.25637600   1.008000   ; qtot 0.200196
 1681         os     58    bbb     O1   1681 -0.20025300  16.000000   ; qtot -0.000057
; residue   59 bbb rtp bbb q -0.0
 1682         n3     59    bbb     N1   1682 -0.59685800  14.010000   ; qtot -0.596915
 1683         c3     59    bbb     C1   1683 0.10137000  12.010000   ; qtot -0.495545
 1684         h1     59    bbb     H1   1684 0.04411300   1.008000   ; qtot -0.451432
 1685         h1     59    bbb     H2   1685 0.04411300   1.008000   ; qtot -0.407319
 1686         c3     59    bbb     C2   1686 0.10137000  12.010000   ; qtot -0.305949
 1687         h1     59    bbb     H3   1687 0.04411300   1.008000   ; qtot -0.261836
 1688         h1     59    bbb     H4   1688 0.04411300   1.008000   ; qtot -0.217723
 1689         c3     59    bbb     C3   1689 -0.00195300  12.010000   ; qtot -0.219676
 1690         h1     59    bbb     H5   1690 0.05064400   1.008000   ; qtot -0.169032
 1691         h1     59    bbb     H6   1691 0.05064400   1.008000   ; qtot -0.118388
 1692         c3     59    bbb     C4   1692 -0.01612100  12.010000   ; qtot -0.134509
 1693         hc     59    bbb     H7   1693 0.04936100   1.008000   ; qtot -0.085148
 1694         hc     59    bbb     H8   1694 0.04936100   1.008000   ; qtot -0.035787
 1695         c3     59    bbb     C5   1695 0.11363000  12.010000   ; qtot 0.077843
 1696         hc     59    bbb     H9   1696 0.06265900   1.008000   ; qtot 0.140502
 1697         hc     59    bbb    H10   1697 0.06265900   1.008000   ; qtot 0.203161
 1698         c3     59    bbb     C6   1698 0.11363000  12.010000   ; qtot 0.316791
 1699         hc     59    bbb    H11   1699 0.06265900   1.008000   ; qtot 0.379450
 1700         hc     59    bbb    H12   1700 0.06265900   1.008000   ; qtot 0.442109
 1701         c3     59    bbb     C7   1701 0.05858200  12.010000   ; qtot 0.500691
 1702         h1     59    bbb    H13   1702 0.06123400   1.008000   ; qtot 0.561925
 1703         h1     59    bbb    H14   1703 0.06123400   1.008000   ; qtot 0.623159
 1704         c3     59    bbb     C8   1704 -0.72423400  12.010000   ; qtot -0.101075
 1705         h1     59    bbb    H15   1705 0.25637600   1.008000   ; qtot 0.155301
 1706         h1     59    bbb    H16   1706 0.25637600   1.008000   ; qtot 0.411677
 1707         c3     59    bbb     C9   1707 -0.72423400  12.010000   ; qtot -0.312557
 1708         h1     59    bbb    H17   1708 0.25637600   1.008000   ; qtot -0.056181
 1709         h1     59    bbb    H18   1709 0.25637600   1.008000   ; qtot 0.200195
 1710         os     59    bbb     O1   1710 -0.20025300  16.000000   ; qtot -0.000058
; residue   60 bbb rtp bbb q -0.0
 1711         n3     60    bbb     N1   1711 -0.59685800  14.010000   ; qtot -0.596916
 1712         c3     60    bbb     C1   1712 0.10137000  12.010000   ; qtot -0.495546
 1713         h1     60    bbb     H1   1713 0.04411300   1.008000   ; qtot -0.451433
 1714         h1     60    bbb     H2   1714 0.04411300   1.008000   ; qtot -0.407320
 1715         c3     60    bbb     C2   1715 0.10137000  12.010000   ; qtot -0.305950
 1716         h1     60    bbb     H3   1716 0.04411300   1.008000   ; qtot -0.261837
 1717         h1     60    bbb     H4   1717 0.04411300   1.008000   ; qtot -0.217724
 1718         c3     60    bbb     C3   1718 -0.00195300  12.010000   ; qtot -0.219677
 1719         h1     60    bbb     H5   1719 0.05064400   1.008000   ; qtot -0.169033
 1720         h1     60    bbb     H6   1720 0.05064400   1.008000   ; qtot -0.118389
 1721         c3     60    bbb     C4   1721 -0.01612100  12.010000   ; qtot -0.134510
 1722         hc     60    bbb     H7   1722 0.04936100   1.008000   ; qtot -0.085149
 1723         hc     60    bbb     H8   1723 0.04936100   1.008000   ; qtot -0.035788
 1724         c3     60    bbb     C5   1724 0.11363000  12.010000   ; qtot 0.077842
 1725         hc     60    bbb     H9   1725 0.06265900   1.008000   ; qtot 0.140501
 1726         hc     60    bbb    H10   1726 0.06265900   1.008000   ; qtot 0.203160
 1727         c3     60    bbb     C6   1727 0.11363000  12.010000   ; qtot 0.316790
 1728         hc     60    bbb    H11   1728 0.06265900   1.008000   ; qtot 0.379449
 1729         hc     60    bbb    H12   1729 0.06265900   1.008000   ; qtot 0.442108
 1730         c3     60    bbb     C7   1730 0.05858200  12.010000   ; qtot 0.500690
 1731         h1     60    bbb    H13   1731 0.06123400   1.008000   ; qtot 0.561924
 1732         h1     60    bbb    H14   1732 0.06123400   1.008000   ; qtot 0.623158
 1733         c3     60    bbb     C8   1733 -0.72423400  12.010000   ; qtot -0.101076
 1734         h1     60    bbb    H15   1734 0.25637600   1.008000   ; qtot 0.155300
 1735         h1     60    bbb    H16   1735 0.25637600   1.008000   ; qtot 0.411676
 1736         c3     60    bbb     C9   1736 -0.72423400  12.010000   ; qtot -0.312558
 1737         h1     60    bbb    H17   1737 0.25637600   1.008000   ; qtot -0.056182
 1738         h1     60    bbb    H18   1738 0.25637600   1.008000   ; qtot 0.200194
 1739         os     60    bbb     O1   1739 -0.20025300  16.000000   ; qtot -0.000059
; residue   61 bbb rtp bbb q -0.0
 1740         n3     61    bbb     N1   1740 -0.59685800  14.010000   ; qtot -0.596917
 1741         c3     61    bbb     C1   1741 0.10137000  12.010000   ; qtot -0.495547
 1742         h1     61    bbb     H1   1742 0.04411300   1.008000   ; qtot -0.451434
 1743         h1     61    bbb     H2   1743 0.04411300   1.008000   ; qtot -0.407321
 1744         c3     61    bbb     C2   1744 0.10137000  12.010000   ; qtot -0.305951
 1745         h1     61    bbb     H3   1745 0.04411300   1.008000   ; qtot -0.261838
 1746         h1     61    bbb     H4   1746 0.04411300   1.008000   ; qtot -0.217725
 1747         c3     61    bbb     C3   1747 -0.00195300  12.010000   ; qtot -0.219678
 1748         h1     61    bbb     H5   1748 0.05064400   1.008000   ; qtot -0.169034
 1749         h1     61    bbb     H6   1749 0.05064400   1.008000   ; qtot -0.118390
 1750         c3     61    bbb     C4   1750 -0.01612100  12.010000   ; qtot -0.134511
 1751         hc     61    bbb     H7   1751 0.04936100   1.008000   ; qtot -0.085150
 1752         hc     61    bbb     H8   1752 0.04936100   1.008000   ; qtot -0.035789
 1753         c3     61    bbb     C5   1753 0.11363000  12.010000   ; qtot 0.077841
 1754         hc     61    bbb     H9   1754 0.06265900   1.008000   ; qtot 0.140500
 1755         hc     61    bbb    H10   1755 0.06265900   1.008000   ; qtot 0.203159
 1756         c3     61    bbb     C6   1756 0.11363000  12.010000   ; qtot 0.316789
 1757         hc     61    bbb    H11   1757 0.06265900   1.008000   ; qtot 0.379448
 1758         hc     61    bbb    H12   1758 0.06265900   1.008000   ; qtot 0.442107
 1759         c3     61    bbb     C7   1759 0.05858200  12.010000   ; qtot 0.500689
 1760         h1     61    bbb    H13   1760 0.06123400   1.008000   ; qtot 0.561923
 1761         h1     61    bbb    H14   1761 0.06123400   1.008000   ; qtot 0.623157
 1762         c3     61    bbb     C8   1762 -0.72423400  12.010000   ; qtot -0.101077
 1763         h1     61    bbb    H15   1763 0.25637600   1.008000   ; qtot 0.155299
 1764         h1     61    bbb    H16   1764 0.25637600   1.008000   ; qtot 0.411675
 1765         c3     61    bbb     C9   1765 -0.72423400  12.010000   ; qtot -0.312559
 1766         h1     61    bbb    H17   1766 0.25637600   1.008000   ; qtot -0.056183
 1767         h1     61    bbb    H18   1767 0.25637600   1.008000   ; qtot 0.200193
 1768         os     61    bbb     O1   1768 -0.20025300  16.000000   ; qtot -0.000060
; residue   62 bbb rtp bbb q -0.0
 1769         n3     62    bbb     N1   1769 -0.59685800  14.010000   ; qtot -0.596918
 1770         c3     62    bbb     C1   1770 0.10137000  12.010000   ; qtot -0.495548
 1771         h1     62    bbb     H1   1771 0.04411300   1.008000   ; qtot -0.451435
 1772         h1     62    bbb     H2   1772 0.04411300   1.008000   ; qtot -0.407322
 1773         c3     62    bbb     C2   1773 0.10137000  12.010000   ; qtot -0.305952
 1774         h1     62    bbb     H3   1774 0.04411300   1.008000   ; qtot -0.261839
 1775         h1     62    bbb     H4   1775 0.04411300   1.008000   ; qtot -0.217726
 1776         c3     62    bbb     C3   1776 -0.00195300  12.010000   ; qtot -0.219679
 1777         h1     62    bbb     H5   1777 0.05064400   1.008000   ; qtot -0.169035
 1778         h1     62    bbb     H6   1778 0.05064400   1.008000   ; qtot -0.118391
 1779         c3     62    bbb     C4   1779 -0.01612100  12.010000   ; qtot -0.134512
 1780         hc     62    bbb     H7   1780 0.04936100   1.008000   ; qtot -0.085151
 1781         hc     62    bbb     H8   1781 0.04936100   1.008000   ; qtot -0.035790
 1782         c3     62    bbb     C5   1782 0.11363000  12.010000   ; qtot 0.077840
 1783         hc     62    bbb     H9   1783 0.06265900   1.008000   ; qtot 0.140499
 1784         hc     62    bbb    H10   1784 0.06265900   1.008000   ; qtot 0.203158
 1785         c3     62    bbb     C6   1785 0.11363000  12.010000   ; qtot 0.316788
 1786         hc     62    bbb    H11   1786 0.06265900   1.008000   ; qtot 0.379447
 1787         hc     62    bbb    H12   1787 0.06265900   1.008000   ; qtot 0.442106
 1788         c3     62    bbb     C7   1788 0.05858200  12.010000   ; qtot 0.500688
 1789         h1     62    bbb    H13   1789 0.06123400   1.008000   ; qtot 0.561922
 1790         h1     62    bbb    H14   1790 0.06123400   1.008000   ; qtot 0.623156
 1791         c3     62    bbb     C8   1791 -0.72423400  12.010000   ; qtot -0.101078
 1792         h1     62    bbb    H15   1792 0.25637600   1.008000   ; qtot 0.155298
 1793         h1     62    bbb    H16   1793 0.25637600   1.008000   ; qtot 0.411674
 1794         c3     62    bbb     C9   1794 -0.72423400  12.010000   ; qtot -0.312560
 1795         h1     62    bbb    H17   1795 0.25637600   1.008000   ; qtot -0.056184
 1796         h1     62    bbb    H18   1796 0.25637600   1.008000   ; qtot 0.200192
 1797         os     62    bbb     O1   1797 -0.20025300  16.000000   ; qtot -0.000061
; residue   63 bbb rtp bbb q -0.0
 1798         n3     63    bbb     N1   1798 -0.59685800  14.010000   ; qtot -0.596919
 1799         c3     63    bbb     C1   1799 0.10137000  12.010000   ; qtot -0.495549
 1800         h1     63    bbb     H1   1800 0.04411300   1.008000   ; qtot -0.451436
 1801         h1     63    bbb     H2   1801 0.04411300   1.008000   ; qtot -0.407323
 1802         c3     63    bbb     C2   1802 0.10137000  12.010000   ; qtot -0.305953
 1803         h1     63    bbb     H3   1803 0.04411300   1.008000   ; qtot -0.261840
 1804         h1     63    bbb     H4   1804 0.04411300   1.008000   ; qtot -0.217727
 1805         c3     63    bbb     C3   1805 -0.00195300  12.010000   ; qtot -0.219680
 1806         h1     63    bbb     H5   1806 0.05064400   1.008000   ; qtot -0.169036
 1807         h1     63    bbb     H6   1807 0.05064400   1.008000   ; qtot -0.118392
 1808         c3     63    bbb     C4   1808 -0.01612100  12.010000   ; qtot -0.134513
 1809         hc     63    bbb     H7   1809 0.04936100   1.008000   ; qtot -0.085152
 1810         hc     63    bbb     H8   1810 0.04936100   1.008000   ; qtot -0.035791
 1811         c3     63    bbb     C5   1811 0.11363000  12.010000   ; qtot 0.077839
 1812         hc     63    bbb     H9   1812 0.06265900   1.008000   ; qtot 0.140498
 1813         hc     63    bbb    H10   1813 0.06265900   1.008000   ; qtot 0.203157
 1814         c3     63    bbb     C6   1814 0.11363000  12.010000   ; qtot 0.316787
 1815         hc     63    bbb    H11   1815 0.06265900   1.008000   ; qtot 0.379446
 1816         hc     63    bbb    H12   1816 0.06265900   1.008000   ; qtot 0.442105
 1817         c3     63    bbb     C7   1817 0.05858200  12.010000   ; qtot 0.500687
 1818         h1     63    bbb    H13   1818 0.06123400   1.008000   ; qtot 0.561921
 1819         h1     63    bbb    H14   1819 0.06123400   1.008000   ; qtot 0.623155
 1820         c3     63    bbb     C8   1820 -0.72423400  12.010000   ; qtot -0.101079
 1821         h1     63    bbb    H15   1821 0.25637600   1.008000   ; qtot 0.155297
 1822         h1     63    bbb    H16   1822 0.25637600   1.008000   ; qtot 0.411673
 1823         c3     63    bbb     C9   1823 -0.72423400  12.010000   ; qtot -0.312561
 1824         h1     63    bbb    H17   1824 0.25637600   1.008000   ; qtot -0.056185
 1825         h1     63    bbb    H18   1825 0.25637600   1.008000   ; qtot 0.200191
 1826         os     63    bbb     O1   1826 -0.20025300  16.000000   ; qtot -0.000062
; residue   64 bbb rtp bbb q -0.0
 1827         n3     64    bbb     N1   1827 -0.59685800  14.010000   ; qtot -0.596920
 1828         c3     64    bbb     C1   1828 0.10137000  12.010000   ; qtot -0.495550
 1829         h1     64    bbb     H1   1829 0.04411300   1.008000   ; qtot -0.451437
 1830         h1     64    bbb     H2   1830 0.04411300   1.008000   ; qtot -0.407324
 1831         c3     64    bbb     C2   1831 0.10137000  12.010000   ; qtot -0.305954
 1832         h1     64    bbb     H3   1832 0.04411300   1.008000   ; qtot -0.261841
 1833         h1     64    bbb     H4   1833 0.04411300   1.008000   ; qtot -0.217728
 1834         c3     64    bbb     C3   1834 -0.00195300  12.010000   ; qtot -0.219681
 1835         h1     64    bbb     H5   1835 0.05064400   1.008000   ; qtot -0.169037
 1836         h1     64    bbb     H6   1836 0.05064400   1.008000   ; qtot -0.118393
 1837         c3     64    bbb     C4   1837 -0.01612100  12.010000   ; qtot -0.134514
 1838         hc     64    bbb     H7   1838 0.04936100   1.008000   ; qtot -0.085153
 1839         hc     64    bbb     H8   1839 0.04936100   1.008000   ; qtot -0.035792
 1840         c3     64    bbb     C5   1840 0.11363000  12.010000   ; qtot 0.077838
 1841         hc     64    bbb     H9   1841 0.06265900   1.008000   ; qtot 0.140497
 1842         hc     64    bbb    H10   1842 0.06265900   1.008000   ; qtot 0.203156
 1843         c3     64    bbb     C6   1843 0.11363000  12.010000   ; qtot 0.316786
 1844         hc     64    bbb    H11   1844 0.06265900   1.008000   ; qtot 0.379445
 1845         hc     64    bbb    H12   1845 0.06265900   1.008000   ; qtot 0.442104
 1846         c3     64    bbb     C7   1846 0.05858200  12.010000   ; qtot 0.500686
 1847         h1     64    bbb    H13   1847 0.06123400   1.008000   ; qtot 0.561920
 1848         h1     64    bbb    H14   1848 0.06123400   1.008000   ; qtot 0.623154
 1849         c3     64    bbb     C8   1849 -0.72423400  12.010000   ; qtot -0.101080
 1850         h1     64    bbb    H15   1850 0.25637600   1.008000   ; qtot 0.155296
 1851         h1     64    bbb    H16   1851 0.25637600   1.008000   ; qtot 0.411672
 1852         c3     64    bbb     C9   1852 -0.72423400  12.010000   ; qtot -0.312562
 1853         h1     64    bbb    H17   1853 0.25637600   1.008000   ; qtot -0.056186
 1854         h1     64    bbb    H18   1854 0.25637600   1.008000   ; qtot 0.200190
 1855         os     64    bbb     O1   1855 -0.20025300  16.000000   ; qtot -0.000063
; residue   65 bbb rtp bbb q -0.0
 1856         n3     65    bbb     N1   1856 -0.59685800  14.010000   ; qtot -0.596921
 1857         c3     65    bbb     C1   1857 0.10137000  12.010000   ; qtot -0.495551
 1858         h1     65    bbb     H1   1858 0.04411300   1.008000   ; qtot -0.451438
 1859         h1     65    bbb     H2   1859 0.04411300   1.008000   ; qtot -0.407325
 1860         c3     65    bbb     C2   1860 0.10137000  12.010000   ; qtot -0.305955
 1861         h1     65    bbb     H3   1861 0.04411300   1.008000   ; qtot -0.261842
 1862         h1     65    bbb     H4   1862 0.04411300   1.008000   ; qtot -0.217729
 1863         c3     65    bbb     C3   1863 -0.00195300  12.010000   ; qtot -0.219682
 1864         h1     65    bbb     H5   1864 0.05064400   1.008000   ; qtot -0.169038
 1865         h1     65    bbb     H6   1865 0.05064400   1.008000   ; qtot -0.118394
 1866         c3     65    bbb     C4   1866 -0.01612100  12.010000   ; qtot -0.134515
 1867         hc     65    bbb     H7   1867 0.04936100   1.008000   ; qtot -0.085154
 1868         hc     65    bbb     H8   1868 0.04936100   1.008000   ; qtot -0.035793
 1869         c3     65    bbb     C5   1869 0.11363000  12.010000   ; qtot 0.077837
 1870         hc     65    bbb     H9   1870 0.06265900   1.008000   ; qtot 0.140496
 1871         hc     65    bbb    H10   1871 0.06265900   1.008000   ; qtot 0.203155
 1872         c3     65    bbb     C6   1872 0.11363000  12.010000   ; qtot 0.316785
 1873         hc     65    bbb    H11   1873 0.06265900   1.008000   ; qtot 0.379444
 1874         hc     65    bbb    H12   1874 0.06265900   1.008000   ; qtot 0.442103
 1875         c3     65    bbb     C7   1875 0.05858200  12.010000   ; qtot 0.500685
 1876         h1     65    bbb    H13   1876 0.06123400   1.008000   ; qtot 0.561919
 1877         h1     65    bbb    H14   1877 0.06123400   1.008000   ; qtot 0.623153
 1878         c3     65    bbb     C8   1878 -0.72423400  12.010000   ; qtot -0.101081
 1879         h1     65    bbb    H15   1879 0.25637600   1.008000   ; qtot 0.155295
 1880         h1     65    bbb    H16   1880 0.25637600   1.008000   ; qtot 0.411671
 1881         c3     65    bbb     C9   1881 -0.72423400  12.010000   ; qtot -0.312563
 1882         h1     65    bbb    H17   1882 0.25637600   1.008000   ; qtot -0.056187
 1883         h1     65    bbb    H18   1883 0.25637600   1.008000   ; qtot 0.200189
 1884         os     65    bbb     O1   1884 -0.20025300  16.000000   ; qtot -0.000064
; residue   66 bbb rtp bbb q -0.0
 1885         n3     66    bbb     N1   1885 -0.59685800  14.010000   ; qtot -0.596922
 1886         c3     66    bbb     C1   1886 0.10137000  12.010000   ; qtot -0.495552
 1887         h1     66    bbb     H1   1887 0.04411300   1.008000   ; qtot -0.451439
 1888         h1     66    bbb     H2   1888 0.04411300   1.008000   ; qtot -0.407326
 1889         c3     66    bbb     C2   1889 0.10137000  12.010000   ; qtot -0.305956
 1890         h1     66    bbb     H3   1890 0.04411300   1.008000   ; qtot -0.261843
 1891         h1     66    bbb     H4   1891 0.04411300   1.008000   ; qtot -0.217730
 1892         c3     66    bbb     C3   1892 -0.00195300  12.010000   ; qtot -0.219683
 1893         h1     66    bbb     H5   1893 0.05064400   1.008000   ; qtot -0.169039
 1894         h1     66    bbb     H6   1894 0.05064400   1.008000   ; qtot -0.118395
 1895         c3     66    bbb     C4   1895 -0.01612100  12.010000   ; qtot -0.134516
 1896         hc     66    bbb     H7   1896 0.04936100   1.008000   ; qtot -0.085155
 1897         hc     66    bbb     H8   1897 0.04936100   1.008000   ; qtot -0.035794
 1898         c3     66    bbb     C5   1898 0.11363000  12.010000   ; qtot 0.077836
 1899         hc     66    bbb     H9   1899 0.06265900   1.008000   ; qtot 0.140495
 1900         hc     66    bbb    H10   1900 0.06265900   1.008000   ; qtot 0.203154
 1901         c3     66    bbb     C6   1901 0.11363000  12.010000   ; qtot 0.316784
 1902         hc     66    bbb    H11   1902 0.06265900   1.008000   ; qtot 0.379443
 1903         hc     66    bbb    H12   1903 0.06265900   1.008000   ; qtot 0.442102
 1904         c3     66    bbb     C7   1904 0.05858200  12.010000   ; qtot 0.500684
 1905         h1     66    bbb    H13   1905 0.06123400   1.008000   ; qtot 0.561918
 1906         h1     66    bbb    H14   1906 0.06123400   1.008000   ; qtot 0.623152
 1907         c3     66    bbb     C8   1907 -0.72423400  12.010000   ; qtot -0.101082
 1908         h1     66    bbb    H15   1908 0.25637600   1.008000   ; qtot 0.155294
 1909         h1     66    bbb    H16   1909 0.25637600   1.008000   ; qtot 0.411670
 1910         c3     66    bbb     C9   1910 -0.72423400  12.010000   ; qtot -0.312564
 1911         h1     66    bbb    H17   1911 0.25637600   1.008000   ; qtot -0.056188
 1912         h1     66    bbb    H18   1912 0.25637600   1.008000   ; qtot 0.200188
 1913         os     66    bbb     O1   1913 -0.20025300  16.000000   ; qtot -0.000065
; residue   67 bbb rtp bbb q -0.0
 1914         n3     67    bbb     N1   1914 -0.59685800  14.010000   ; qtot -0.596923
 1915         c3     67    bbb     C1   1915 0.10137000  12.010000   ; qtot -0.495553
 1916         h1     67    bbb     H1   1916 0.04411300   1.008000   ; qtot -0.451440
 1917         h1     67    bbb     H2   1917 0.04411300   1.008000   ; qtot -0.407327
 1918         c3     67    bbb     C2   1918 0.10137000  12.010000   ; qtot -0.305957
 1919         h1     67    bbb     H3   1919 0.04411300   1.008000   ; qtot -0.261844
 1920         h1     67    bbb     H4   1920 0.04411300   1.008000   ; qtot -0.217731
 1921         c3     67    bbb     C3   1921 -0.00195300  12.010000   ; qtot -0.219684
 1922         h1     67    bbb     H5   1922 0.05064400   1.008000   ; qtot -0.169040
 1923         h1     67    bbb     H6   1923 0.05064400   1.008000   ; qtot -0.118396
 1924         c3     67    bbb     C4   1924 -0.01612100  12.010000   ; qtot -0.134517
 1925         hc     67    bbb     H7   1925 0.04936100   1.008000   ; qtot -0.085156
 1926         hc     67    bbb     H8   1926 0.04936100   1.008000   ; qtot -0.035795
 1927         c3     67    bbb     C5   1927 0.11363000  12.010000   ; qtot 0.077835
 1928         hc     67    bbb     H9   1928 0.06265900   1.008000   ; qtot 0.140494
 1929         hc     67    bbb    H10   1929 0.06265900   1.008000   ; qtot 0.203153
 1930         c3     67    bbb     C6   1930 0.11363000  12.010000   ; qtot 0.316783
 1931         hc     67    bbb    H11   1931 0.06265900   1.008000   ; qtot 0.379442
 1932         hc     67    bbb    H12   1932 0.06265900   1.008000   ; qtot 0.442101
 1933         c3     67    bbb     C7   1933 0.05858200  12.010000   ; qtot 0.500683
 1934         h1     67    bbb    H13   1934 0.06123400   1.008000   ; qtot 0.561917
 1935         h1     67    bbb    H14   1935 0.06123400   1.008000   ; qtot 0.623151
 1936         c3     67    bbb     C8   1936 -0.72423400  12.010000   ; qtot -0.101083
 1937         h1     67    bbb    H15   1937 0.25637600   1.008000   ; qtot 0.155293
 1938         h1     67    bbb    H16   1938 0.25637600   1.008000   ; qtot 0.411669
 1939         c3     67    bbb     C9   1939 -0.72423400  12.010000   ; qtot -0.312565
 1940         h1     67    bbb    H17   1940 0.25637600   1.008000   ; qtot -0.056189
 1941         h1     67    bbb    H18   1941 0.25637600   1.008000   ; qtot 0.200187
 1942         os     67    bbb     O1   1942 -0.20025300  16.000000   ; qtot -0.000066
; residue   68 bbb rtp bbb q -0.0
 1943         n3     68    bbb     N1   1943 -0.59685800  14.010000   ; qtot -0.596924
 1944         c3     68    bbb     C1   1944 0.10137000  12.010000   ; qtot -0.495554
 1945         h1     68    bbb     H1   1945 0.04411300   1.008000   ; qtot -0.451441
 1946         h1     68    bbb     H2   1946 0.04411300   1.008000   ; qtot -0.407328
 1947         c3     68    bbb     C2   1947 0.10137000  12.010000   ; qtot -0.305958
 1948         h1     68    bbb     H3   1948 0.04411300   1.008000   ; qtot -0.261845
 1949         h1     68    bbb     H4   1949 0.04411300   1.008000   ; qtot -0.217732
 1950         c3     68    bbb     C3   1950 -0.00195300  12.010000   ; qtot -0.219685
 1951         h1     68    bbb     H5   1951 0.05064400   1.008000   ; qtot -0.169041
 1952         h1     68    bbb     H6   1952 0.05064400   1.008000   ; qtot -0.118397
 1953         c3     68    bbb     C4   1953 -0.01612100  12.010000   ; qtot -0.134518
 1954         hc     68    bbb     H7   1954 0.04936100   1.008000   ; qtot -0.085157
 1955         hc     68    bbb     H8   1955 0.04936100   1.008000   ; qtot -0.035796
 1956         c3     68    bbb     C5   1956 0.11363000  12.010000   ; qtot 0.077834
 1957         hc     68    bbb     H9   1957 0.06265900   1.008000   ; qtot 0.140493
 1958         hc     68    bbb    H10   1958 0.06265900   1.008000   ; qtot 0.203152
 1959         c3     68    bbb     C6   1959 0.11363000  12.010000   ; qtot 0.316782
 1960         hc     68    bbb    H11   1960 0.06265900   1.008000   ; qtot 0.379441
 1961         hc     68    bbb    H12   1961 0.06265900   1.008000   ; qtot 0.442100
 1962         c3     68    bbb     C7   1962 0.05858200  12.010000   ; qtot 0.500682
 1963         h1     68    bbb    H13   1963 0.06123400   1.008000   ; qtot 0.561916
 1964         h1     68    bbb    H14   1964 0.06123400   1.008000   ; qtot 0.623150
 1965         c3     68    bbb     C8   1965 -0.72423400  12.010000   ; qtot -0.101084
 1966         h1     68    bbb    H15   1966 0.25637600   1.008000   ; qtot 0.155292
 1967         h1     68    bbb    H16   1967 0.25637600   1.008000   ; qtot 0.411668
 1968         c3     68    bbb     C9   1968 -0.72423400  12.010000   ; qtot -0.312566
 1969         h1     68    bbb    H17   1969 0.25637600   1.008000   ; qtot -0.056190
 1970         h1     68    bbb    H18   1970 0.25637600   1.008000   ; qtot 0.200186
 1971         os     68    bbb     O1   1971 -0.20025300  16.000000   ; qtot -0.000067
; residue   69 bbb rtp bbb q -0.0
 1972         n3     69    bbb     N1   1972 -0.59685800  14.010000   ; qtot -0.596925
 1973         c3     69    bbb     C1   1973 0.10137000  12.010000   ; qtot -0.495555
 1974         h1     69    bbb     H1   1974 0.04411300   1.008000   ; qtot -0.451442
 1975         h1     69    bbb     H2   1975 0.04411300   1.008000   ; qtot -0.407329
 1976         c3     69    bbb     C2   1976 0.10137000  12.010000   ; qtot -0.305959
 1977         h1     69    bbb     H3   1977 0.04411300   1.008000   ; qtot -0.261846
 1978         h1     69    bbb     H4   1978 0.04411300   1.008000   ; qtot -0.217733
 1979         c3     69    bbb     C3   1979 -0.00195300  12.010000   ; qtot -0.219686
 1980         h1     69    bbb     H5   1980 0.05064400   1.008000   ; qtot -0.169042
 1981         h1     69    bbb     H6   1981 0.05064400   1.008000   ; qtot -0.118398
 1982         c3     69    bbb     C4   1982 -0.01612100  12.010000   ; qtot -0.134519
 1983         hc     69    bbb     H7   1983 0.04936100   1.008000   ; qtot -0.085158
 1984         hc     69    bbb     H8   1984 0.04936100   1.008000   ; qtot -0.035797
 1985         c3     69    bbb     C5   1985 0.11363000  12.010000   ; qtot 0.077833
 1986         hc     69    bbb     H9   1986 0.06265900   1.008000   ; qtot 0.140492
 1987         hc     69    bbb    H10   1987 0.06265900   1.008000   ; qtot 0.203151
 1988         c3     69    bbb     C6   1988 0.11363000  12.010000   ; qtot 0.316781
 1989         hc     69    bbb    H11   1989 0.06265900   1.008000   ; qtot 0.379440
 1990         hc     69    bbb    H12   1990 0.06265900   1.008000   ; qtot 0.442099
 1991         c3     69    bbb     C7   1991 0.05858200  12.010000   ; qtot 0.500681
 1992         h1     69    bbb    H13   1992 0.06123400   1.008000   ; qtot 0.561915
 1993         h1     69    bbb    H14   1993 0.06123400   1.008000   ; qtot 0.623149
 1994         c3     69    bbb     C8   1994 -0.72423400  12.010000   ; qtot -0.101085
 1995         h1     69    bbb    H15   1995 0.25637600   1.008000   ; qtot 0.155291
 1996         h1     69    bbb    H16   1996 0.25637600   1.008000   ; qtot 0.411667
 1997         c3     69    bbb     C9   1997 -0.72423400  12.010000   ; qtot -0.312567
 1998         h1     69    bbb    H17   1998 0.25637600   1.008000   ; qtot -0.056191
 1999         h1     69    bbb    H18   1999 0.25637600   1.008000   ; qtot 0.200185
 2000         os     69    bbb     O1   2000 -0.20025300  16.000000   ; qtot -0.000068
; residue   70 bbb rtp bbb q -0.0
 2001         n3     70    bbb     N1   2001 -0.59685800  14.010000   ; qtot -0.596926
 2002         c3     70    bbb     C1   2002 0.10137000  12.010000   ; qtot -0.495556
 2003         h1     70    bbb     H1   2003 0.04411300   1.008000   ; qtot -0.451443
 2004         h1     70    bbb     H2   2004 0.04411300   1.008000   ; qtot -0.407330
 2005         c3     70    bbb     C2   2005 0.10137000  12.010000   ; qtot -0.305960
 2006         h1     70    bbb     H3   2006 0.04411300   1.008000   ; qtot -0.261847
 2007         h1     70    bbb     H4   2007 0.04411300   1.008000   ; qtot -0.217734
 2008         c3     70    bbb     C3   2008 -0.00195300  12.010000   ; qtot -0.219687
 2009         h1     70    bbb     H5   2009 0.05064400   1.008000   ; qtot -0.169043
 2010         h1     70    bbb     H6   2010 0.05064400   1.008000   ; qtot -0.118399
 2011         c3     70    bbb     C4   2011 -0.01612100  12.010000   ; qtot -0.134520
 2012         hc     70    bbb     H7   2012 0.04936100   1.008000   ; qtot -0.085159
 2013         hc     70    bbb     H8   2013 0.04936100   1.008000   ; qtot -0.035798
 2014         c3     70    bbb     C5   2014 0.11363000  12.010000   ; qtot 0.077832
 2015         hc     70    bbb     H9   2015 0.06265900   1.008000   ; qtot 0.140491
 2016         hc     70    bbb    H10   2016 0.06265900   1.008000   ; qtot 0.203150
 2017         c3     70    bbb     C6   2017 0.11363000  12.010000   ; qtot 0.316780
 2018         hc     70    bbb    H11   2018 0.06265900   1.008000   ; qtot 0.379439
 2019         hc     70    bbb    H12   2019 0.06265900   1.008000   ; qtot 0.442098
 2020         c3     70    bbb     C7   2020 0.05858200  12.010000   ; qtot 0.500680
 2021         h1     70    bbb    H13   2021 0.06123400   1.008000   ; qtot 0.561914
 2022         h1     70    bbb    H14   2022 0.06123400   1.008000   ; qtot 0.623148
 2023         c3     70    bbb     C8   2023 -0.72423400  12.010000   ; qtot -0.101086
 2024         h1     70    bbb    H15   2024 0.25637600   1.008000   ; qtot 0.155290
 2025         h1     70    bbb    H16   2025 0.25637600   1.008000   ; qtot 0.411666
 2026         c3     70    bbb     C9   2026 -0.72423400  12.010000   ; qtot -0.312568
 2027         h1     70    bbb    H17   2027 0.25637600   1.008000   ; qtot -0.056192
 2028         h1     70    bbb    H18   2028 0.25637600   1.008000   ; qtot 0.200184
 2029         os     70    bbb     O1   2029 -0.20025300  16.000000   ; qtot -0.000069
; residue   71 bbb rtp bbb q -0.0
 2030         n3     71    bbb     N1   2030 -0.59685800  14.010000   ; qtot -0.596927
 2031         c3     71    bbb     C1   2031 0.10137000  12.010000   ; qtot -0.495557
 2032         h1     71    bbb     H1   2032 0.04411300   1.008000   ; qtot -0.451444
 2033         h1     71    bbb     H2   2033 0.04411300   1.008000   ; qtot -0.407331
 2034         c3     71    bbb     C2   2034 0.10137000  12.010000   ; qtot -0.305961
 2035         h1     71    bbb     H3   2035 0.04411300   1.008000   ; qtot -0.261848
 2036         h1     71    bbb     H4   2036 0.04411300   1.008000   ; qtot -0.217735
 2037         c3     71    bbb     C3   2037 -0.00195300  12.010000   ; qtot -0.219688
 2038         h1     71    bbb     H5   2038 0.05064400   1.008000   ; qtot -0.169044
 2039         h1     71    bbb     H6   2039 0.05064400   1.008000   ; qtot -0.118400
 2040         c3     71    bbb     C4   2040 -0.01612100  12.010000   ; qtot -0.134521
 2041         hc     71    bbb     H7   2041 0.04936100   1.008000   ; qtot -0.085160
 2042         hc     71    bbb     H8   2042 0.04936100   1.008000   ; qtot -0.035799
 2043         c3     71    bbb     C5   2043 0.11363000  12.010000   ; qtot 0.077831
 2044         hc     71    bbb     H9   2044 0.06265900   1.008000   ; qtot 0.140490
 2045         hc     71    bbb    H10   2045 0.06265900   1.008000   ; qtot 0.203149
 2046         c3     71    bbb     C6   2046 0.11363000  12.010000   ; qtot 0.316779
 2047         hc     71    bbb    H11   2047 0.06265900   1.008000   ; qtot 0.379438
 2048         hc     71    bbb    H12   2048 0.06265900   1.008000   ; qtot 0.442097
 2049         c3     71    bbb     C7   2049 0.05858200  12.010000   ; qtot 0.500679
 2050         h1     71    bbb    H13   2050 0.06123400   1.008000   ; qtot 0.561913
 2051         h1     71    bbb    H14   2051 0.06123400   1.008000   ; qtot 0.623147
 2052         c3     71    bbb     C8   2052 -0.72423400  12.010000   ; qtot -0.101087
 2053         h1     71    bbb    H15   2053 0.25637600   1.008000   ; qtot 0.155289
 2054         h1     71    bbb    H16   2054 0.25637600   1.008000   ; qtot 0.411665
 2055         c3     71    bbb     C9   2055 -0.72423400  12.010000   ; qtot -0.312569
 2056         h1     71    bbb    H17   2056 0.25637600   1.008000   ; qtot -0.056193
 2057         h1     71    bbb    H18   2057 0.25637600   1.008000   ; qtot 0.200183
 2058         os     71    bbb     O1   2058 -0.20025300  16.000000   ; qtot -0.000070
; residue   72 bbb rtp bbb q -0.0
 2059         n3     72    bbb     N1   2059 -0.59685800  14.010000   ; qtot -0.596928
 2060         c3     72    bbb     C1   2060 0.10137000  12.010000   ; qtot -0.495558
 2061         h1     72    bbb     H1   2061 0.04411300   1.008000   ; qtot -0.451445
 2062         h1     72    bbb     H2   2062 0.04411300   1.008000   ; qtot -0.407332
 2063         c3     72    bbb     C2   2063 0.10137000  12.010000   ; qtot -0.305962
 2064         h1     72    bbb     H3   2064 0.04411300   1.008000   ; qtot -0.261849
 2065         h1     72    bbb     H4   2065 0.04411300   1.008000   ; qtot -0.217736
 2066         c3     72    bbb     C3   2066 -0.00195300  12.010000   ; qtot -0.219689
 2067         h1     72    bbb     H5   2067 0.05064400   1.008000   ; qtot -0.169045
 2068         h1     72    bbb     H6   2068 0.05064400   1.008000   ; qtot -0.118401
 2069         c3     72    bbb     C4   2069 -0.01612100  12.010000   ; qtot -0.134522
 2070         hc     72    bbb     H7   2070 0.04936100   1.008000   ; qtot -0.085161
 2071         hc     72    bbb     H8   2071 0.04936100   1.008000   ; qtot -0.035800
 2072         c3     72    bbb     C5   2072 0.11363000  12.010000   ; qtot 0.077830
 2073         hc     72    bbb     H9   2073 0.06265900   1.008000   ; qtot 0.140489
 2074         hc     72    bbb    H10   2074 0.06265900   1.008000   ; qtot 0.203148
 2075         c3     72    bbb     C6   2075 0.11363000  12.010000   ; qtot 0.316778
 2076         hc     72    bbb    H11   2076 0.06265900   1.008000   ; qtot 0.379437
 2077         hc     72    bbb    H12   2077 0.06265900   1.008000   ; qtot 0.442096
 2078         c3     72    bbb     C7   2078 0.05858200  12.010000   ; qtot 0.500678
 2079         h1     72    bbb    H13   2079 0.06123400   1.008000   ; qtot 0.561912
 2080         h1     72    bbb    H14   2080 0.06123400   1.008000   ; qtot 0.623146
 2081         c3     72    bbb     C8   2081 -0.72423400  12.010000   ; qtot -0.101088
 2082         h1     72    bbb    H15   2082 0.25637600   1.008000   ; qtot 0.155288
 2083         h1     72    bbb    H16   2083 0.25637600   1.008000   ; qtot 0.411664
 2084         c3     72    bbb     C9   2084 -0.72423400  12.010000   ; qtot -0.312570
 2085         h1     72    bbb    H17   2085 0.25637600   1.008000   ; qtot -0.056194
 2086         h1     72    bbb    H18   2086 0.25637600   1.008000   ; qtot 0.200182
 2087         os     72    bbb     O1   2087 -0.20025300  16.000000   ; qtot -0.000071
; residue   73 bbb rtp bbb q -0.0
 2088         n3     73    bbb     N1   2088 -0.59685800  14.010000   ; qtot -0.596929
 2089         c3     73    bbb     C1   2089 0.10137000  12.010000   ; qtot -0.495559
 2090         h1     73    bbb     H1   2090 0.04411300   1.008000   ; qtot -0.451446
 2091         h1     73    bbb     H2   2091 0.04411300   1.008000   ; qtot -0.407333
 2092         c3     73    bbb     C2   2092 0.10137000  12.010000   ; qtot -0.305963
 2093         h1     73    bbb     H3   2093 0.04411300   1.008000   ; qtot -0.261850
 2094         h1     73    bbb     H4   2094 0.04411300   1.008000   ; qtot -0.217737
 2095         c3     73    bbb     C3   2095 -0.00195300  12.010000   ; qtot -0.219690
 2096         h1     73    bbb     H5   2096 0.05064400   1.008000   ; qtot -0.169046
 2097         h1     73    bbb     H6   2097 0.05064400   1.008000   ; qtot -0.118402
 2098         c3     73    bbb     C4   2098 -0.01612100  12.010000   ; qtot -0.134523
 2099         hc     73    bbb     H7   2099 0.04936100   1.008000   ; qtot -0.085162
 2100         hc     73    bbb     H8   2100 0.04936100   1.008000   ; qtot -0.035801
 2101         c3     73    bbb     C5   2101 0.11363000  12.010000   ; qtot 0.077829
 2102         hc     73    bbb     H9   2102 0.06265900   1.008000   ; qtot 0.140488
 2103         hc     73    bbb    H10   2103 0.06265900   1.008000   ; qtot 0.203147
 2104         c3     73    bbb     C6   2104 0.11363000  12.010000   ; qtot 0.316777
 2105         hc     73    bbb    H11   2105 0.06265900   1.008000   ; qtot 0.379436
 2106         hc     73    bbb    H12   2106 0.06265900   1.008000   ; qtot 0.442095
 2107         c3     73    bbb     C7   2107 0.05858200  12.010000   ; qtot 0.500677
 2108         h1     73    bbb    H13   2108 0.06123400   1.008000   ; qtot 0.561911
 2109         h1     73    bbb    H14   2109 0.06123400   1.008000   ; qtot 0.623145
 2110         c3     73    bbb     C8   2110 -0.72423400  12.010000   ; qtot -0.101089
 2111         h1     73    bbb    H15   2111 0.25637600   1.008000   ; qtot 0.155287
 2112         h1     73    bbb    H16   2112 0.25637600   1.008000   ; qtot 0.411663
 2113         c3     73    bbb     C9   2113 -0.72423400  12.010000   ; qtot -0.312571
 2114         h1     73    bbb    H17   2114 0.25637600   1.008000   ; qtot -0.056195
 2115         h1     73    bbb    H18   2115 0.25637600   1.008000   ; qtot 0.200181
 2116         os     73    bbb     O1   2116 -0.20025300  16.000000   ; qtot -0.000072
; residue   74 bbb rtp bbb q -0.0
 2117         n3     74    bbb     N1   2117 -0.59685800  14.010000   ; qtot -0.596930
 2118         c3     74    bbb     C1   2118 0.10137000  12.010000   ; qtot -0.495560
 2119         h1     74    bbb     H1   2119 0.04411300   1.008000   ; qtot -0.451447
 2120         h1     74    bbb     H2   2120 0.04411300   1.008000   ; qtot -0.407334
 2121         c3     74    bbb     C2   2121 0.10137000  12.010000   ; qtot -0.305964
 2122         h1     74    bbb     H3   2122 0.04411300   1.008000   ; qtot -0.261851
 2123         h1     74    bbb     H4   2123 0.04411300   1.008000   ; qtot -0.217738
 2124         c3     74    bbb     C3   2124 -0.00195300  12.010000   ; qtot -0.219691
 2125         h1     74    bbb     H5   2125 0.05064400   1.008000   ; qtot -0.169047
 2126         h1     74    bbb     H6   2126 0.05064400   1.008000   ; qtot -0.118403
 2127         c3     74    bbb     C4   2127 -0.01612100  12.010000   ; qtot -0.134524
 2128         hc     74    bbb     H7   2128 0.04936100   1.008000   ; qtot -0.085163
 2129         hc     74    bbb     H8   2129 0.04936100   1.008000   ; qtot -0.035802
 2130         c3     74    bbb     C5   2130 0.11363000  12.010000   ; qtot 0.077828
 2131         hc     74    bbb     H9   2131 0.06265900   1.008000   ; qtot 0.140487
 2132         hc     74    bbb    H10   2132 0.06265900   1.008000   ; qtot 0.203146
 2133         c3     74    bbb     C6   2133 0.11363000  12.010000   ; qtot 0.316776
 2134         hc     74    bbb    H11   2134 0.06265900   1.008000   ; qtot 0.379435
 2135         hc     74    bbb    H12   2135 0.06265900   1.008000   ; qtot 0.442094
 2136         c3     74    bbb     C7   2136 0.05858200  12.010000   ; qtot 0.500676
 2137         h1     74    bbb    H13   2137 0.06123400   1.008000   ; qtot 0.561910
 2138         h1     74    bbb    H14   2138 0.06123400   1.008000   ; qtot 0.623144
 2139         c3     74    bbb     C8   2139 -0.72423400  12.010000   ; qtot -0.101090
 2140         h1     74    bbb    H15   2140 0.25637600   1.008000   ; qtot 0.155286
 2141         h1     74    bbb    H16   2141 0.25637600   1.008000   ; qtot 0.411662
 2142         c3     74    bbb     C9   2142 -0.72423400  12.010000   ; qtot -0.312572
 2143         h1     74    bbb    H17   2143 0.25637600   1.008000   ; qtot -0.056196
 2144         h1     74    bbb    H18   2144 0.25637600   1.008000   ; qtot 0.200180
 2145         os     74    bbb     O1   2145 -0.20025300  16.000000   ; qtot -0.000073
; residue   75 bbb rtp bbb q -0.0
 2146         n3     75    bbb     N1   2146 -0.59685800  14.010000   ; qtot -0.596931
 2147         c3     75    bbb     C1   2147 0.10137000  12.010000   ; qtot -0.495561
 2148         h1     75    bbb     H1   2148 0.04411300   1.008000   ; qtot -0.451448
 2149         h1     75    bbb     H2   2149 0.04411300   1.008000   ; qtot -0.407335
 2150         c3     75    bbb     C2   2150 0.10137000  12.010000   ; qtot -0.305965
 2151         h1     75    bbb     H3   2151 0.04411300   1.008000   ; qtot -0.261852
 2152         h1     75    bbb     H4   2152 0.04411300   1.008000   ; qtot -0.217739
 2153         c3     75    bbb     C3   2153 -0.00195300  12.010000   ; qtot -0.219692
 2154         h1     75    bbb     H5   2154 0.05064400   1.008000   ; qtot -0.169048
 2155         h1     75    bbb     H6   2155 0.05064400   1.008000   ; qtot -0.118404
 2156         c3     75    bbb     C4   2156 -0.01612100  12.010000   ; qtot -0.134525
 2157         hc     75    bbb     H7   2157 0.04936100   1.008000   ; qtot -0.085164
 2158         hc     75    bbb     H8   2158 0.04936100   1.008000   ; qtot -0.035803
 2159         c3     75    bbb     C5   2159 0.11363000  12.010000   ; qtot 0.077827
 2160         hc     75    bbb     H9   2160 0.06265900   1.008000   ; qtot 0.140486
 2161         hc     75    bbb    H10   2161 0.06265900   1.008000   ; qtot 0.203145
 2162         c3     75    bbb     C6   2162 0.11363000  12.010000   ; qtot 0.316775
 2163         hc     75    bbb    H11   2163 0.06265900   1.008000   ; qtot 0.379434
 2164         hc     75    bbb    H12   2164 0.06265900   1.008000   ; qtot 0.442093
 2165         c3     75    bbb     C7   2165 0.05858200  12.010000   ; qtot 0.500675
 2166         h1     75    bbb    H13   2166 0.06123400   1.008000   ; qtot 0.561909
 2167         h1     75    bbb    H14   2167 0.06123400   1.008000   ; qtot 0.623143
 2168         c3     75    bbb     C8   2168 -0.72423400  12.010000   ; qtot -0.101091
 2169         h1     75    bbb    H15   2169 0.25637600   1.008000   ; qtot 0.155285
 2170         h1     75    bbb    H16   2170 0.25637600   1.008000   ; qtot 0.411661
 2171         c3     75    bbb     C9   2171 -0.72423400  12.010000   ; qtot -0.312573
 2172         h1     75    bbb    H17   2172 0.25637600   1.008000   ; qtot -0.056197
 2173         h1     75    bbb    H18   2173 0.25637600   1.008000   ; qtot 0.200179
 2174         os     75    bbb     O1   2174 -0.20025300  16.000000   ; qtot -0.000074
; residue   76 bbb rtp bbb q -0.0
 2175         n3     76    bbb     N1   2175 -0.59685800  14.010000   ; qtot -0.596932
 2176         c3     76    bbb     C1   2176 0.10137000  12.010000   ; qtot -0.495562
 2177         h1     76    bbb     H1   2177 0.04411300   1.008000   ; qtot -0.451449
 2178         h1     76    bbb     H2   2178 0.04411300   1.008000   ; qtot -0.407336
 2179         c3     76    bbb     C2   2179 0.10137000  12.010000   ; qtot -0.305966
 2180         h1     76    bbb     H3   2180 0.04411300   1.008000   ; qtot -0.261853
 2181         h1     76    bbb     H4   2181 0.04411300   1.008000   ; qtot -0.217740
 2182         c3     76    bbb     C3   2182 -0.00195300  12.010000   ; qtot -0.219693
 2183         h1     76    bbb     H5   2183 0.05064400   1.008000   ; qtot -0.169049
 2184         h1     76    bbb     H6   2184 0.05064400   1.008000   ; qtot -0.118405
 2185         c3     76    bbb     C4   2185 -0.01612100  12.010000   ; qtot -0.134526
 2186         hc     76    bbb     H7   2186 0.04936100   1.008000   ; qtot -0.085165
 2187         hc     76    bbb     H8   2187 0.04936100   1.008000   ; qtot -0.035804
 2188         c3     76    bbb     C5   2188 0.11363000  12.010000   ; qtot 0.077826
 2189         hc     76    bbb     H9   2189 0.06265900   1.008000   ; qtot 0.140485
 2190         hc     76    bbb    H10   2190 0.06265900   1.008000   ; qtot 0.203144
 2191         c3     76    bbb     C6   2191 0.11363000  12.010000   ; qtot 0.316774
 2192         hc     76    bbb    H11   2192 0.06265900   1.008000   ; qtot 0.379433
 2193         hc     76    bbb    H12   2193 0.06265900   1.008000   ; qtot 0.442092
 2194         c3     76    bbb     C7   2194 0.05858200  12.010000   ; qtot 0.500674
 2195         h1     76    bbb    H13   2195 0.06123400   1.008000   ; qtot 0.561908
 2196         h1     76    bbb    H14   2196 0.06123400   1.008000   ; qtot 0.623142
 2197         c3     76    bbb     C8   2197 -0.72423400  12.010000   ; qtot -0.101092
 2198         h1     76    bbb    H15   2198 0.25637600   1.008000   ; qtot 0.155284
 2199         h1     76    bbb    H16   2199 0.25637600   1.008000   ; qtot 0.411660
 2200         c3     76    bbb     C9   2200 -0.72423400  12.010000   ; qtot -0.312574
 2201         h1     76    bbb    H17   2201 0.25637600   1.008000   ; qtot -0.056198
 2202         h1     76    bbb    H18   2202 0.25637600   1.008000   ; qtot 0.200178
 2203         os     76    bbb     O1   2203 -0.20025300  16.000000   ; qtot -0.000075
; residue   77 bbb rtp bbb q -0.0
 2204         n3     77    bbb     N1   2204 -0.59685800  14.010000   ; qtot -0.596933
 2205         c3     77    bbb     C1   2205 0.10137000  12.010000   ; qtot -0.495563
 2206         h1     77    bbb     H1   2206 0.04411300   1.008000   ; qtot -0.451450
 2207         h1     77    bbb     H2   2207 0.04411300   1.008000   ; qtot -0.407337
 2208         c3     77    bbb     C2   2208 0.10137000  12.010000   ; qtot -0.305967
 2209         h1     77    bbb     H3   2209 0.04411300   1.008000   ; qtot -0.261854
 2210         h1     77    bbb     H4   2210 0.04411300   1.008000   ; qtot -0.217741
 2211         c3     77    bbb     C3   2211 -0.00195300  12.010000   ; qtot -0.219694
 2212         h1     77    bbb     H5   2212 0.05064400   1.008000   ; qtot -0.169050
 2213         h1     77    bbb     H6   2213 0.05064400   1.008000   ; qtot -0.118406
 2214         c3     77    bbb     C4   2214 -0.01612100  12.010000   ; qtot -0.134527
 2215         hc     77    bbb     H7   2215 0.04936100   1.008000   ; qtot -0.085166
 2216         hc     77    bbb     H8   2216 0.04936100   1.008000   ; qtot -0.035805
 2217         c3     77    bbb     C5   2217 0.11363000  12.010000   ; qtot 0.077825
 2218         hc     77    bbb     H9   2218 0.06265900   1.008000   ; qtot 0.140484
 2219         hc     77    bbb    H10   2219 0.06265900   1.008000   ; qtot 0.203143
 2220         c3     77    bbb     C6   2220 0.11363000  12.010000   ; qtot 0.316773
 2221         hc     77    bbb    H11   2221 0.06265900   1.008000   ; qtot 0.379432
 2222         hc     77    bbb    H12   2222 0.06265900   1.008000   ; qtot 0.442091
 2223         c3     77    bbb     C7   2223 0.05858200  12.010000   ; qtot 0.500673
 2224         h1     77    bbb    H13   2224 0.06123400   1.008000   ; qtot 0.561907
 2225         h1     77    bbb    H14   2225 0.06123400   1.008000   ; qtot 0.623141
 2226         c3     77    bbb     C8   2226 -0.72423400  12.010000   ; qtot -0.101093
 2227         h1     77    bbb    H15   2227 0.25637600   1.008000   ; qtot 0.155283
 2228         h1     77    bbb    H16   2228 0.25637600   1.008000   ; qtot 0.411659
 2229         c3     77    bbb     C9   2229 -0.72423400  12.010000   ; qtot -0.312575
 2230         h1     77    bbb    H17   2230 0.25637600   1.008000   ; qtot -0.056199
 2231         h1     77    bbb    H18   2231 0.25637600   1.008000   ; qtot 0.200177
 2232         os     77    bbb     O1   2232 -0.20025300  16.000000   ; qtot -0.000076
; residue   78 bbb rtp bbb q -0.0
 2233         n3     78    bbb     N1   2233 -0.59685800  14.010000   ; qtot -0.596934
 2234         c3     78    bbb     C1   2234 0.10137000  12.010000   ; qtot -0.495564
 2235         h1     78    bbb     H1   2235 0.04411300   1.008000   ; qtot -0.451451
 2236         h1     78    bbb     H2   2236 0.04411300   1.008000   ; qtot -0.407338
 2237         c3     78    bbb     C2   2237 0.10137000  12.010000   ; qtot -0.305968
 2238         h1     78    bbb     H3   2238 0.04411300   1.008000   ; qtot -0.261855
 2239         h1     78    bbb     H4   2239 0.04411300   1.008000   ; qtot -0.217742
 2240         c3     78    bbb     C3   2240 -0.00195300  12.010000   ; qtot -0.219695
 2241         h1     78    bbb     H5   2241 0.05064400   1.008000   ; qtot -0.169051
 2242         h1     78    bbb     H6   2242 0.05064400   1.008000   ; qtot -0.118407
 2243         c3     78    bbb     C4   2243 -0.01612100  12.010000   ; qtot -0.134528
 2244         hc     78    bbb     H7   2244 0.04936100   1.008000   ; qtot -0.085167
 2245         hc     78    bbb     H8   2245 0.04936100   1.008000   ; qtot -0.035806
 2246         c3     78    bbb     C5   2246 0.11363000  12.010000   ; qtot 0.077824
 2247         hc     78    bbb     H9   2247 0.06265900   1.008000   ; qtot 0.140483
 2248         hc     78    bbb    H10   2248 0.06265900   1.008000   ; qtot 0.203142
 2249         c3     78    bbb     C6   2249 0.11363000  12.010000   ; qtot 0.316772
 2250         hc     78    bbb    H11   2250 0.06265900   1.008000   ; qtot 0.379431
 2251         hc     78    bbb    H12   2251 0.06265900   1.008000   ; qtot 0.442090
 2252         c3     78    bbb     C7   2252 0.05858200  12.010000   ; qtot 0.500672
 2253         h1     78    bbb    H13   2253 0.06123400   1.008000   ; qtot 0.561906
 2254         h1     78    bbb    H14   2254 0.06123400   1.008000   ; qtot 0.623140
 2255         c3     78    bbb     C8   2255 -0.72423400  12.010000   ; qtot -0.101094
 2256         h1     78    bbb    H15   2256 0.25637600   1.008000   ; qtot 0.155282
 2257         h1     78    bbb    H16   2257 0.25637600   1.008000   ; qtot 0.411658
 2258         c3     78    bbb     C9   2258 -0.72423400  12.010000   ; qtot -0.312576
 2259         h1     78    bbb    H17   2259 0.25637600   1.008000   ; qtot -0.056200
 2260         h1     78    bbb    H18   2260 0.25637600   1.008000   ; qtot 0.200176
 2261         os     78    bbb     O1   2261 -0.20025300  16.000000   ; qtot -0.000077
; residue   79 bbb rtp bbb q -0.0
 2262         n3     79    bbb     N1   2262 -0.59685800  14.010000   ; qtot -0.596935
 2263         c3     79    bbb     C1   2263 0.10137000  12.010000   ; qtot -0.495565
 2264         h1     79    bbb     H1   2264 0.04411300   1.008000   ; qtot -0.451452
 2265         h1     79    bbb     H2   2265 0.04411300   1.008000   ; qtot -0.407339
 2266         c3     79    bbb     C2   2266 0.10137000  12.010000   ; qtot -0.305969
 2267         h1     79    bbb     H3   2267 0.04411300   1.008000   ; qtot -0.261856
 2268         h1     79    bbb     H4   2268 0.04411300   1.008000   ; qtot -0.217743
 2269         c3     79    bbb     C3   2269 -0.00195300  12.010000   ; qtot -0.219696
 2270         h1     79    bbb     H5   2270 0.05064400   1.008000   ; qtot -0.169052
 2271         h1     79    bbb     H6   2271 0.05064400   1.008000   ; qtot -0.118408
 2272         c3     79    bbb     C4   2272 -0.01612100  12.010000   ; qtot -0.134529
 2273         hc     79    bbb     H7   2273 0.04936100   1.008000   ; qtot -0.085168
 2274         hc     79    bbb     H8   2274 0.04936100   1.008000   ; qtot -0.035807
 2275         c3     79    bbb     C5   2275 0.11363000  12.010000   ; qtot 0.077823
 2276         hc     79    bbb     H9   2276 0.06265900   1.008000   ; qtot 0.140482
 2277         hc     79    bbb    H10   2277 0.06265900   1.008000   ; qtot 0.203141
 2278         c3     79    bbb     C6   2278 0.11363000  12.010000   ; qtot 0.316771
 2279         hc     79    bbb    H11   2279 0.06265900   1.008000   ; qtot 0.379430
 2280         hc     79    bbb    H12   2280 0.06265900   1.008000   ; qtot 0.442089
 2281         c3     79    bbb     C7   2281 0.05858200  12.010000   ; qtot 0.500671
 2282         h1     79    bbb    H13   2282 0.06123400   1.008000   ; qtot 0.561905
 2283         h1     79    bbb    H14   2283 0.06123400   1.008000   ; qtot 0.623139
 2284         c3     79    bbb     C8   2284 -0.72423400  12.010000   ; qtot -0.101095
 2285         h1     79    bbb    H15   2285 0.25637600   1.008000   ; qtot 0.155281
 2286         h1     79    bbb    H16   2286 0.25637600   1.008000   ; qtot 0.411657
 2287         c3     79    bbb     C9   2287 -0.72423400  12.010000   ; qtot -0.312577
 2288         h1     79    bbb    H17   2288 0.25637600   1.008000   ; qtot -0.056201
 2289         h1     79    bbb    H18   2289 0.25637600   1.008000   ; qtot 0.200175
 2290         os     79    bbb     O1   2290 -0.20025300  16.000000   ; qtot -0.000078
; residue   80 bbb rtp bbb q -0.0
 2291         n3     80    bbb     N1   2291 -0.59685800  14.010000   ; qtot -0.596936
 2292         c3     80    bbb     C1   2292 0.10137000  12.010000   ; qtot -0.495566
 2293         h1     80    bbb     H1   2293 0.04411300   1.008000   ; qtot -0.451453
 2294         h1     80    bbb     H2   2294 0.04411300   1.008000   ; qtot -0.407340
 2295         c3     80    bbb     C2   2295 0.10137000  12.010000   ; qtot -0.305970
 2296         h1     80    bbb     H3   2296 0.04411300   1.008000   ; qtot -0.261857
 2297         h1     80    bbb     H4   2297 0.04411300   1.008000   ; qtot -0.217744
 2298         c3     80    bbb     C3   2298 -0.00195300  12.010000   ; qtot -0.219697
 2299         h1     80    bbb     H5   2299 0.05064400   1.008000   ; qtot -0.169053
 2300         h1     80    bbb     H6   2300 0.05064400   1.008000   ; qtot -0.118409
 2301         c3     80    bbb     C4   2301 -0.01612100  12.010000   ; qtot -0.134530
 2302         hc     80    bbb     H7   2302 0.04936100   1.008000   ; qtot -0.085169
 2303         hc     80    bbb     H8   2303 0.04936100   1.008000   ; qtot -0.035808
 2304         c3     80    bbb     C5   2304 0.11363000  12.010000   ; qtot 0.077822
 2305         hc     80    bbb     H9   2305 0.06265900   1.008000   ; qtot 0.140481
 2306         hc     80    bbb    H10   2306 0.06265900   1.008000   ; qtot 0.203140
 2307         c3     80    bbb     C6   2307 0.11363000  12.010000   ; qtot 0.316770
 2308         hc     80    bbb    H11   2308 0.06265900   1.008000   ; qtot 0.379429
 2309         hc     80    bbb    H12   2309 0.06265900   1.008000   ; qtot 0.442088
 2310         c3     80    bbb     C7   2310 0.05858200  12.010000   ; qtot 0.500670
 2311         h1     80    bbb    H13   2311 0.06123400   1.008000   ; qtot 0.561904
 2312         h1     80    bbb    H14   2312 0.06123400   1.008000   ; qtot 0.623138
 2313         c3     80    bbb     C8   2313 -0.72423400  12.010000   ; qtot -0.101096
 2314         h1     80    bbb    H15   2314 0.25637600   1.008000   ; qtot 0.155280
 2315         h1     80    bbb    H16   2315 0.25637600   1.008000   ; qtot 0.411656
 2316         c3     80    bbb     C9   2316 -0.72423400  12.010000   ; qtot -0.312578
 2317         h1     80    bbb    H17   2317 0.25637600   1.008000   ; qtot -0.056202
 2318         h1     80    bbb    H18   2318 0.25637600   1.008000   ; qtot 0.200174
 2319         os     80    bbb     O1   2319 -0.20025300  16.000000   ; qtot -0.000079
; residue   81 bbb rtp bbb q -0.0
 2320         n3     81    bbb     N1   2320 -0.59685800  14.010000   ; qtot -0.596937
 2321         c3     81    bbb     C1   2321 0.10137000  12.010000   ; qtot -0.495567
 2322         h1     81    bbb     H1   2322 0.04411300   1.008000   ; qtot -0.451454
 2323         h1     81    bbb     H2   2323 0.04411300   1.008000   ; qtot -0.407341
 2324         c3     81    bbb     C2   2324 0.10137000  12.010000   ; qtot -0.305971
 2325         h1     81    bbb     H3   2325 0.04411300   1.008000   ; qtot -0.261858
 2326         h1     81    bbb     H4   2326 0.04411300   1.008000   ; qtot -0.217745
 2327         c3     81    bbb     C3   2327 -0.00195300  12.010000   ; qtot -0.219698
 2328         h1     81    bbb     H5   2328 0.05064400   1.008000   ; qtot -0.169054
 2329         h1     81    bbb     H6   2329 0.05064400   1.008000   ; qtot -0.118410
 2330         c3     81    bbb     C4   2330 -0.01612100  12.010000   ; qtot -0.134531
 2331         hc     81    bbb     H7   2331 0.04936100   1.008000   ; qtot -0.085170
 2332         hc     81    bbb     H8   2332 0.04936100   1.008000   ; qtot -0.035809
 2333         c3     81    bbb     C5   2333 0.11363000  12.010000   ; qtot 0.077821
 2334         hc     81    bbb     H9   2334 0.06265900   1.008000   ; qtot 0.140480
 2335         hc     81    bbb    H10   2335 0.06265900   1.008000   ; qtot 0.203139
 2336         c3     81    bbb     C6   2336 0.11363000  12.010000   ; qtot 0.316769
 2337         hc     81    bbb    H11   2337 0.06265900   1.008000   ; qtot 0.379428
 2338         hc     81    bbb    H12   2338 0.06265900   1.008000   ; qtot 0.442087
 2339         c3     81    bbb     C7   2339 0.05858200  12.010000   ; qtot 0.500669
 2340         h1     81    bbb    H13   2340 0.06123400   1.008000   ; qtot 0.561903
 2341         h1     81    bbb    H14   2341 0.06123400   1.008000   ; qtot 0.623137
 2342         c3     81    bbb     C8   2342 -0.72423400  12.010000   ; qtot -0.101097
 2343         h1     81    bbb    H15   2343 0.25637600   1.008000   ; qtot 0.155279
 2344         h1     81    bbb    H16   2344 0.25637600   1.008000   ; qtot 0.411655
 2345         c3     81    bbb     C9   2345 -0.72423400  12.010000   ; qtot -0.312579
 2346         h1     81    bbb    H17   2346 0.25637600   1.008000   ; qtot -0.056203
 2347         h1     81    bbb    H18   2347 0.25637600   1.008000   ; qtot 0.200173
 2348         os     81    bbb     O1   2348 -0.20025300  16.000000   ; qtot -0.000080
; residue   82 bbb rtp bbb q -0.0
 2349         n3     82    bbb     N1   2349 -0.59685800  14.010000   ; qtot -0.596938
 2350         c3     82    bbb     C1   2350 0.10137000  12.010000   ; qtot -0.495568
 2351         h1     82    bbb     H1   2351 0.04411300   1.008000   ; qtot -0.451455
 2352         h1     82    bbb     H2   2352 0.04411300   1.008000   ; qtot -0.407342
 2353         c3     82    bbb     C2   2353 0.10137000  12.010000   ; qtot -0.305972
 2354         h1     82    bbb     H3   2354 0.04411300   1.008000   ; qtot -0.261859
 2355         h1     82    bbb     H4   2355 0.04411300   1.008000   ; qtot -0.217746
 2356         c3     82    bbb     C3   2356 -0.00195300  12.010000   ; qtot -0.219699
 2357         h1     82    bbb     H5   2357 0.05064400   1.008000   ; qtot -0.169055
 2358         h1     82    bbb     H6   2358 0.05064400   1.008000   ; qtot -0.118411
 2359         c3     82    bbb     C4   2359 -0.01612100  12.010000   ; qtot -0.134532
 2360         hc     82    bbb     H7   2360 0.04936100   1.008000   ; qtot -0.085171
 2361         hc     82    bbb     H8   2361 0.04936100   1.008000   ; qtot -0.035810
 2362         c3     82    bbb     C5   2362 0.11363000  12.010000   ; qtot 0.077820
 2363         hc     82    bbb     H9   2363 0.06265900   1.008000   ; qtot 0.140479
 2364         hc     82    bbb    H10   2364 0.06265900   1.008000   ; qtot 0.203138
 2365         c3     82    bbb     C6   2365 0.11363000  12.010000   ; qtot 0.316768
 2366         hc     82    bbb    H11   2366 0.06265900   1.008000   ; qtot 0.379427
 2367         hc     82    bbb    H12   2367 0.06265900   1.008000   ; qtot 0.442086
 2368         c3     82    bbb     C7   2368 0.05858200  12.010000   ; qtot 0.500668
 2369         h1     82    bbb    H13   2369 0.06123400   1.008000   ; qtot 0.561902
 2370         h1     82    bbb    H14   2370 0.06123400   1.008000   ; qtot 0.623136
 2371         c3     82    bbb     C8   2371 -0.72423400  12.010000   ; qtot -0.101098
 2372         h1     82    bbb    H15   2372 0.25637600   1.008000   ; qtot 0.155278
 2373         h1     82    bbb    H16   2373 0.25637600   1.008000   ; qtot 0.411654
 2374         c3     82    bbb     C9   2374 -0.72423400  12.010000   ; qtot -0.312580
 2375         h1     82    bbb    H17   2375 0.25637600   1.008000   ; qtot -0.056204
 2376         h1     82    bbb    H18   2376 0.25637600   1.008000   ; qtot 0.200172
 2377         os     82    bbb     O1   2377 -0.20025300  16.000000   ; qtot -0.000081
; residue   83 bbb rtp bbb q -0.0
 2378         n3     83    bbb     N1   2378 -0.59685800  14.010000   ; qtot -0.596939
 2379         c3     83    bbb     C1   2379 0.10137000  12.010000   ; qtot -0.495569
 2380         h1     83    bbb     H1   2380 0.04411300   1.008000   ; qtot -0.451456
 2381         h1     83    bbb     H2   2381 0.04411300   1.008000   ; qtot -0.407343
 2382         c3     83    bbb     C2   2382 0.10137000  12.010000   ; qtot -0.305973
 2383         h1     83    bbb     H3   2383 0.04411300   1.008000   ; qtot -0.261860
 2384         h1     83    bbb     H4   2384 0.04411300   1.008000   ; qtot -0.217747
 2385         c3     83    bbb     C3   2385 -0.00195300  12.010000   ; qtot -0.219700
 2386         h1     83    bbb     H5   2386 0.05064400   1.008000   ; qtot -0.169056
 2387         h1     83    bbb     H6   2387 0.05064400   1.008000   ; qtot -0.118412
 2388         c3     83    bbb     C4   2388 -0.01612100  12.010000   ; qtot -0.134533
 2389         hc     83    bbb     H7   2389 0.04936100   1.008000   ; qtot -0.085172
 2390         hc     83    bbb     H8   2390 0.04936100   1.008000   ; qtot -0.035811
 2391         c3     83    bbb     C5   2391 0.11363000  12.010000   ; qtot 0.077819
 2392         hc     83    bbb     H9   2392 0.06265900   1.008000   ; qtot 0.140478
 2393         hc     83    bbb    H10   2393 0.06265900   1.008000   ; qtot 0.203137
 2394         c3     83    bbb     C6   2394 0.11363000  12.010000   ; qtot 0.316767
 2395         hc     83    bbb    H11   2395 0.06265900   1.008000   ; qtot 0.379426
 2396         hc     83    bbb    H12   2396 0.06265900   1.008000   ; qtot 0.442085
 2397         c3     83    bbb     C7   2397 0.05858200  12.010000   ; qtot 0.500667
 2398         h1     83    bbb    H13   2398 0.06123400   1.008000   ; qtot 0.561901
 2399         h1     83    bbb    H14   2399 0.06123400   1.008000   ; qtot 0.623135
 2400         c3     83    bbb     C8   2400 -0.72423400  12.010000   ; qtot -0.101099
 2401         h1     83    bbb    H15   2401 0.25637600   1.008000   ; qtot 0.155277
 2402         h1     83    bbb    H16   2402 0.25637600   1.008000   ; qtot 0.411653
 2403         c3     83    bbb     C9   2403 -0.72423400  12.010000   ; qtot -0.312581
 2404         h1     83    bbb    H17   2404 0.25637600   1.008000   ; qtot -0.056205
 2405         h1     83    bbb    H18   2405 0.25637600   1.008000   ; qtot 0.200171
 2406         os     83    bbb     O1   2406 -0.20025300  16.000000   ; qtot -0.000082
; residue   84 bbb rtp bbb q -0.0
 2407         n3     84    bbb     N1   2407 -0.59685800  14.010000   ; qtot -0.596940
 2408         c3     84    bbb     C1   2408 0.10137000  12.010000   ; qtot -0.495570
 2409         h1     84    bbb     H1   2409 0.04411300   1.008000   ; qtot -0.451457
 2410         h1     84    bbb     H2   2410 0.04411300   1.008000   ; qtot -0.407344
 2411         c3     84    bbb     C2   2411 0.10137000  12.010000   ; qtot -0.305974
 2412         h1     84    bbb     H3   2412 0.04411300   1.008000   ; qtot -0.261861
 2413         h1     84    bbb     H4   2413 0.04411300   1.008000   ; qtot -0.217748
 2414         c3     84    bbb     C3   2414 -0.00195300  12.010000   ; qtot -0.219701
 2415         h1     84    bbb     H5   2415 0.05064400   1.008000   ; qtot -0.169057
 2416         h1     84    bbb     H6   2416 0.05064400   1.008000   ; qtot -0.118413
 2417         c3     84    bbb     C4   2417 -0.01612100  12.010000   ; qtot -0.134534
 2418         hc     84    bbb     H7   2418 0.04936100   1.008000   ; qtot -0.085173
 2419         hc     84    bbb     H8   2419 0.04936100   1.008000   ; qtot -0.035812
 2420         c3     84    bbb     C5   2420 0.11363000  12.010000   ; qtot 0.077818
 2421         hc     84    bbb     H9   2421 0.06265900   1.008000   ; qtot 0.140477
 2422         hc     84    bbb    H10   2422 0.06265900   1.008000   ; qtot 0.203136
 2423         c3     84    bbb     C6   2423 0.11363000  12.010000   ; qtot 0.316766
 2424         hc     84    bbb    H11   2424 0.06265900   1.008000   ; qtot 0.379425
 2425         hc     84    bbb    H12   2425 0.06265900   1.008000   ; qtot 0.442084
 2426         c3     84    bbb     C7   2426 0.05858200  12.010000   ; qtot 0.500666
 2427         h1     84    bbb    H13   2427 0.06123400   1.008000   ; qtot 0.561900
 2428         h1     84    bbb    H14   2428 0.06123400   1.008000   ; qtot 0.623134
 2429         c3     84    bbb     C8   2429 -0.72423400  12.010000   ; qtot -0.101100
 2430         h1     84    bbb    H15   2430 0.25637600   1.008000   ; qtot 0.155276
 2431         h1     84    bbb    H16   2431 0.25637600   1.008000   ; qtot 0.411652
 2432         c3     84    bbb     C9   2432 -0.72423400  12.010000   ; qtot -0.312582
 2433         h1     84    bbb    H17   2433 0.25637600   1.008000   ; qtot -0.056206
 2434         h1     84    bbb    H18   2434 0.25637600   1.008000   ; qtot 0.200170
 2435         os     84    bbb     O1   2435 -0.20025300  16.000000   ; qtot -0.000083
; residue   85 bbb rtp bbb q -0.0
 2436         n3     85    bbb     N1   2436 -0.59685800  14.010000   ; qtot -0.596941
 2437         c3     85    bbb     C1   2437 0.10137000  12.010000   ; qtot -0.495571
 2438         h1     85    bbb     H1   2438 0.04411300   1.008000   ; qtot -0.451458
 2439         h1     85    bbb     H2   2439 0.04411300   1.008000   ; qtot -0.407345
 2440         c3     85    bbb     C2   2440 0.10137000  12.010000   ; qtot -0.305975
 2441         h1     85    bbb     H3   2441 0.04411300   1.008000   ; qtot -0.261862
 2442         h1     85    bbb     H4   2442 0.04411300   1.008000   ; qtot -0.217749
 2443         c3     85    bbb     C3   2443 -0.00195300  12.010000   ; qtot -0.219702
 2444         h1     85    bbb     H5   2444 0.05064400   1.008000   ; qtot -0.169058
 2445         h1     85    bbb     H6   2445 0.05064400   1.008000   ; qtot -0.118414
 2446         c3     85    bbb     C4   2446 -0.01612100  12.010000   ; qtot -0.134535
 2447         hc     85    bbb     H7   2447 0.04936100   1.008000   ; qtot -0.085174
 2448         hc     85    bbb     H8   2448 0.04936100   1.008000   ; qtot -0.035813
 2449         c3     85    bbb     C5   2449 0.11363000  12.010000   ; qtot 0.077817
 2450         hc     85    bbb     H9   2450 0.06265900   1.008000   ; qtot 0.140476
 2451         hc     85    bbb    H10   2451 0.06265900   1.008000   ; qtot 0.203135
 2452         c3     85    bbb     C6   2452 0.11363000  12.010000   ; qtot 0.316765
 2453         hc     85    bbb    H11   2453 0.06265900   1.008000   ; qtot 0.379424
 2454         hc     85    bbb    H12   2454 0.06265900   1.008000   ; qtot 0.442083
 2455         c3     85    bbb     C7   2455 0.05858200  12.010000   ; qtot 0.500665
 2456         h1     85    bbb    H13   2456 0.06123400   1.008000   ; qtot 0.561899
 2457         h1     85    bbb    H14   2457 0.06123400   1.008000   ; qtot 0.623133
 2458         c3     85    bbb     C8   2458 -0.72423400  12.010000   ; qtot -0.101101
 2459         h1     85    bbb    H15   2459 0.25637600   1.008000   ; qtot 0.155275
 2460         h1     85    bbb    H16   2460 0.25637600   1.008000   ; qtot 0.411651
 2461         c3     85    bbb     C9   2461 -0.72423400  12.010000   ; qtot -0.312583
 2462         h1     85    bbb    H17   2462 0.25637600   1.008000   ; qtot -0.056207
 2463         h1     85    bbb    H18   2463 0.25637600   1.008000   ; qtot 0.200169
 2464         os     85    bbb     O1   2464 -0.20025300  16.000000   ; qtot -0.000084
; residue   86 bbb rtp bbb q -0.0
 2465         n3     86    bbb     N1   2465 -0.59685800  14.010000   ; qtot -0.596942
 2466         c3     86    bbb     C1   2466 0.10137000  12.010000   ; qtot -0.495572
 2467         h1     86    bbb     H1   2467 0.04411300   1.008000   ; qtot -0.451459
 2468         h1     86    bbb     H2   2468 0.04411300   1.008000   ; qtot -0.407346
 2469         c3     86    bbb     C2   2469 0.10137000  12.010000   ; qtot -0.305976
 2470         h1     86    bbb     H3   2470 0.04411300   1.008000   ; qtot -0.261863
 2471         h1     86    bbb     H4   2471 0.04411300   1.008000   ; qtot -0.217750
 2472         c3     86    bbb     C3   2472 -0.00195300  12.010000   ; qtot -0.219703
 2473         h1     86    bbb     H5   2473 0.05064400   1.008000   ; qtot -0.169059
 2474         h1     86    bbb     H6   2474 0.05064400   1.008000   ; qtot -0.118415
 2475         c3     86    bbb     C4   2475 -0.01612100  12.010000   ; qtot -0.134536
 2476         hc     86    bbb     H7   2476 0.04936100   1.008000   ; qtot -0.085175
 2477         hc     86    bbb     H8   2477 0.04936100   1.008000   ; qtot -0.035814
 2478         c3     86    bbb     C5   2478 0.11363000  12.010000   ; qtot 0.077816
 2479         hc     86    bbb     H9   2479 0.06265900   1.008000   ; qtot 0.140475
 2480         hc     86    bbb    H10   2480 0.06265900   1.008000   ; qtot 0.203134
 2481         c3     86    bbb     C6   2481 0.11363000  12.010000   ; qtot 0.316764
 2482         hc     86    bbb    H11   2482 0.06265900   1.008000   ; qtot 0.379423
 2483         hc     86    bbb    H12   2483 0.06265900   1.008000   ; qtot 0.442082
 2484         c3     86    bbb     C7   2484 0.05858200  12.010000   ; qtot 0.500664
 2485         h1     86    bbb    H13   2485 0.06123400   1.008000   ; qtot 0.561898
 2486         h1     86    bbb    H14   2486 0.06123400   1.008000   ; qtot 0.623132
 2487         c3     86    bbb     C8   2487 -0.72423400  12.010000   ; qtot -0.101102
 2488         h1     86    bbb    H15   2488 0.25637600   1.008000   ; qtot 0.155274
 2489         h1     86    bbb    H16   2489 0.25637600   1.008000   ; qtot 0.411650
 2490         c3     86    bbb     C9   2490 -0.72423400  12.010000   ; qtot -0.312584
 2491         h1     86    bbb    H17   2491 0.25637600   1.008000   ; qtot -0.056208
 2492         h1     86    bbb    H18   2492 0.25637600   1.008000   ; qtot 0.200168
 2493         os     86    bbb     O1   2493 -0.20025300  16.000000   ; qtot -0.000085
; residue   87 bbb rtp bbb q -0.0
 2494         n3     87    bbb     N1   2494 -0.59685800  14.010000   ; qtot -0.596943
 2495         c3     87    bbb     C1   2495 0.10137000  12.010000   ; qtot -0.495573
 2496         h1     87    bbb     H1   2496 0.04411300   1.008000   ; qtot -0.451460
 2497         h1     87    bbb     H2   2497 0.04411300   1.008000   ; qtot -0.407347
 2498         c3     87    bbb     C2   2498 0.10137000  12.010000   ; qtot -0.305977
 2499         h1     87    bbb     H3   2499 0.04411300   1.008000   ; qtot -0.261864
 2500         h1     87    bbb     H4   2500 0.04411300   1.008000   ; qtot -0.217751
 2501         c3     87    bbb     C3   2501 -0.00195300  12.010000   ; qtot -0.219704
 2502         h1     87    bbb     H5   2502 0.05064400   1.008000   ; qtot -0.169060
 2503         h1     87    bbb     H6   2503 0.05064400   1.008000   ; qtot -0.118416
 2504         c3     87    bbb     C4   2504 -0.01612100  12.010000   ; qtot -0.134537
 2505         hc     87    bbb     H7   2505 0.04936100   1.008000   ; qtot -0.085176
 2506         hc     87    bbb     H8   2506 0.04936100   1.008000   ; qtot -0.035815
 2507         c3     87    bbb     C5   2507 0.11363000  12.010000   ; qtot 0.077815
 2508         hc     87    bbb     H9   2508 0.06265900   1.008000   ; qtot 0.140474
 2509         hc     87    bbb    H10   2509 0.06265900   1.008000   ; qtot 0.203133
 2510         c3     87    bbb     C6   2510 0.11363000  12.010000   ; qtot 0.316763
 2511         hc     87    bbb    H11   2511 0.06265900   1.008000   ; qtot 0.379422
 2512         hc     87    bbb    H12   2512 0.06265900   1.008000   ; qtot 0.442081
 2513         c3     87    bbb     C7   2513 0.05858200  12.010000   ; qtot 0.500663
 2514         h1     87    bbb    H13   2514 0.06123400   1.008000   ; qtot 0.561897
 2515         h1     87    bbb    H14   2515 0.06123400   1.008000   ; qtot 0.623131
 2516         c3     87    bbb     C8   2516 -0.72423400  12.010000   ; qtot -0.101103
 2517         h1     87    bbb    H15   2517 0.25637600   1.008000   ; qtot 0.155273
 2518         h1     87    bbb    H16   2518 0.25637600   1.008000   ; qtot 0.411649
 2519         c3     87    bbb     C9   2519 -0.72423400  12.010000   ; qtot -0.312585
 2520         h1     87    bbb    H17   2520 0.25637600   1.008000   ; qtot -0.056209
 2521         h1     87    bbb    H18   2521 0.25637600   1.008000   ; qtot 0.200167
 2522         os     87    bbb     O1   2522 -0.20025300  16.000000   ; qtot -0.000086
; residue   88 bbb rtp bbb q -0.0
 2523         n3     88    bbb     N1   2523 -0.59685800  14.010000   ; qtot -0.596944
 2524         c3     88    bbb     C1   2524 0.10137000  12.010000   ; qtot -0.495574
 2525         h1     88    bbb     H1   2525 0.04411300   1.008000   ; qtot -0.451461
 2526         h1     88    bbb     H2   2526 0.04411300   1.008000   ; qtot -0.407348
 2527         c3     88    bbb     C2   2527 0.10137000  12.010000   ; qtot -0.305978
 2528         h1     88    bbb     H3   2528 0.04411300   1.008000   ; qtot -0.261865
 2529         h1     88    bbb     H4   2529 0.04411300   1.008000   ; qtot -0.217752
 2530         c3     88    bbb     C3   2530 -0.00195300  12.010000   ; qtot -0.219705
 2531         h1     88    bbb     H5   2531 0.05064400   1.008000   ; qtot -0.169061
 2532         h1     88    bbb     H6   2532 0.05064400   1.008000   ; qtot -0.118417
 2533         c3     88    bbb     C4   2533 -0.01612100  12.010000   ; qtot -0.134538
 2534         hc     88    bbb     H7   2534 0.04936100   1.008000   ; qtot -0.085177
 2535         hc     88    bbb     H8   2535 0.04936100   1.008000   ; qtot -0.035816
 2536         c3     88    bbb     C5   2536 0.11363000  12.010000   ; qtot 0.077814
 2537         hc     88    bbb     H9   2537 0.06265900   1.008000   ; qtot 0.140473
 2538         hc     88    bbb    H10   2538 0.06265900   1.008000   ; qtot 0.203132
 2539         c3     88    bbb     C6   2539 0.11363000  12.010000   ; qtot 0.316762
 2540         hc     88    bbb    H11   2540 0.06265900   1.008000   ; qtot 0.379421
 2541         hc     88    bbb    H12   2541 0.06265900   1.008000   ; qtot 0.442080
 2542         c3     88    bbb     C7   2542 0.05858200  12.010000   ; qtot 0.500662
 2543         h1     88    bbb    H13   2543 0.06123400   1.008000   ; qtot 0.561896
 2544         h1     88    bbb    H14   2544 0.06123400   1.008000   ; qtot 0.623130
 2545         c3     88    bbb     C8   2545 -0.72423400  12.010000   ; qtot -0.101104
 2546         h1     88    bbb    H15   2546 0.25637600   1.008000   ; qtot 0.155272
 2547         h1     88    bbb    H16   2547 0.25637600   1.008000   ; qtot 0.411648
 2548         c3     88    bbb     C9   2548 -0.72423400  12.010000   ; qtot -0.312586
 2549         h1     88    bbb    H17   2549 0.25637600   1.008000   ; qtot -0.056210
 2550         h1     88    bbb    H18   2550 0.25637600   1.008000   ; qtot 0.200166
 2551         os     88    bbb     O1   2551 -0.20025300  16.000000   ; qtot -0.000087
; residue   89 bbb rtp bbb q -0.0
 2552         n3     89    bbb     N1   2552 -0.59685800  14.010000   ; qtot -0.596945
 2553         c3     89    bbb     C1   2553 0.10137000  12.010000   ; qtot -0.495575
 2554         h1     89    bbb     H1   2554 0.04411300   1.008000   ; qtot -0.451462
 2555         h1     89    bbb     H2   2555 0.04411300   1.008000   ; qtot -0.407349
 2556         c3     89    bbb     C2   2556 0.10137000  12.010000   ; qtot -0.305979
 2557         h1     89    bbb     H3   2557 0.04411300   1.008000   ; qtot -0.261866
 2558         h1     89    bbb     H4   2558 0.04411300   1.008000   ; qtot -0.217753
 2559         c3     89    bbb     C3   2559 -0.00195300  12.010000   ; qtot -0.219706
 2560         h1     89    bbb     H5   2560 0.05064400   1.008000   ; qtot -0.169062
 2561         h1     89    bbb     H6   2561 0.05064400   1.008000   ; qtot -0.118418
 2562         c3     89    bbb     C4   2562 -0.01612100  12.010000   ; qtot -0.134539
 2563         hc     89    bbb     H7   2563 0.04936100   1.008000   ; qtot -0.085178
 2564         hc     89    bbb     H8   2564 0.04936100   1.008000   ; qtot -0.035817
 2565         c3     89    bbb     C5   2565 0.11363000  12.010000   ; qtot 0.077813
 2566         hc     89    bbb     H9   2566 0.06265900   1.008000   ; qtot 0.140472
 2567         hc     89    bbb    H10   2567 0.06265900   1.008000   ; qtot 0.203131
 2568         c3     89    bbb     C6   2568 0.11363000  12.010000   ; qtot 0.316761
 2569         hc     89    bbb    H11   2569 0.06265900   1.008000   ; qtot 0.379420
 2570         hc     89    bbb    H12   2570 0.06265900   1.008000   ; qtot 0.442079
 2571         c3     89    bbb     C7   2571 0.05858200  12.010000   ; qtot 0.500661
 2572         h1     89    bbb    H13   2572 0.06123400   1.008000   ; qtot 0.561895
 2573         h1     89    bbb    H14   2573 0.06123400   1.008000   ; qtot 0.623129
 2574         c3     89    bbb     C8   2574 -0.72423400  12.010000   ; qtot -0.101105
 2575         h1     89    bbb    H15   2575 0.25637600   1.008000   ; qtot 0.155271
 2576         h1     89    bbb    H16   2576 0.25637600   1.008000   ; qtot 0.411647
 2577         c3     89    bbb     C9   2577 -0.72423400  12.010000   ; qtot -0.312587
 2578         h1     89    bbb    H17   2578 0.25637600   1.008000   ; qtot -0.056211
 2579         h1     89    bbb    H18   2579 0.25637600   1.008000   ; qtot 0.200165
 2580         os     89    bbb     O1   2580 -0.20025300  16.000000   ; qtot -0.000088
; residue   90 bbb rtp bbb q -0.0
 2581         n3     90    bbb     N1   2581 -0.59685800  14.010000   ; qtot -0.596946
 2582         c3     90    bbb     C1   2582 0.10137000  12.010000   ; qtot -0.495576
 2583         h1     90    bbb     H1   2583 0.04411300   1.008000   ; qtot -0.451463
 2584         h1     90    bbb     H2   2584 0.04411300   1.008000   ; qtot -0.407350
 2585         c3     90    bbb     C2   2585 0.10137000  12.010000   ; qtot -0.305980
 2586         h1     90    bbb     H3   2586 0.04411300   1.008000   ; qtot -0.261867
 2587         h1     90    bbb     H4   2587 0.04411300   1.008000   ; qtot -0.217754
 2588         c3     90    bbb     C3   2588 -0.00195300  12.010000   ; qtot -0.219707
 2589         h1     90    bbb     H5   2589 0.05064400   1.008000   ; qtot -0.169063
 2590         h1     90    bbb     H6   2590 0.05064400   1.008000   ; qtot -0.118419
 2591         c3     90    bbb     C4   2591 -0.01612100  12.010000   ; qtot -0.134540
 2592         hc     90    bbb     H7   2592 0.04936100   1.008000   ; qtot -0.085179
 2593         hc     90    bbb     H8   2593 0.04936100   1.008000   ; qtot -0.035818
 2594         c3     90    bbb     C5   2594 0.11363000  12.010000   ; qtot 0.077812
 2595         hc     90    bbb     H9   2595 0.06265900   1.008000   ; qtot 0.140471
 2596         hc     90    bbb    H10   2596 0.06265900   1.008000   ; qtot 0.203130
 2597         c3     90    bbb     C6   2597 0.11363000  12.010000   ; qtot 0.316760
 2598         hc     90    bbb    H11   2598 0.06265900   1.008000   ; qtot 0.379419
 2599         hc     90    bbb    H12   2599 0.06265900   1.008000   ; qtot 0.442078
 2600         c3     90    bbb     C7   2600 0.05858200  12.010000   ; qtot 0.500660
 2601         h1     90    bbb    H13   2601 0.06123400   1.008000   ; qtot 0.561894
 2602         h1     90    bbb    H14   2602 0.06123400   1.008000   ; qtot 0.623128
 2603         c3     90    bbb     C8   2603 -0.72423400  12.010000   ; qtot -0.101106
 2604         h1     90    bbb    H15   2604 0.25637600   1.008000   ; qtot 0.155270
 2605         h1     90    bbb    H16   2605 0.25637600   1.008000   ; qtot 0.411646
 2606         c3     90    bbb     C9   2606 -0.72423400  12.010000   ; qtot -0.312588
 2607         h1     90    bbb    H17   2607 0.25637600   1.008000   ; qtot -0.056212
 2608         h1     90    bbb    H18   2608 0.25637600   1.008000   ; qtot 0.200164
 2609         os     90    bbb     O1   2609 -0.20025300  16.000000   ; qtot -0.000089
; residue   91 bbb rtp bbb q -0.0
 2610         n3     91    bbb     N1   2610 -0.59685800  14.010000   ; qtot -0.596947
 2611         c3     91    bbb     C1   2611 0.10137000  12.010000   ; qtot -0.495577
 2612         h1     91    bbb     H1   2612 0.04411300   1.008000   ; qtot -0.451464
 2613         h1     91    bbb     H2   2613 0.04411300   1.008000   ; qtot -0.407351
 2614         c3     91    bbb     C2   2614 0.10137000  12.010000   ; qtot -0.305981
 2615         h1     91    bbb     H3   2615 0.04411300   1.008000   ; qtot -0.261868
 2616         h1     91    bbb     H4   2616 0.04411300   1.008000   ; qtot -0.217755
 2617         c3     91    bbb     C3   2617 -0.00195300  12.010000   ; qtot -0.219708
 2618         h1     91    bbb     H5   2618 0.05064400   1.008000   ; qtot -0.169064
 2619         h1     91    bbb     H6   2619 0.05064400   1.008000   ; qtot -0.118420
 2620         c3     91    bbb     C4   2620 -0.01612100  12.010000   ; qtot -0.134541
 2621         hc     91    bbb     H7   2621 0.04936100   1.008000   ; qtot -0.085180
 2622         hc     91    bbb     H8   2622 0.04936100   1.008000   ; qtot -0.035819
 2623         c3     91    bbb     C5   2623 0.11363000  12.010000   ; qtot 0.077811
 2624         hc     91    bbb     H9   2624 0.06265900   1.008000   ; qtot 0.140470
 2625         hc     91    bbb    H10   2625 0.06265900   1.008000   ; qtot 0.203129
 2626         c3     91    bbb     C6   2626 0.11363000  12.010000   ; qtot 0.316759
 2627         hc     91    bbb    H11   2627 0.06265900   1.008000   ; qtot 0.379418
 2628         hc     91    bbb    H12   2628 0.06265900   1.008000   ; qtot 0.442077
 2629         c3     91    bbb     C7   2629 0.05858200  12.010000   ; qtot 0.500659
 2630         h1     91    bbb    H13   2630 0.06123400   1.008000   ; qtot 0.561893
 2631         h1     91    bbb    H14   2631 0.06123400   1.008000   ; qtot 0.623127
 2632         c3     91    bbb     C8   2632 -0.72423400  12.010000   ; qtot -0.101107
 2633         h1     91    bbb    H15   2633 0.25637600   1.008000   ; qtot 0.155269
 2634         h1     91    bbb    H16   2634 0.25637600   1.008000   ; qtot 0.411645
 2635         c3     91    bbb     C9   2635 -0.72423400  12.010000   ; qtot -0.312589
 2636         h1     91    bbb    H17   2636 0.25637600   1.008000   ; qtot -0.056213
 2637         h1     91    bbb    H18   2637 0.25637600   1.008000   ; qtot 0.200163
 2638         os     91    bbb     O1   2638 -0.20025300  16.000000   ; qtot -0.000090
; residue   92 bbb rtp bbb q -0.0
 2639         n3     92    bbb     N1   2639 -0.59685800  14.010000   ; qtot -0.596948
 2640         c3     92    bbb     C1   2640 0.10137000  12.010000   ; qtot -0.495578
 2641         h1     92    bbb     H1   2641 0.04411300   1.008000   ; qtot -0.451465
 2642         h1     92    bbb     H2   2642 0.04411300   1.008000   ; qtot -0.407352
 2643         c3     92    bbb     C2   2643 0.10137000  12.010000   ; qtot -0.305982
 2644         h1     92    bbb     H3   2644 0.04411300   1.008000   ; qtot -0.261869
 2645         h1     92    bbb     H4   2645 0.04411300   1.008000   ; qtot -0.217756
 2646         c3     92    bbb     C3   2646 -0.00195300  12.010000   ; qtot -0.219709
 2647         h1     92    bbb     H5   2647 0.05064400   1.008000   ; qtot -0.169065
 2648         h1     92    bbb     H6   2648 0.05064400   1.008000   ; qtot -0.118421
 2649         c3     92    bbb     C4   2649 -0.01612100  12.010000   ; qtot -0.134542
 2650         hc     92    bbb     H7   2650 0.04936100   1.008000   ; qtot -0.085181
 2651         hc     92    bbb     H8   2651 0.04936100   1.008000   ; qtot -0.035820
 2652         c3     92    bbb     C5   2652 0.11363000  12.010000   ; qtot 0.077810
 2653         hc     92    bbb     H9   2653 0.06265900   1.008000   ; qtot 0.140469
 2654         hc     92    bbb    H10   2654 0.06265900   1.008000   ; qtot 0.203128
 2655         c3     92    bbb     C6   2655 0.11363000  12.010000   ; qtot 0.316758
 2656         hc     92    bbb    H11   2656 0.06265900   1.008000   ; qtot 0.379417
 2657         hc     92    bbb    H12   2657 0.06265900   1.008000   ; qtot 0.442076
 2658         c3     92    bbb     C7   2658 0.05858200  12.010000   ; qtot 0.500658
 2659         h1     92    bbb    H13   2659 0.06123400   1.008000   ; qtot 0.561892
 2660         h1     92    bbb    H14   2660 0.06123400   1.008000   ; qtot 0.623126
 2661         c3     92    bbb     C8   2661 -0.72423400  12.010000   ; qtot -0.101108
 2662         h1     92    bbb    H15   2662 0.25637600   1.008000   ; qtot 0.155268
 2663         h1     92    bbb    H16   2663 0.25637600   1.008000   ; qtot 0.411644
 2664         c3     92    bbb     C9   2664 -0.72423400  12.010000   ; qtot -0.312590
 2665         h1     92    bbb    H17   2665 0.25637600   1.008000   ; qtot -0.056214
 2666         h1     92    bbb    H18   2666 0.25637600   1.008000   ; qtot 0.200162
 2667         os     92    bbb     O1   2667 -0.20025300  16.000000   ; qtot -0.000091
; residue   93 bbb rtp bbb q -0.0
 2668         n3     93    bbb     N1   2668 -0.59685800  14.010000   ; qtot -0.596949
 2669         c3     93    bbb     C1   2669 0.10137000  12.010000   ; qtot -0.495579
 2670         h1     93    bbb     H1   2670 0.04411300   1.008000   ; qtot -0.451466
 2671         h1     93    bbb     H2   2671 0.04411300   1.008000   ; qtot -0.407353
 2672         c3     93    bbb     C2   2672 0.10137000  12.010000   ; qtot -0.305983
 2673         h1     93    bbb     H3   2673 0.04411300   1.008000   ; qtot -0.261870
 2674         h1     93    bbb     H4   2674 0.04411300   1.008000   ; qtot -0.217757
 2675         c3     93    bbb     C3   2675 -0.00195300  12.010000   ; qtot -0.219710
 2676         h1     93    bbb     H5   2676 0.05064400   1.008000   ; qtot -0.169066
 2677         h1     93    bbb     H6   2677 0.05064400   1.008000   ; qtot -0.118422
 2678         c3     93    bbb     C4   2678 -0.01612100  12.010000   ; qtot -0.134543
 2679         hc     93    bbb     H7   2679 0.04936100   1.008000   ; qtot -0.085182
 2680         hc     93    bbb     H8   2680 0.04936100   1.008000   ; qtot -0.035821
 2681         c3     93    bbb     C5   2681 0.11363000  12.010000   ; qtot 0.077809
 2682         hc     93    bbb     H9   2682 0.06265900   1.008000   ; qtot 0.140468
 2683         hc     93    bbb    H10   2683 0.06265900   1.008000   ; qtot 0.203127
 2684         c3     93    bbb     C6   2684 0.11363000  12.010000   ; qtot 0.316757
 2685         hc     93    bbb    H11   2685 0.06265900   1.008000   ; qtot 0.379416
 2686         hc     93    bbb    H12   2686 0.06265900   1.008000   ; qtot 0.442075
 2687         c3     93    bbb     C7   2687 0.05858200  12.010000   ; qtot 0.500657
 2688         h1     93    bbb    H13   2688 0.06123400   1.008000   ; qtot 0.561891
 2689         h1     93    bbb    H14   2689 0.06123400   1.008000   ; qtot 0.623125
 2690         c3     93    bbb     C8   2690 -0.72423400  12.010000   ; qtot -0.101109
 2691         h1     93    bbb    H15   2691 0.25637600   1.008000   ; qtot 0.155267
 2692         h1     93    bbb    H16   2692 0.25637600   1.008000   ; qtot 0.411643
 2693         c3     93    bbb     C9   2693 -0.72423400  12.010000   ; qtot -0.312591
 2694         h1     93    bbb    H17   2694 0.25637600   1.008000   ; qtot -0.056215
 2695         h1     93    bbb    H18   2695 0.25637600   1.008000   ; qtot 0.200161
 2696         os     93    bbb     O1   2696 -0.20025300  16.000000   ; qtot -0.000092
; residue   94 bbb rtp bbb q -0.0
 2697         n3     94    bbb     N1   2697 -0.59685800  14.010000   ; qtot -0.596950
 2698         c3     94    bbb     C1   2698 0.10137000  12.010000   ; qtot -0.495580
 2699         h1     94    bbb     H1   2699 0.04411300   1.008000   ; qtot -0.451467
 2700         h1     94    bbb     H2   2700 0.04411300   1.008000   ; qtot -0.407354
 2701         c3     94    bbb     C2   2701 0.10137000  12.010000   ; qtot -0.305984
 2702         h1     94    bbb     H3   2702 0.04411300   1.008000   ; qtot -0.261871
 2703         h1     94    bbb     H4   2703 0.04411300   1.008000   ; qtot -0.217758
 2704         c3     94    bbb     C3   2704 -0.00195300  12.010000   ; qtot -0.219711
 2705         h1     94    bbb     H5   2705 0.05064400   1.008000   ; qtot -0.169067
 2706         h1     94    bbb     H6   2706 0.05064400   1.008000   ; qtot -0.118423
 2707         c3     94    bbb     C4   2707 -0.01612100  12.010000   ; qtot -0.134544
 2708         hc     94    bbb     H7   2708 0.04936100   1.008000   ; qtot -0.085183
 2709         hc     94    bbb     H8   2709 0.04936100   1.008000   ; qtot -0.035822
 2710         c3     94    bbb     C5   2710 0.11363000  12.010000   ; qtot 0.077808
 2711         hc     94    bbb     H9   2711 0.06265900   1.008000   ; qtot 0.140467
 2712         hc     94    bbb    H10   2712 0.06265900   1.008000   ; qtot 0.203126
 2713         c3     94    bbb     C6   2713 0.11363000  12.010000   ; qtot 0.316756
 2714         hc     94    bbb    H11   2714 0.06265900   1.008000   ; qtot 0.379415
 2715         hc     94    bbb    H12   2715 0.06265900   1.008000   ; qtot 0.442074
 2716         c3     94    bbb     C7   2716 0.05858200  12.010000   ; qtot 0.500656
 2717         h1     94    bbb    H13   2717 0.06123400   1.008000   ; qtot 0.561890
 2718         h1     94    bbb    H14   2718 0.06123400   1.008000   ; qtot 0.623124
 2719         c3     94    bbb     C8   2719 -0.72423400  12.010000   ; qtot -0.101110
 2720         h1     94    bbb    H15   2720 0.25637600   1.008000   ; qtot 0.155266
 2721         h1     94    bbb    H16   2721 0.25637600   1.008000   ; qtot 0.411642
 2722         c3     94    bbb     C9   2722 -0.72423400  12.010000   ; qtot -0.312592
 2723         h1     94    bbb    H17   2723 0.25637600   1.008000   ; qtot -0.056216
 2724         h1     94    bbb    H18   2724 0.25637600   1.008000   ; qtot 0.200160
 2725         os     94    bbb     O1   2725 -0.20025300  16.000000   ; qtot -0.000093
; residue   95 ccc rtp ccc q 0.0
 2726         c3     95    ccc     C1   2726 -0.33178800  12.010000   ; qtot -0.331881
 2727         c3     95    ccc     C2   2727 0.30606500  12.010000   ; qtot -0.025816
 2728         h1     95    ccc     H1   2728 0.11662300   1.008000   ; qtot 0.090807
 2729         h1     95    ccc     H2   2729 0.11526800   1.008000   ; qtot 0.206075
 2730         c3     95    ccc     C3   2730 0.15592700  12.010000   ; qtot 0.362002
 2731         c3     95    ccc     C4   2731 0.28383300  12.010000   ; qtot 0.645835
 2732         c3     95    ccc     C5   2732 0.32403300  12.010000   ; qtot 0.969868
 2733         h1     95    ccc     H3   2733 0.13386900   1.008000   ; qtot 1.103737
 2734         h1     95    ccc     H4   2734 0.10146700   1.008000   ; qtot 1.205204
 2735         h2     95    ccc     H5   2735 0.10960400   1.008000   ; qtot 1.314808
 2736         os     95    ccc     O1   2736 -0.28650000  16.000000   ; qtot 1.028308
 2737         oh     95    ccc     O2   2737 -0.86012500  16.000000   ; qtot 0.168183
 2738         oh     95    ccc     O3   2738 -0.83772800  16.000000   ; qtot -0.669545
 2739         oh     95    ccc     O4   2739 -0.77449700  16.000000   ; qtot -1.444042
 2740         c3     95    ccc     C6   2740 0.37576500  12.010000   ; qtot -1.068277
 2741         ho     95    ccc     H6   2741 0.53656000   1.008000   ; qtot -0.531717
 2742         ho     95    ccc     H7   2742 0.49492100   1.008000   ; qtot -0.036796
 2743         ho     95    ccc     H8   2743 0.51297200   1.008000   ; qtot 0.476176
 2744         h1     95    ccc     H9   2744 0.05653400   1.008000   ; qtot 0.532710
 2745         h1     95    ccc    H10   2745 0.05653400   1.008000   ; qtot 0.589244
 2746         oh     95    ccc     O5   2746 -0.84113600  16.000000   ; qtot -0.251892
 2747         ho     95    ccc    H11   2747 0.51201600   1.008000   ; qtot 0.260124
 2748         os     95    ccc     O6   2748 -0.26013600  16.000000   ; qtot -0.000012
; residue   96 ccc rtp ccc q 0.0
 2749         c3     96    ccc     C1   2749 -0.33178800  12.010000   ; qtot -0.331800
 2750         c3     96    ccc     C2   2750 0.30606500  12.010000   ; qtot -0.025735
 2751         h1     96    ccc     H1   2751 0.11662300   1.008000   ; qtot 0.090888
 2752         h1     96    ccc     H2   2752 0.11526800   1.008000   ; qtot 0.206156
 2753         c3     96    ccc     C3   2753 0.15592700  12.010000   ; qtot 0.362083
 2754         c3     96    ccc     C4   2754 0.28383300  12.010000   ; qtot 0.645916
 2755         c3     96    ccc     C5   2755 0.32403300  12.010000   ; qtot 0.969949
 2756         h1     96    ccc     H3   2756 0.13386900   1.008000   ; qtot 1.103818
 2757         h1     96    ccc     H4   2757 0.10146700   1.008000   ; qtot 1.205285
 2758         h2     96    ccc     H5   2758 0.10960400   1.008000   ; qtot 1.314889
 2759         os     96    ccc     O1   2759 -0.28650000  16.000000   ; qtot 1.028389
 2760         oh     96    ccc     O2   2760 -0.86012500  16.000000   ; qtot 0.168264
 2761         oh     96    ccc     O3   2761 -0.83772800  16.000000   ; qtot -0.669464
 2762         oh     96    ccc     O4   2762 -0.77449700  16.000000   ; qtot -1.443961
 2763         c3     96    ccc     C6   2763 0.37576500  12.010000   ; qtot -1.068196
 2764         ho     96    ccc     H6   2764 0.53656000   1.008000   ; qtot -0.531636
 2765         ho     96    ccc     H7   2765 0.49492100   1.008000   ; qtot -0.036715
 2766         ho     96    ccc     H8   2766 0.51297200   1.008000   ; qtot 0.476257
 2767         h1     96    ccc     H9   2767 0.05653400   1.008000   ; qtot 0.532791
 2768         h1     96    ccc    H10   2768 0.05653400   1.008000   ; qtot 0.589325
 2769         oh     96    ccc     O5   2769 -0.84113600  16.000000   ; qtot -0.251811
 2770         ho     96    ccc    H11   2770 0.51201600   1.008000   ; qtot 0.260205
 2771         os     96    ccc     O6   2771 -0.26013600  16.000000   ; qtot 0.000069
; residue   97 ccc rtp ccc q 0.0
 2772         c3     97    ccc     C1   2772 -0.33178800  12.010000   ; qtot -0.331719
 2773         c3     97    ccc     C2   2773 0.30606500  12.010000   ; qtot -0.025654
 2774         h1     97    ccc     H1   2774 0.11662300   1.008000   ; qtot 0.090969
 2775         h1     97    ccc     H2   2775 0.11526800   1.008000   ; qtot 0.206237
 2776         c3     97    ccc     C3   2776 0.15592700  12.010000   ; qtot 0.362164
 2777         c3     97    ccc     C4   2777 0.28383300  12.010000   ; qtot 0.645997
 2778         c3     97    ccc     C5   2778 0.32403300  12.010000   ; qtot 0.970030
 2779         h1     97    ccc     H3   2779 0.13386900   1.008000   ; qtot 1.103899
 2780         h1     97    ccc     H4   2780 0.10146700   1.008000   ; qtot 1.205366
 2781         h2     97    ccc     H5   2781 0.10960400   1.008000   ; qtot 1.314970
 2782         os     97    ccc     O1   2782 -0.28650000  16.000000   ; qtot 1.028470
 2783         oh     97    ccc     O2   2783 -0.86012500  16.000000   ; qtot 0.168345
 2784         oh     97    ccc     O3   2784 -0.83772800  16.000000   ; qtot -0.669383
 2785         oh     97    ccc     O4   2785 -0.77449700  16.000000   ; qtot -1.443880
 2786         c3     97    ccc     C6   2786 0.37576500  12.010000   ; qtot -1.068115
 2787         ho     97    ccc     H6   2787 0.53656000   1.008000   ; qtot -0.531555
 2788         ho     97    ccc     H7   2788 0.49492100   1.008000   ; qtot -0.036634
 2789         ho     97    ccc     H8   2789 0.51297200   1.008000   ; qtot 0.476338
 2790         h1     97    ccc     H9   2790 0.05653400   1.008000   ; qtot 0.532872
 2791         h1     97    ccc    H10   2791 0.05653400   1.008000   ; qtot 0.589406
 2792         oh     97    ccc     O5   2792 -0.84113600  16.000000   ; qtot -0.251730
 2793         ho     97    ccc    H11   2793 0.51201600   1.008000   ; qtot 0.260286
 2794         os     97    ccc     O6   2794 -0.26013600  16.000000   ; qtot 0.000150
; residue   98 ccc rtp ccc q 0.0
 2795         c3     98    ccc     C1   2795 -0.33178800  12.010000   ; qtot -0.331638
 2796         c3     98    ccc     C2   2796 0.30606500  12.010000   ; qtot -0.025573
 2797         h1     98    ccc     H1   2797 0.11662300   1.008000   ; qtot 0.091050
 2798         h1     98    ccc     H2   2798 0.11526800   1.008000   ; qtot 0.206318
 2799         c3     98    ccc     C3   2799 0.15592700  12.010000   ; qtot 0.362245
 2800         c3     98    ccc     C4   2800 0.28383300  12.010000   ; qtot 0.646078
 2801         c3     98    ccc     C5   2801 0.32403300  12.010000   ; qtot 0.970111
 2802         h1     98    ccc     H3   2802 0.13386900   1.008000   ; qtot 1.103980
 2803         h1     98    ccc     H4   2803 0.10146700   1.008000   ; qtot 1.205447
 2804         h2     98    ccc     H5   2804 0.10960400   1.008000   ; qtot 1.315051
 2805         os     98    ccc     O1   2805 -0.28650000  16.000000   ; qtot 1.028551
 2806         oh     98    ccc     O2   2806 -0.86012500  16.000000   ; qtot 0.168426
 2807         oh     98    ccc     O3   2807 -0.83772800  16.000000   ; qtot -0.669302
 2808         oh     98    ccc     O4   2808 -0.77449700  16.000000   ; qtot -1.443799
 2809         c3     98    ccc     C6   2809 0.37576500  12.010000   ; qtot -1.068034
 2810         ho     98    ccc     H6   2810 0.53656000   1.008000   ; qtot -0.531474
 2811         ho     98    ccc     H7   2811 0.49492100   1.008000   ; qtot -0.036553
 2812         ho     98    ccc     H8   2812 0.51297200   1.008000   ; qtot 0.476419
 2813         h1     98    ccc     H9   2813 0.05653400   1.008000   ; qtot 0.532953
 2814         h1     98    ccc    H10   2814 0.05653400   1.008000   ; qtot 0.589487
 2815         oh     98    ccc     O5   2815 -0.84113600  16.000000   ; qtot -0.251649
 2816         ho     98    ccc    H11   2816 0.51201600   1.008000   ; qtot 0.260367
 2817         os     98    ccc     O6   2817 -0.26013600  16.000000   ; qtot 0.000231
; residue   99 ccc rtp ccc q 0.0
 2818         c3     99    ccc     C1   2818 -0.33178800  12.010000   ; qtot -0.331557
 2819         c3     99    ccc     C2   2819 0.30606500  12.010000   ; qtot -0.025492
 2820         h1     99    ccc     H1   2820 0.11662300   1.008000   ; qtot 0.091131
 2821         h1     99    ccc     H2   2821 0.11526800   1.008000   ; qtot 0.206399
 2822         c3     99    ccc     C3   2822 0.15592700  12.010000   ; qtot 0.362326
 2823         c3     99    ccc     C4   2823 0.28383300  12.010000   ; qtot 0.646159
 2824         c3     99    ccc     C5   2824 0.32403300  12.010000   ; qtot 0.970192
 2825         h1     99    ccc     H3   2825 0.13386900   1.008000   ; qtot 1.104061
 2826         h1     99    ccc     H4   2826 0.10146700   1.008000   ; qtot 1.205528
 2827         h2     99    ccc     H5   2827 0.10960400   1.008000   ; qtot 1.315132
 2828         os     99    ccc     O1   2828 -0.28650000  16.000000   ; qtot 1.028632
 2829         oh     99    ccc     O2   2829 -0.86012500  16.000000   ; qtot 0.168507
 2830         oh     99    ccc     O3   2830 -0.83772800  16.000000   ; qtot -0.669221
 2831         oh     99    ccc     O4   2831 -0.77449700  16.000000   ; qtot -1.443718
 2832         c3     99    ccc     C6   2832 0.37576500  12.010000   ; qtot -1.067953
 2833         ho     99    ccc     H6   2833 0.53656000   1.008000   ; qtot -0.531393
 2834         ho     99    ccc     H7   2834 0.49492100   1.008000   ; qtot -0.036472
 2835         ho     99    ccc     H8   2835 0.51297200   1.008000   ; qtot 0.476500
 2836         h1     99    ccc     H9   2836 0.05653400   1.008000   ; qtot 0.533034
 2837         h1     99    ccc    H10   2837 0.05653400   1.008000   ; qtot 0.589568
 2838         oh     99    ccc     O5   2838 -0.84113600  16.000000   ; qtot -0.251568
 2839         ho     99    ccc    H11   2839 0.51201600   1.008000   ; qtot 0.260448
 2840         os     99    ccc     O6   2840 -0.26013600  16.000000   ; qtot 0.000312
; residue  100 ccc rtp ccc q 0.0
 2841         c3    100    ccc     C1   2841 -0.33178800  12.010000   ; qtot -0.331476
 2842         c3    100    ccc     C2   2842 0.30606500  12.010000   ; qtot -0.025411
 2843         h1    100    ccc     H1   2843 0.11662300   1.008000   ; qtot 0.091212
 2844         h1    100    ccc     H2   2844 0.11526800   1.008000   ; qtot 0.206480
 2845         c3    100    ccc     C3   2845 0.15592700  12.010000   ; qtot 0.362407
 2846         c3    100    ccc     C4   2846 0.28383300  12.010000   ; qtot 0.646240
 2847         c3    100    ccc     C5   2847 0.32403300  12.010000   ; qtot 0.970273
 2848         h1    100    ccc     H3   2848 0.13386900   1.008000   ; qtot 1.104142
 2849         h1    100    ccc     H4   2849 0.10146700   1.008000   ; qtot 1.205609
 2850         h2    100    ccc     H5   2850 0.10960400   1.008000   ; qtot 1.315213
 2851         os    100    ccc     O1   2851 -0.28650000  16.000000   ; qtot 1.028713
 2852         oh    100    ccc     O2   2852 -0.86012500  16.000000   ; qtot 0.168588
 2853         oh    100    ccc     O3   2853 -0.83772800  16.000000   ; qtot -0.669140
 2854         oh    100    ccc     O4   2854 -0.77449700  16.000000   ; qtot -1.443637
 2855         c3    100    ccc     C6   2855 0.37576500  12.010000   ; qtot -1.067872
 2856         ho    100    ccc     H6   2856 0.53656000   1.008000   ; qtot -0.531312
 2857         ho    100    ccc     H7   2857 0.49492100   1.008000   ; qtot -0.036391
 2858         ho    100    ccc     H8   2858 0.51297200   1.008000   ; qtot 0.476581
 2859         h1    100    ccc     H9   2859 0.05653400   1.008000   ; qtot 0.533115
 2860         h1    100    ccc    H10   2860 0.05653400   1.008000   ; qtot 0.589649
 2861         oh    100    ccc     O5   2861 -0.84113600  16.000000   ; qtot -0.251487
 2862         ho    100    ccc    H11   2862 0.51201600   1.008000   ; qtot 0.260529
 2863         os    100    ccc     O6   2863 -0.26013600  16.000000   ; qtot 0.000393
; residue  101 ccc rtp ccc q 0.0
 2864         c3    101    ccc     C1   2864 -0.33178800  12.010000   ; qtot -0.331395
 2865         c3    101    ccc     C2   2865 0.30606500  12.010000   ; qtot -0.025330
 2866         h1    101    ccc     H1   2866 0.11662300   1.008000   ; qtot 0.091293
 2867         h1    101    ccc     H2   2867 0.11526800   1.008000   ; qtot 0.206561
 2868         c3    101    ccc     C3   2868 0.15592700  12.010000   ; qtot 0.362488
 2869         c3    101    ccc     C4   2869 0.28383300  12.010000   ; qtot 0.646321
 2870         c3    101    ccc     C5   2870 0.32403300  12.010000   ; qtot 0.970354
 2871         h1    101    ccc     H3   2871 0.13386900   1.008000   ; qtot 1.104223
 2872         h1    101    ccc     H4   2872 0.10146700   1.008000   ; qtot 1.205690
 2873         h2    101    ccc     H5   2873 0.10960400   1.008000   ; qtot 1.315294
 2874         os    101    ccc     O1   2874 -0.28650000  16.000000   ; qtot 1.028794
 2875         oh    101    ccc     O2   2875 -0.86012500  16.000000   ; qtot 0.168669
 2876         oh    101    ccc     O3   2876 -0.83772800  16.000000   ; qtot -0.669059
 2877         oh    101    ccc     O4   2877 -0.77449700  16.000000   ; qtot -1.443556
 2878         c3    101    ccc     C6   2878 0.37576500  12.010000   ; qtot -1.067791
 2879         ho    101    ccc     H6   2879 0.53656000   1.008000   ; qtot -0.531231
 2880         ho    101    ccc     H7   2880 0.49492100   1.008000   ; qtot -0.036310
 2881         ho    101    ccc     H8   2881 0.51297200   1.008000   ; qtot 0.476662
 2882         h1    101    ccc     H9   2882 0.05653400   1.008000   ; qtot 0.533196
 2883         h1    101    ccc    H10   2883 0.05653400   1.008000   ; qtot 0.589730
 2884         oh    101    ccc     O5   2884 -0.84113600  16.000000   ; qtot -0.251406
 2885         ho    101    ccc    H11   2885 0.51201600   1.008000   ; qtot 0.260610
 2886         os    101    ccc     O6   2886 -0.26013600  16.000000   ; qtot 0.000474
; residue  102 ccc rtp ccc q 0.0
 2887         c3    102    ccc     C1   2887 -0.33178800  12.010000   ; qtot -0.331314
 2888         c3    102    ccc     C2   2888 0.30606500  12.010000   ; qtot -0.025249
 2889         h1    102    ccc     H1   2889 0.11662300   1.008000   ; qtot 0.091374
 2890         h1    102    ccc     H2   2890 0.11526800   1.008000   ; qtot 0.206642
 2891         c3    102    ccc     C3   2891 0.15592700  12.010000   ; qtot 0.362569
 2892         c3    102    ccc     C4   2892 0.28383300  12.010000   ; qtot 0.646402
 2893         c3    102    ccc     C5   2893 0.32403300  12.010000   ; qtot 0.970435
 2894         h1    102    ccc     H3   2894 0.13386900   1.008000   ; qtot 1.104304
 2895         h1    102    ccc     H4   2895 0.10146700   1.008000   ; qtot 1.205771
 2896         h2    102    ccc     H5   2896 0.10960400   1.008000   ; qtot 1.315375
 2897         os    102    ccc     O1   2897 -0.28650000  16.000000   ; qtot 1.028875
 2898         oh    102    ccc     O2   2898 -0.86012500  16.000000   ; qtot 0.168750
 2899         oh    102    ccc     O3   2899 -0.83772800  16.000000   ; qtot -0.668978
 2900         oh    102    ccc     O4   2900 -0.77449700  16.000000   ; qtot -1.443475
 2901         c3    102    ccc     C6   2901 0.37576500  12.010000   ; qtot -1.067710
 2902         ho    102    ccc     H6   2902 0.53656000   1.008000   ; qtot -0.531150
 2903         ho    102    ccc     H7   2903 0.49492100   1.008000   ; qtot -0.036229
 2904         ho    102    ccc     H8   2904 0.51297200   1.008000   ; qtot 0.476743
 2905         h1    102    ccc     H9   2905 0.05653400   1.008000   ; qtot 0.533277
 2906         h1    102    ccc    H10   2906 0.05653400   1.008000   ; qtot 0.589811
 2907         oh    102    ccc     O5   2907 -0.84113600  16.000000   ; qtot -0.251325
 2908         ho    102    ccc    H11   2908 0.51201600   1.008000   ; qtot 0.260691
 2909         os    102    ccc     O6   2909 -0.26013600  16.000000   ; qtot 0.000555
; residue  103 ccc rtp ccc q 0.0
 2910         c3    103    ccc     C1   2910 -0.33178800  12.010000   ; qtot -0.331233
 2911         c3    103    ccc     C2   2911 0.30606500  12.010000   ; qtot -0.025168
 2912         h1    103    ccc     H1   2912 0.11662300   1.008000   ; qtot 0.091455
 2913         h1    103    ccc     H2   2913 0.11526800   1.008000   ; qtot 0.206723
 2914         c3    103    ccc     C3   2914 0.15592700  12.010000   ; qtot 0.362650
 2915         c3    103    ccc     C4   2915 0.28383300  12.010000   ; qtot 0.646483
 2916         c3    103    ccc     C5   2916 0.32403300  12.010000   ; qtot 0.970516
 2917         h1    103    ccc     H3   2917 0.13386900   1.008000   ; qtot 1.104385
 2918         h1    103    ccc     H4   2918 0.10146700   1.008000   ; qtot 1.205852
 2919         h2    103    ccc     H5   2919 0.10960400   1.008000   ; qtot 1.315456
 2920         os    103    ccc     O1   2920 -0.28650000  16.000000   ; qtot 1.028956
 2921         oh    103    ccc     O2   2921 -0.86012500  16.000000   ; qtot 0.168831
 2922         oh    103    ccc     O3   2922 -0.83772800  16.000000   ; qtot -0.668897
 2923         oh    103    ccc     O4   2923 -0.77449700  16.000000   ; qtot -1.443394
 2924         c3    103    ccc     C6   2924 0.37576500  12.010000   ; qtot -1.067629
 2925         ho    103    ccc     H6   2925 0.53656000   1.008000   ; qtot -0.531069
 2926         ho    103    ccc     H7   2926 0.49492100   1.008000   ; qtot -0.036148
 2927         ho    103    ccc     H8   2927 0.51297200   1.008000   ; qtot 0.476824
 2928         h1    103    ccc     H9   2928 0.05653400   1.008000   ; qtot 0.533358
 2929         h1    103    ccc    H10   2929 0.05653400   1.008000   ; qtot 0.589892
 2930         oh    103    ccc     O5   2930 -0.84113600  16.000000   ; qtot -0.251244
 2931         ho    103    ccc    H11   2931 0.51201600   1.008000   ; qtot 0.260772
 2932         os    103    ccc     O6   2932 -0.26013600  16.000000   ; qtot 0.000636
; residue  104 ccc rtp ccc q 0.0
 2933         c3    104    ccc     C1   2933 -0.33178800  12.010000   ; qtot -0.331152
 2934         c3    104    ccc     C2   2934 0.30606500  12.010000   ; qtot -0.025087
 2935         h1    104    ccc     H1   2935 0.11662300   1.008000   ; qtot 0.091536
 2936         h1    104    ccc     H2   2936 0.11526800   1.008000   ; qtot 0.206804
 2937         c3    104    ccc     C3   2937 0.15592700  12.010000   ; qtot 0.362731
 2938         c3    104    ccc     C4   2938 0.28383300  12.010000   ; qtot 0.646564
 2939         c3    104    ccc     C5   2939 0.32403300  12.010000   ; qtot 0.970597
 2940         h1    104    ccc     H3   2940 0.13386900   1.008000   ; qtot 1.104466
 2941         h1    104    ccc     H4   2941 0.10146700   1.008000   ; qtot 1.205933
 2942         h2    104    ccc     H5   2942 0.10960400   1.008000   ; qtot 1.315537
 2943         os    104    ccc     O1   2943 -0.28650000  16.000000   ; qtot 1.029037
 2944         oh    104    ccc     O2   2944 -0.86012500  16.000000   ; qtot 0.168912
 2945         oh    104    ccc     O3   2945 -0.83772800  16.000000   ; qtot -0.668816
 2946         oh    104    ccc     O4   2946 -0.77449700  16.000000   ; qtot -1.443313
 2947         c3    104    ccc     C6   2947 0.37576500  12.010000   ; qtot -1.067548
 2948         ho    104    ccc     H6   2948 0.53656000   1.008000   ; qtot -0.530988
 2949         ho    104    ccc     H7   2949 0.49492100   1.008000   ; qtot -0.036067
 2950         ho    104    ccc     H8   2950 0.51297200   1.008000   ; qtot 0.476905
 2951         h1    104    ccc     H9   2951 0.05653400   1.008000   ; qtot 0.533439
 2952         h1    104    ccc    H10   2952 0.05653400   1.008000   ; qtot 0.589973
 2953         oh    104    ccc     O5   2953 -0.84113600  16.000000   ; qtot -0.251163
 2954         ho    104    ccc    H11   2954 0.51201600   1.008000   ; qtot 0.260853
 2955         os    104    ccc     O6   2955 -0.26013600  16.000000   ; qtot 0.000717
; residue  105 ccc rtp ccc q 0.0
 2956         c3    105    ccc     C1   2956 -0.33178800  12.010000   ; qtot -0.331071
 2957         c3    105    ccc     C2   2957 0.30606500  12.010000   ; qtot -0.025006
 2958         h1    105    ccc     H1   2958 0.11662300   1.008000   ; qtot 0.091617
 2959         h1    105    ccc     H2   2959 0.11526800   1.008000   ; qtot 0.206885
 2960         c3    105    ccc     C3   2960 0.15592700  12.010000   ; qtot 0.362812
 2961         c3    105    ccc     C4   2961 0.28383300  12.010000   ; qtot 0.646645
 2962         c3    105    ccc     C5   2962 0.32403300  12.010000   ; qtot 0.970678
 2963         h1    105    ccc     H3   2963 0.13386900   1.008000   ; qtot 1.104547
 2964         h1    105    ccc     H4   2964 0.10146700   1.008000   ; qtot 1.206014
 2965         h2    105    ccc     H5   2965 0.10960400   1.008000   ; qtot 1.315618
 2966         os    105    ccc     O1   2966 -0.28650000  16.000000   ; qtot 1.029118
 2967         oh    105    ccc     O2   2967 -0.86012500  16.000000   ; qtot 0.168993
 2968         oh    105    ccc     O3   2968 -0.83772800  16.000000   ; qtot -0.668735
 2969         oh    105    ccc     O4   2969 -0.77449700  16.000000   ; qtot -1.443232
 2970         c3    105    ccc     C6   2970 0.37576500  12.010000   ; qtot -1.067467
 2971         ho    105    ccc     H6   2971 0.53656000   1.008000   ; qtot -0.530907
 2972         ho    105    ccc     H7   2972 0.49492100   1.008000   ; qtot -0.035986
 2973         ho    105    ccc     H8   2973 0.51297200   1.008000   ; qtot 0.476986
 2974         h1    105    ccc     H9   2974 0.05653400   1.008000   ; qtot 0.533520
 2975         h1    105    ccc    H10   2975 0.05653400   1.008000   ; qtot 0.590054
 2976         oh    105    ccc     O5   2976 -0.84113600  16.000000   ; qtot -0.251082
 2977         ho    105    ccc    H11   2977 0.51201600   1.008000   ; qtot 0.260934
 2978         os    105    ccc     O6   2978 -0.26013600  16.000000   ; qtot 0.000798
; residue  106 ccc rtp ccc q 0.0
 2979         c3    106    ccc     C1   2979 -0.33178800  12.010000   ; qtot -0.330990
 2980         c3    106    ccc     C2   2980 0.30606500  12.010000   ; qtot -0.024925
 2981         h1    106    ccc     H1   2981 0.11662300   1.008000   ; qtot 0.091698
 2982         h1    106    ccc     H2   2982 0.11526800   1.008000   ; qtot 0.206966
 2983         c3    106    ccc     C3   2983 0.15592700  12.010000   ; qtot 0.362893
 2984         c3    106    ccc     C4   2984 0.28383300  12.010000   ; qtot 0.646726
 2985         c3    106    ccc     C5   2985 0.32403300  12.010000   ; qtot 0.970759
 2986         h1    106    ccc     H3   2986 0.13386900   1.008000   ; qtot 1.104628
 2987         h1    106    ccc     H4   2987 0.10146700   1.008000   ; qtot 1.206095
 2988         h2    106    ccc     H5   2988 0.10960400   1.008000   ; qtot 1.315699
 2989         os    106    ccc     O1   2989 -0.28650000  16.000000   ; qtot 1.029199
 2990         oh    106    ccc     O2   2990 -0.86012500  16.000000   ; qtot 0.169074
 2991         oh    106    ccc     O3   2991 -0.83772800  16.000000   ; qtot -0.668654
 2992         oh    106    ccc     O4   2992 -0.77449700  16.000000   ; qtot -1.443151
 2993         c3    106    ccc     C6   2993 0.37576500  12.010000   ; qtot -1.067386
 2994         ho    106    ccc     H6   2994 0.53656000   1.008000   ; qtot -0.530826
 2995         ho    106    ccc     H7   2995 0.49492100   1.008000   ; qtot -0.035905
 2996         ho    106    ccc     H8   2996 0.51297200   1.008000   ; qtot 0.477067
 2997         h1    106    ccc     H9   2997 0.05653400   1.008000   ; qtot 0.533601
 2998         h1    106    ccc    H10   2998 0.05653400   1.008000   ; qtot 0.590135
 2999         oh    106    ccc     O5   2999 -0.84113600  16.000000   ; qtot -0.251001
 3000         ho    106    ccc    H11   3000 0.51201600   1.008000   ; qtot 0.261015
 3001         os    106    ccc     O6   3001 -0.26013600  16.000000   ; qtot 0.000879
; residue  107 ccc rtp ccc q 0.0
 3002         c3    107    ccc     C1   3002 -0.33178800  12.010000   ; qtot -0.330909
 3003         c3    107    ccc     C2   3003 0.30606500  12.010000   ; qtot -0.024844
 3004         h1    107    ccc     H1   3004 0.11662300   1.008000   ; qtot 0.091779
 3005         h1    107    ccc     H2   3005 0.11526800   1.008000   ; qtot 0.207047
 3006         c3    107    ccc     C3   3006 0.15592700  12.010000   ; qtot 0.362974
 3007         c3    107    ccc     C4   3007 0.28383300  12.010000   ; qtot 0.646807
 3008         c3    107    ccc     C5   3008 0.32403300  12.010000   ; qtot 0.970840
 3009         h1    107    ccc     H3   3009 0.13386900   1.008000   ; qtot 1.104709
 3010         h1    107    ccc     H4   3010 0.10146700   1.008000   ; qtot 1.206176
 3011         h2    107    ccc     H5   3011 0.10960400   1.008000   ; qtot 1.315780
 3012         os    107    ccc     O1   3012 -0.28650000  16.000000   ; qtot 1.029280
 3013         oh    107    ccc     O2   3013 -0.86012500  16.000000   ; qtot 0.169155
 3014         oh    107    ccc     O3   3014 -0.83772800  16.000000   ; qtot -0.668573
 3015         oh    107    ccc     O4   3015 -0.77449700  16.000000   ; qtot -1.443070
 3016         c3    107    ccc     C6   3016 0.37576500  12.010000   ; qtot -1.067305
 3017         ho    107    ccc     H6   3017 0.53656000   1.008000   ; qtot -0.530745
 3018         ho    107    ccc     H7   3018 0.49492100   1.008000   ; qtot -0.035824
 3019         ho    107    ccc     H8   3019 0.51297200   1.008000   ; qtot 0.477148
 3020         h1    107    ccc     H9   3020 0.05653400   1.008000   ; qtot 0.533682
 3021         h1    107    ccc    H10   3021 0.05653400   1.008000   ; qtot 0.590216
 3022         oh    107    ccc     O5   3022 -0.84113600  16.000000   ; qtot -0.250920
 3023         ho    107    ccc    H11   3023 0.51201600   1.008000   ; qtot 0.261096
 3024         os    107    ccc     O6   3024 -0.26013600  16.000000   ; qtot 0.000960
; residue  108 ccc rtp ccc q 0.0
 3025         c3    108    ccc     C1   3025 -0.33178800  12.010000   ; qtot -0.330828
 3026         c3    108    ccc     C2   3026 0.30606500  12.010000   ; qtot -0.024763
 3027         h1    108    ccc     H1   3027 0.11662300   1.008000   ; qtot 0.091860
 3028         h1    108    ccc     H2   3028 0.11526800   1.008000   ; qtot 0.207128
 3029         c3    108    ccc     C3   3029 0.15592700  12.010000   ; qtot 0.363055
 3030         c3    108    ccc     C4   3030 0.28383300  12.010000   ; qtot 0.646888
 3031         c3    108    ccc     C5   3031 0.32403300  12.010000   ; qtot 0.970921
 3032         h1    108    ccc     H3   3032 0.13386900   1.008000   ; qtot 1.104790
 3033         h1    108    ccc     H4   3033 0.10146700   1.008000   ; qtot 1.206257
 3034         h2    108    ccc     H5   3034 0.10960400   1.008000   ; qtot 1.315861
 3035         os    108    ccc     O1   3035 -0.28650000  16.000000   ; qtot 1.029361
 3036         oh    108    ccc     O2   3036 -0.86012500  16.000000   ; qtot 0.169236
 3037         oh    108    ccc     O3   3037 -0.83772800  16.000000   ; qtot -0.668492
 3038         oh    108    ccc     O4   3038 -0.77449700  16.000000   ; qtot -1.442989
 3039         c3    108    ccc     C6   3039 0.37576500  12.010000   ; qtot -1.067224
 3040         ho    108    ccc     H6   3040 0.53656000   1.008000   ; qtot -0.530664
 3041         ho    108    ccc     H7   3041 0.49492100   1.008000   ; qtot -0.035743
 3042         ho    108    ccc     H8   3042 0.51297200   1.008000   ; qtot 0.477229
 3043         h1    108    ccc     H9   3043 0.05653400   1.008000   ; qtot 0.533763
 3044         h1    108    ccc    H10   3044 0.05653400   1.008000   ; qtot 0.590297
 3045         oh    108    ccc     O5   3045 -0.84113600  16.000000   ; qtot -0.250839
 3046         ho    108    ccc    H11   3046 0.51201600   1.008000   ; qtot 0.261177
 3047         os    108    ccc     O6   3047 -0.26013600  16.000000   ; qtot 0.001041
; residue  109 ccc rtp ccc q 0.0
 3048         c3    109    ccc     C1   3048 -0.33178800  12.010000   ; qtot -0.330747
 3049         c3    109    ccc     C2   3049 0.30606500  12.010000   ; qtot -0.024682
 3050         h1    109    ccc     H1   3050 0.11662300   1.008000   ; qtot 0.091941
 3051         h1    109    ccc     H2   3051 0.11526800   1.008000   ; qtot 0.207209
 3052         c3    109    ccc     C3   3052 0.15592700  12.010000   ; qtot 0.363136
 3053         c3    109    ccc     C4   3053 0.28383300  12.010000   ; qtot 0.646969
 3054         c3    109    ccc     C5   3054 0.32403300  12.010000   ; qtot 0.971002
 3055         h1    109    ccc     H3   3055 0.13386900   1.008000   ; qtot 1.104871
 3056         h1    109    ccc     H4   3056 0.10146700   1.008000   ; qtot 1.206338
 3057         h2    109    ccc     H5   3057 0.10960400   1.008000   ; qtot 1.315942
 3058         os    109    ccc     O1   3058 -0.28650000  16.000000   ; qtot 1.029442
 3059         oh    109    ccc     O2   3059 -0.86012500  16.000000   ; qtot 0.169317
 3060         oh    109    ccc     O3   3060 -0.83772800  16.000000   ; qtot -0.668411
 3061         oh    109    ccc     O4   3061 -0.77449700  16.000000   ; qtot -1.442908
 3062         c3    109    ccc     C6   3062 0.37576500  12.010000   ; qtot -1.067143
 3063         ho    109    ccc     H6   3063 0.53656000   1.008000   ; qtot -0.530583
 3064         ho    109    ccc     H7   3064 0.49492100   1.008000   ; qtot -0.035662
 3065         ho    109    ccc     H8   3065 0.51297200   1.008000   ; qtot 0.477310
 3066         h1    109    ccc     H9   3066 0.05653400   1.008000   ; qtot 0.533844
 3067         h1    109    ccc    H10   3067 0.05653400   1.008000   ; qtot 0.590378
 3068         oh    109    ccc     O5   3068 -0.84113600  16.000000   ; qtot -0.250758
 3069         ho    109    ccc    H11   3069 0.51201600   1.008000   ; qtot 0.261258
 3070         os    109    ccc     O6   3070 -0.26013600  16.000000   ; qtot 0.001122
; residue  110 ccc rtp ccc q 0.0
 3071         c3    110    ccc     C1   3071 -0.33178800  12.010000   ; qtot -0.330666
 3072         c3    110    ccc     C2   3072 0.30606500  12.010000   ; qtot -0.024601
 3073         h1    110    ccc     H1   3073 0.11662300   1.008000   ; qtot 0.092022
 3074         h1    110    ccc     H2   3074 0.11526800   1.008000   ; qtot 0.207290
 3075         c3    110    ccc     C3   3075 0.15592700  12.010000   ; qtot 0.363217
 3076         c3    110    ccc     C4   3076 0.28383300  12.010000   ; qtot 0.647050
 3077         c3    110    ccc     C5   3077 0.32403300  12.010000   ; qtot 0.971083
 3078         h1    110    ccc     H3   3078 0.13386900   1.008000   ; qtot 1.104952
 3079         h1    110    ccc     H4   3079 0.10146700   1.008000   ; qtot 1.206419
 3080         h2    110    ccc     H5   3080 0.10960400   1.008000   ; qtot 1.316023
 3081         os    110    ccc     O1   3081 -0.28650000  16.000000   ; qtot 1.029523
 3082         oh    110    ccc     O2   3082 -0.86012500  16.000000   ; qtot 0.169398
 3083         oh    110    ccc     O3   3083 -0.83772800  16.000000   ; qtot -0.668330
 3084         oh    110    ccc     O4   3084 -0.77449700  16.000000   ; qtot -1.442827
 3085         c3    110    ccc     C6   3085 0.37576500  12.010000   ; qtot -1.067062
 3086         ho    110    ccc     H6   3086 0.53656000   1.008000   ; qtot -0.530502
 3087         ho    110    ccc     H7   3087 0.49492100   1.008000   ; qtot -0.035581
 3088         ho    110    ccc     H8   3088 0.51297200   1.008000   ; qtot 0.477391
 3089         h1    110    ccc     H9   3089 0.05653400   1.008000   ; qtot 0.533925
 3090         h1    110    ccc    H10   3090 0.05653400   1.008000   ; qtot 0.590459
 3091         oh    110    ccc     O5   3091 -0.84113600  16.000000   ; qtot -0.250677
 3092         ho    110    ccc    H11   3092 0.51201600   1.008000   ; qtot 0.261339
 3093         os    110    ccc     O6   3093 -0.26013600  16.000000   ; qtot 0.001203
; residue  111 ccc rtp ccc q 0.0
 3094         c3    111    ccc     C1   3094 -0.33178800  12.010000   ; qtot -0.330585
 3095         c3    111    ccc     C2   3095 0.30606500  12.010000   ; qtot -0.024520
 3096         h1    111    ccc     H1   3096 0.11662300   1.008000   ; qtot 0.092103
 3097         h1    111    ccc     H2   3097 0.11526800   1.008000   ; qtot 0.207371
 3098         c3    111    ccc     C3   3098 0.15592700  12.010000   ; qtot 0.363298
 3099         c3    111    ccc     C4   3099 0.28383300  12.010000   ; qtot 0.647131
 3100         c3    111    ccc     C5   3100 0.32403300  12.010000   ; qtot 0.971164
 3101         h1    111    ccc     H3   3101 0.13386900   1.008000   ; qtot 1.105033
 3102         h1    111    ccc     H4   3102 0.10146700   1.008000   ; qtot 1.206500
 3103         h2    111    ccc     H5   3103 0.10960400   1.008000   ; qtot 1.316104
 3104         os    111    ccc     O1   3104 -0.28650000  16.000000   ; qtot 1.029604
 3105         oh    111    ccc     O2   3105 -0.86012500  16.000000   ; qtot 0.169479
 3106         oh    111    ccc     O3   3106 -0.83772800  16.000000   ; qtot -0.668249
 3107         oh    111    ccc     O4   3107 -0.77449700  16.000000   ; qtot -1.442746
 3108         c3    111    ccc     C6   3108 0.37576500  12.010000   ; qtot -1.066981
 3109         ho    111    ccc     H6   3109 0.53656000   1.008000   ; qtot -0.530421
 3110         ho    111    ccc     H7   3110 0.49492100   1.008000   ; qtot -0.035500
 3111         ho    111    ccc     H8   3111 0.51297200   1.008000   ; qtot 0.477472
 3112         h1    111    ccc     H9   3112 0.05653400   1.008000   ; qtot 0.534006
 3113         h1    111    ccc    H10   3113 0.05653400   1.008000   ; qtot 0.590540
 3114         oh    111    ccc     O5   3114 -0.84113600  16.000000   ; qtot -0.250596
 3115         ho    111    ccc    H11   3115 0.51201600   1.008000   ; qtot 0.261420
 3116         os    111    ccc     O6   3116 -0.26013600  16.000000   ; qtot 0.001284
; residue  112 ccc rtp ccc q 0.0
 3117         c3    112    ccc     C1   3117 -0.33178800  12.010000   ; qtot -0.330504
 3118         c3    112    ccc     C2   3118 0.30606500  12.010000   ; qtot -0.024439
 3119         h1    112    ccc     H1   3119 0.11662300   1.008000   ; qtot 0.092184
 3120         h1    112    ccc     H2   3120 0.11526800   1.008000   ; qtot 0.207452
 3121         c3    112    ccc     C3   3121 0.15592700  12.010000   ; qtot 0.363379
 3122         c3    112    ccc     C4   3122 0.28383300  12.010000   ; qtot 0.647212
 3123         c3    112    ccc     C5   3123 0.32403300  12.010000   ; qtot 0.971245
 3124         h1    112    ccc     H3   3124 0.13386900   1.008000   ; qtot 1.105114
 3125         h1    112    ccc     H4   3125 0.10146700   1.008000   ; qtot 1.206581
 3126         h2    112    ccc     H5   3126 0.10960400   1.008000   ; qtot 1.316185
 3127         os    112    ccc     O1   3127 -0.28650000  16.000000   ; qtot 1.029685
 3128         oh    112    ccc     O2   3128 -0.86012500  16.000000   ; qtot 0.169560
 3129         oh    112    ccc     O3   3129 -0.83772800  16.000000   ; qtot -0.668168
 3130         oh    112    ccc     O4   3130 -0.77449700  16.000000   ; qtot -1.442665
 3131         c3    112    ccc     C6   3131 0.37576500  12.010000   ; qtot -1.066900
 3132         ho    112    ccc     H6   3132 0.53656000   1.008000   ; qtot -0.530340
 3133         ho    112    ccc     H7   3133 0.49492100   1.008000   ; qtot -0.035419
 3134         ho    112    ccc     H8   3134 0.51297200   1.008000   ; qtot 0.477553
 3135         h1    112    ccc     H9   3135 0.05653400   1.008000   ; qtot 0.534087
 3136         h1    112    ccc    H10   3136 0.05653400   1.008000   ; qtot 0.590621
 3137         oh    112    ccc     O5   3137 -0.84113600  16.000000   ; qtot -0.250515
 3138         ho    112    ccc    H11   3138 0.51201600   1.008000   ; qtot 0.261501
 3139         os    112    ccc     O6   3139 -0.26013600  16.000000   ; qtot 0.001365
; residue  113 ccc rtp ccc q 0.0
 3140         c3    113    ccc     C1   3140 -0.33178800  12.010000   ; qtot -0.330423
 3141         c3    113    ccc     C2   3141 0.30606500  12.010000   ; qtot -0.024358
 3142         h1    113    ccc     H1   3142 0.11662300   1.008000   ; qtot 0.092265
 3143         h1    113    ccc     H2   3143 0.11526800   1.008000   ; qtot 0.207533
 3144         c3    113    ccc     C3   3144 0.15592700  12.010000   ; qtot 0.363460
 3145         c3    113    ccc     C4   3145 0.28383300  12.010000   ; qtot 0.647293
 3146         c3    113    ccc     C5   3146 0.32403300  12.010000   ; qtot 0.971326
 3147         h1    113    ccc     H3   3147 0.13386900   1.008000   ; qtot 1.105195
 3148         h1    113    ccc     H4   3148 0.10146700   1.008000   ; qtot 1.206662
 3149         h2    113    ccc     H5   3149 0.10960400   1.008000   ; qtot 1.316266
 3150         os    113    ccc     O1   3150 -0.28650000  16.000000   ; qtot 1.029766
 3151         oh    113    ccc     O2   3151 -0.86012500  16.000000   ; qtot 0.169641
 3152         oh    113    ccc     O3   3152 -0.83772800  16.000000   ; qtot -0.668087
 3153         oh    113    ccc     O4   3153 -0.77449700  16.000000   ; qtot -1.442584
 3154         c3    113    ccc     C6   3154 0.37576500  12.010000   ; qtot -1.066819
 3155         ho    113    ccc     H6   3155 0.53656000   1.008000   ; qtot -0.530259
 3156         ho    113    ccc     H7   3156 0.49492100   1.008000   ; qtot -0.035338
 3157         ho    113    ccc     H8   3157 0.51297200   1.008000   ; qtot 0.477634
 3158         h1    113    ccc     H9   3158 0.05653400   1.008000   ; qtot 0.534168
 3159         h1    113    ccc    H10   3159 0.05653400   1.008000   ; qtot 0.590702
 3160         oh    113    ccc     O5   3160 -0.84113600  16.000000   ; qtot -0.250434
 3161         ho    113    ccc    H11   3161 0.51201600   1.008000   ; qtot 0.261582
 3162         os    113    ccc     O6   3162 -0.26013600  16.000000   ; qtot 0.001446
; residue  114 ccc rtp ccc q 0.0
 3163         c3    114    ccc     C1   3163 -0.33178800  12.010000   ; qtot -0.330342
 3164         c3    114    ccc     C2   3164 0.30606500  12.010000   ; qtot -0.024277
 3165         h1    114    ccc     H1   3165 0.11662300   1.008000   ; qtot 0.092346
 3166         h1    114    ccc     H2   3166 0.11526800   1.008000   ; qtot 0.207614
 3167         c3    114    ccc     C3   3167 0.15592700  12.010000   ; qtot 0.363541
 3168         c3    114    ccc     C4   3168 0.28383300  12.010000   ; qtot 0.647374
 3169         c3    114    ccc     C5   3169 0.32403300  12.010000   ; qtot 0.971407
 3170         h1    114    ccc     H3   3170 0.13386900   1.008000   ; qtot 1.105276
 3171         h1    114    ccc     H4   3171 0.10146700   1.008000   ; qtot 1.206743
 3172         h2    114    ccc     H5   3172 0.10960400   1.008000   ; qtot 1.316347
 3173         os    114    ccc     O1   3173 -0.28650000  16.000000   ; qtot 1.029847
 3174         oh    114    ccc     O2   3174 -0.86012500  16.000000   ; qtot 0.169722
 3175         oh    114    ccc     O3   3175 -0.83772800  16.000000   ; qtot -0.668006
 3176         oh    114    ccc     O4   3176 -0.77449700  16.000000   ; qtot -1.442503
 3177         c3    114    ccc     C6   3177 0.37576500  12.010000   ; qtot -1.066738
 3178         ho    114    ccc     H6   3178 0.53656000   1.008000   ; qtot -0.530178
 3179         ho    114    ccc     H7   3179 0.49492100   1.008000   ; qtot -0.035257
 3180         ho    114    ccc     H8   3180 0.51297200   1.008000   ; qtot 0.477715
 3181         h1    114    ccc     H9   3181 0.05653400   1.008000   ; qtot 0.534249
 3182         h1    114    ccc    H10   3182 0.05653400   1.008000   ; qtot 0.590783
 3183         oh    114    ccc     O5   3183 -0.84113600  16.000000   ; qtot -0.250353
 3184         ho    114    ccc    H11   3184 0.51201600   1.008000   ; qtot 0.261663
 3185         os    114    ccc     O6   3185 -0.26013600  16.000000   ; qtot 0.001527
; residue  115 ccc rtp ccc q 0.0
 3186         c3    115    ccc     C1   3186 -0.33178800  12.010000   ; qtot -0.330261
 3187         c3    115    ccc     C2   3187 0.30606500  12.010000   ; qtot -0.024196
 3188         h1    115    ccc     H1   3188 0.11662300   1.008000   ; qtot 0.092427
 3189         h1    115    ccc     H2   3189 0.11526800   1.008000   ; qtot 0.207695
 3190         c3    115    ccc     C3   3190 0.15592700  12.010000   ; qtot 0.363622
 3191         c3    115    ccc     C4   3191 0.28383300  12.010000   ; qtot 0.647455
 3192         c3    115    ccc     C5   3192 0.32403300  12.010000   ; qtot 0.971488
 3193         h1    115    ccc     H3   3193 0.13386900   1.008000   ; qtot 1.105357
 3194         h1    115    ccc     H4   3194 0.10146700   1.008000   ; qtot 1.206824
 3195         h2    115    ccc     H5   3195 0.10960400   1.008000   ; qtot 1.316428
 3196         os    115    ccc     O1   3196 -0.28650000  16.000000   ; qtot 1.029928
 3197         oh    115    ccc     O2   3197 -0.86012500  16.000000   ; qtot 0.169803
 3198         oh    115    ccc     O3   3198 -0.83772800  16.000000   ; qtot -0.667925
 3199         oh    115    ccc     O4   3199 -0.77449700  16.000000   ; qtot -1.442422
 3200         c3    115    ccc     C6   3200 0.37576500  12.010000   ; qtot -1.066657
 3201         ho    115    ccc     H6   3201 0.53656000   1.008000   ; qtot -0.530097
 3202         ho    115    ccc     H7   3202 0.49492100   1.008000   ; qtot -0.035176
 3203         ho    115    ccc     H8   3203 0.51297200   1.008000   ; qtot 0.477796
 3204         h1    115    ccc     H9   3204 0.05653400   1.008000   ; qtot 0.534330
 3205         h1    115    ccc    H10   3205 0.05653400   1.008000   ; qtot 0.590864
 3206         oh    115    ccc     O5   3206 -0.84113600  16.000000   ; qtot -0.250272
 3207         ho    115    ccc    H11   3207 0.51201600   1.008000   ; qtot 0.261744
 3208         os    115    ccc     O6   3208 -0.26013600  16.000000   ; qtot 0.001608
; residue  116 ccc rtp ccc q 0.0
 3209         c3    116    ccc     C1   3209 -0.33178800  12.010000   ; qtot -0.330180
 3210         c3    116    ccc     C2   3210 0.30606500  12.010000   ; qtot -0.024115
 3211         h1    116    ccc     H1   3211 0.11662300   1.008000   ; qtot 0.092508
 3212         h1    116    ccc     H2   3212 0.11526800   1.008000   ; qtot 0.207776
 3213         c3    116    ccc     C3   3213 0.15592700  12.010000   ; qtot 0.363703
 3214         c3    116    ccc     C4   3214 0.28383300  12.010000   ; qtot 0.647536
 3215         c3    116    ccc     C5   3215 0.32403300  12.010000   ; qtot 0.971569
 3216         h1    116    ccc     H3   3216 0.13386900   1.008000   ; qtot 1.105438
 3217         h1    116    ccc     H4   3217 0.10146700   1.008000   ; qtot 1.206905
 3218         h2    116    ccc     H5   3218 0.10960400   1.008000   ; qtot 1.316509
 3219         os    116    ccc     O1   3219 -0.28650000  16.000000   ; qtot 1.030009
 3220         oh    116    ccc     O2   3220 -0.86012500  16.000000   ; qtot 0.169884
 3221         oh    116    ccc     O3   3221 -0.83772800  16.000000   ; qtot -0.667844
 3222         oh    116    ccc     O4   3222 -0.77449700  16.000000   ; qtot -1.442341
 3223         c3    116    ccc     C6   3223 0.37576500  12.010000   ; qtot -1.066576
 3224         ho    116    ccc     H6   3224 0.53656000   1.008000   ; qtot -0.530016
 3225         ho    116    ccc     H7   3225 0.49492100   1.008000   ; qtot -0.035095
 3226         ho    116    ccc     H8   3226 0.51297200   1.008000   ; qtot 0.477877
 3227         h1    116    ccc     H9   3227 0.05653400   1.008000   ; qtot 0.534411
 3228         h1    116    ccc    H10   3228 0.05653400   1.008000   ; qtot 0.590945
 3229         oh    116    ccc     O5   3229 -0.84113600  16.000000   ; qtot -0.250191
 3230         ho    116    ccc    H11   3230 0.51201600   1.008000   ; qtot 0.261825
 3231         os    116    ccc     O6   3231 -0.26013600  16.000000   ; qtot 0.001689
; residue  117 ccc rtp ccc q 0.0
 3232         c3    117    ccc     C1   3232 -0.33178800  12.010000   ; qtot -0.330099
 3233         c3    117    ccc     C2   3233 0.30606500  12.010000   ; qtot -0.024034
 3234         h1    117    ccc     H1   3234 0.11662300   1.008000   ; qtot 0.092589
 3235         h1    117    ccc     H2   3235 0.11526800   1.008000   ; qtot 0.207857
 3236         c3    117    ccc     C3   3236 0.15592700  12.010000   ; qtot 0.363784
 3237         c3    117    ccc     C4   3237 0.28383300  12.010000   ; qtot 0.647617
 3238         c3    117    ccc     C5   3238 0.32403300  12.010000   ; qtot 0.971650
 3239         h1    117    ccc     H3   3239 0.13386900   1.008000   ; qtot 1.105519
 3240         h1    117    ccc     H4   3240 0.10146700   1.008000   ; qtot 1.206986
 3241         h2    117    ccc     H5   3241 0.10960400   1.008000   ; qtot 1.316590
 3242         os    117    ccc     O1   3242 -0.28650000  16.000000   ; qtot 1.030090
 3243         oh    117    ccc     O2   3243 -0.86012500  16.000000   ; qtot 0.169965
 3244         oh    117    ccc     O3   3244 -0.83772800  16.000000   ; qtot -0.667763
 3245         oh    117    ccc     O4   3245 -0.77449700  16.000000   ; qtot -1.442260
 3246         c3    117    ccc     C6   3246 0.37576500  12.010000   ; qtot -1.066495
 3247         ho    117    ccc     H6   3247 0.53656000   1.008000   ; qtot -0.529935
 3248         ho    117    ccc     H7   3248 0.49492100   1.008000   ; qtot -0.035014
 3249         ho    117    ccc     H8   3249 0.51297200   1.008000   ; qtot 0.477958
 3250         h1    117    ccc     H9   3250 0.05653400   1.008000   ; qtot 0.534492
 3251         h1    117    ccc    H10   3251 0.05653400   1.008000   ; qtot 0.591026
 3252         oh    117    ccc     O5   3252 -0.84113600  16.000000   ; qtot -0.250110
 3253         ho    117    ccc    H11   3253 0.51201600   1.008000   ; qtot 0.261906
 3254         os    117    ccc     O6   3254 -0.26013600  16.000000   ; qtot 0.001770
; residue  118 ccc rtp ccc q 0.0
 3255         c3    118    ccc     C1   3255 -0.33178800  12.010000   ; qtot -0.330018
 3256         c3    118    ccc     C2   3256 0.30606500  12.010000   ; qtot -0.023953
 3257         h1    118    ccc     H1   3257 0.11662300   1.008000   ; qtot 0.092670
 3258         h1    118    ccc     H2   3258 0.11526800   1.008000   ; qtot 0.207938
 3259         c3    118    ccc     C3   3259 0.15592700  12.010000   ; qtot 0.363865
 3260         c3    118    ccc     C4   3260 0.28383300  12.010000   ; qtot 0.647698
 3261         c3    118    ccc     C5   3261 0.32403300  12.010000   ; qtot 0.971731
 3262         h1    118    ccc     H3   3262 0.13386900   1.008000   ; qtot 1.105600
 3263         h1    118    ccc     H4   3263 0.10146700   1.008000   ; qtot 1.207067
 3264         h2    118    ccc     H5   3264 0.10960400   1.008000   ; qtot 1.316671
 3265         os    118    ccc     O1   3265 -0.28650000  16.000000   ; qtot 1.030171
 3266         oh    118    ccc     O2   3266 -0.86012500  16.000000   ; qtot 0.170046
 3267         oh    118    ccc     O3   3267 -0.83772800  16.000000   ; qtot -0.667682
 3268         oh    118    ccc     O4   3268 -0.77449700  16.000000   ; qtot -1.442179
 3269         c3    118    ccc     C6   3269 0.37576500  12.010000   ; qtot -1.066414
 3270         ho    118    ccc     H6   3270 0.53656000   1.008000   ; qtot -0.529854
 3271         ho    118    ccc     H7   3271 0.49492100   1.008000   ; qtot -0.034933
 3272         ho    118    ccc     H8   3272 0.51297200   1.008000   ; qtot 0.478039
 3273         h1    118    ccc     H9   3273 0.05653400   1.008000   ; qtot 0.534573
 3274         h1    118    ccc    H10   3274 0.05653400   1.008000   ; qtot 0.591107
 3275         oh    118    ccc     O5   3275 -0.84113600  16.000000   ; qtot -0.250029
 3276         ho    118    ccc    H11   3276 0.51201600   1.008000   ; qtot 0.261987
 3277         os    118    ccc     O6   3277 -0.26013600  16.000000   ; qtot 0.001851
; residue  119 ccc rtp ccc q 0.0
 3278         c3    119    ccc     C1   3278 -0.33178800  12.010000   ; qtot -0.329937
 3279         c3    119    ccc     C2   3279 0.30606500  12.010000   ; qtot -0.023872
 3280         h1    119    ccc     H1   3280 0.11662300   1.008000   ; qtot 0.092751
 3281         h1    119    ccc     H2   3281 0.11526800   1.008000   ; qtot 0.208019
 3282         c3    119    ccc     C3   3282 0.15592700  12.010000   ; qtot 0.363946
 3283         c3    119    ccc     C4   3283 0.28383300  12.010000   ; qtot 0.647779
 3284         c3    119    ccc     C5   3284 0.32403300  12.010000   ; qtot 0.971812
 3285         h1    119    ccc     H3   3285 0.13386900   1.008000   ; qtot 1.105681
 3286         h1    119    ccc     H4   3286 0.10146700   1.008000   ; qtot 1.207148
 3287         h2    119    ccc     H5   3287 0.10960400   1.008000   ; qtot 1.316752
 3288         os    119    ccc     O1   3288 -0.28650000  16.000000   ; qtot 1.030252
 3289         oh    119    ccc     O2   3289 -0.86012500  16.000000   ; qtot 0.170127
 3290         oh    119    ccc     O3   3290 -0.83772800  16.000000   ; qtot -0.667601
 3291         oh    119    ccc     O4   3291 -0.77449700  16.000000   ; qtot -1.442098
 3292         c3    119    ccc     C6   3292 0.37576500  12.010000   ; qtot -1.066333
 3293         ho    119    ccc     H6   3293 0.53656000   1.008000   ; qtot -0.529773
 3294         ho    119    ccc     H7   3294 0.49492100   1.008000   ; qtot -0.034852
 3295         ho    119    ccc     H8   3295 0.51297200   1.008000   ; qtot 0.478120
 3296         h1    119    ccc     H9   3296 0.05653400   1.008000   ; qtot 0.534654
 3297         h1    119    ccc    H10   3297 0.05653400   1.008000   ; qtot 0.591188
 3298         oh    119    ccc     O5   3298 -0.84113600  16.000000   ; qtot -0.249948
 3299         ho    119    ccc    H11   3299 0.51201600   1.008000   ; qtot 0.262068
 3300         os    119    ccc     O6   3300 -0.26013600  16.000000   ; qtot 0.001932
; residue  120 ccc rtp ccc q 0.0
 3301         c3    120    ccc     C1   3301 -0.33178800  12.010000   ; qtot -0.329856
 3302         c3    120    ccc     C2   3302 0.30606500  12.010000   ; qtot -0.023791
 3303         h1    120    ccc     H1   3303 0.11662300   1.008000   ; qtot 0.092832
 3304         h1    120    ccc     H2   3304 0.11526800   1.008000   ; qtot 0.208100
 3305         c3    120    ccc     C3   3305 0.15592700  12.010000   ; qtot 0.364027
 3306         c3    120    ccc     C4   3306 0.28383300  12.010000   ; qtot 0.647860
 3307         c3    120    ccc     C5   3307 0.32403300  12.010000   ; qtot 0.971893
 3308         h1    120    ccc     H3   3308 0.13386900   1.008000   ; qtot 1.105762
 3309         h1    120    ccc     H4   3309 0.10146700   1.008000   ; qtot 1.207229
 3310         h2    120    ccc     H5   3310 0.10960400   1.008000   ; qtot 1.316833
 3311         os    120    ccc     O1   3311 -0.28650000  16.000000   ; qtot 1.030333
 3312         oh    120    ccc     O2   3312 -0.86012500  16.000000   ; qtot 0.170208
 3313         oh    120    ccc     O3   3313 -0.83772800  16.000000   ; qtot -0.667520
 3314         oh    120    ccc     O4   3314 -0.77449700  16.000000   ; qtot -1.442017
 3315         c3    120    ccc     C6   3315 0.37576500  12.010000   ; qtot -1.066252
 3316         ho    120    ccc     H6   3316 0.53656000   1.008000   ; qtot -0.529692
 3317         ho    120    ccc     H7   3317 0.49492100   1.008000   ; qtot -0.034771
 3318         ho    120    ccc     H8   3318 0.51297200   1.008000   ; qtot 0.478201
 3319         h1    120    ccc     H9   3319 0.05653400   1.008000   ; qtot 0.534735
 3320         h1    120    ccc    H10   3320 0.05653400   1.008000   ; qtot 0.591269
 3321         oh    120    ccc     O5   3321 -0.84113600  16.000000   ; qtot -0.249867
 3322         ho    120    ccc    H11   3322 0.51201600   1.008000   ; qtot 0.262149
 3323         os    120    ccc     O6   3323 -0.26013600  16.000000   ; qtot 0.002013
; residue  121 ccc rtp ccc q 0.0
 3324         c3    121    ccc     C1   3324 -0.33178800  12.010000   ; qtot -0.329775
 3325         c3    121    ccc     C2   3325 0.30606500  12.010000   ; qtot -0.023710
 3326         h1    121    ccc     H1   3326 0.11662300   1.008000   ; qtot 0.092913
 3327         h1    121    ccc     H2   3327 0.11526800   1.008000   ; qtot 0.208181
 3328         c3    121    ccc     C3   3328 0.15592700  12.010000   ; qtot 0.364108
 3329         c3    121    ccc     C4   3329 0.28383300  12.010000   ; qtot 0.647941
 3330         c3    121    ccc     C5   3330 0.32403300  12.010000   ; qtot 0.971974
 3331         h1    121    ccc     H3   3331 0.13386900   1.008000   ; qtot 1.105843
 3332         h1    121    ccc     H4   3332 0.10146700   1.008000   ; qtot 1.207310
 3333         h2    121    ccc     H5   3333 0.10960400   1.008000   ; qtot 1.316914
 3334         os    121    ccc     O1   3334 -0.28650000  16.000000   ; qtot 1.030414
 3335         oh    121    ccc     O2   3335 -0.86012500  16.000000   ; qtot 0.170289
 3336         oh    121    ccc     O3   3336 -0.83772800  16.000000   ; qtot -0.667439
 3337         oh    121    ccc     O4   3337 -0.77449700  16.000000   ; qtot -1.441936
 3338         c3    121    ccc     C6   3338 0.37576500  12.010000   ; qtot -1.066171
 3339         ho    121    ccc     H6   3339 0.53656000   1.008000   ; qtot -0.529611
 3340         ho    121    ccc     H7   3340 0.49492100   1.008000   ; qtot -0.034690
 3341         ho    121    ccc     H8   3341 0.51297200   1.008000   ; qtot 0.478282
 3342         h1    121    ccc     H9   3342 0.05653400   1.008000   ; qtot 0.534816
 3343         h1    121    ccc    H10   3343 0.05653400   1.008000   ; qtot 0.591350
 3344         oh    121    ccc     O5   3344 -0.84113600  16.000000   ; qtot -0.249786
 3345         ho    121    ccc    H11   3345 0.51201600   1.008000   ; qtot 0.262230
 3346         os    121    ccc     O6   3346 -0.26013600  16.000000   ; qtot 0.002094
; residue  122 ccc rtp ccc q 0.0
 3347         c3    122    ccc     C1   3347 -0.33178800  12.010000   ; qtot -0.329694
 3348         c3    122    ccc     C2   3348 0.30606500  12.010000   ; qtot -0.023629
 3349         h1    122    ccc     H1   3349 0.11662300   1.008000   ; qtot 0.092994
 3350         h1    122    ccc     H2   3350 0.11526800   1.008000   ; qtot 0.208262
 3351         c3    122    ccc     C3   3351 0.15592700  12.010000   ; qtot 0.364189
 3352         c3    122    ccc     C4   3352 0.28383300  12.010000   ; qtot 0.648022
 3353         c3    122    ccc     C5   3353 0.32403300  12.010000   ; qtot 0.972055
 3354         h1    122    ccc     H3   3354 0.13386900   1.008000   ; qtot 1.105924
 3355         h1    122    ccc     H4   3355 0.10146700   1.008000   ; qtot 1.207391
 3356         h2    122    ccc     H5   3356 0.10960400   1.008000   ; qtot 1.316995
 3357         os    122    ccc     O1   3357 -0.28650000  16.000000   ; qtot 1.030495
 3358         oh    122    ccc     O2   3358 -0.86012500  16.000000   ; qtot 0.170370
 3359         oh    122    ccc     O3   3359 -0.83772800  16.000000   ; qtot -0.667358
 3360         oh    122    ccc     O4   3360 -0.77449700  16.000000   ; qtot -1.441855
 3361         c3    122    ccc     C6   3361 0.37576500  12.010000   ; qtot -1.066090
 3362         ho    122    ccc     H6   3362 0.53656000   1.008000   ; qtot -0.529530
 3363         ho    122    ccc     H7   3363 0.49492100   1.008000   ; qtot -0.034609
 3364         ho    122    ccc     H8   3364 0.51297200   1.008000   ; qtot 0.478363
 3365         h1    122    ccc     H9   3365 0.05653400   1.008000   ; qtot 0.534897
 3366         h1    122    ccc    H10   3366 0.05653400   1.008000   ; qtot 0.591431
 3367         oh    122    ccc     O5   3367 -0.84113600  16.000000   ; qtot -0.249705
 3368         ho    122    ccc    H11   3368 0.51201600   1.008000   ; qtot 0.262311
 3369         os    122    ccc     O6   3369 -0.26013600  16.000000   ; qtot 0.002175
; residue  123 ccc rtp ccc q 0.0
 3370         c3    123    ccc     C1   3370 -0.33178800  12.010000   ; qtot -0.329613
 3371         c3    123    ccc     C2   3371 0.30606500  12.010000   ; qtot -0.023548
 3372         h1    123    ccc     H1   3372 0.11662300   1.008000   ; qtot 0.093075
 3373         h1    123    ccc     H2   3373 0.11526800   1.008000   ; qtot 0.208343
 3374         c3    123    ccc     C3   3374 0.15592700  12.010000   ; qtot 0.364270
 3375         c3    123    ccc     C4   3375 0.28383300  12.010000   ; qtot 0.648103
 3376         c3    123    ccc     C5   3376 0.32403300  12.010000   ; qtot 0.972136
 3377         h1    123    ccc     H3   3377 0.13386900   1.008000   ; qtot 1.106005
 3378         h1    123    ccc     H4   3378 0.10146700   1.008000   ; qtot 1.207472
 3379         h2    123    ccc     H5   3379 0.10960400   1.008000   ; qtot 1.317076
 3380         os    123    ccc     O1   3380 -0.28650000  16.000000   ; qtot 1.030576
 3381         oh    123    ccc     O2   3381 -0.86012500  16.000000   ; qtot 0.170451
 3382         oh    123    ccc     O3   3382 -0.83772800  16.000000   ; qtot -0.667277
 3383         oh    123    ccc     O4   3383 -0.77449700  16.000000   ; qtot -1.441774
 3384         c3    123    ccc     C6   3384 0.37576500  12.010000   ; qtot -1.066009
 3385         ho    123    ccc     H6   3385 0.53656000   1.008000   ; qtot -0.529449
 3386         ho    123    ccc     H7   3386 0.49492100   1.008000   ; qtot -0.034528
 3387         ho    123    ccc     H8   3387 0.51297200   1.008000   ; qtot 0.478444
 3388         h1    123    ccc     H9   3388 0.05653400   1.008000   ; qtot 0.534978
 3389         h1    123    ccc    H10   3389 0.05653400   1.008000   ; qtot 0.591512
 3390         oh    123    ccc     O5   3390 -0.84113600  16.000000   ; qtot -0.249624
 3391         ho    123    ccc    H11   3391 0.51201600   1.008000   ; qtot 0.262392
 3392         os    123    ccc     O6   3392 -0.26013600  16.000000   ; qtot 0.002256
; residue  124 ccc rtp ccc q 0.0
 3393         c3    124    ccc     C1   3393 -0.33178800  12.010000   ; qtot -0.329532
 3394         c3    124    ccc     C2   3394 0.30606500  12.010000   ; qtot -0.023467
 3395         h1    124    ccc     H1   3395 0.11662300   1.008000   ; qtot 0.093156
 3396         h1    124    ccc     H2   3396 0.11526800   1.008000   ; qtot 0.208424
 3397         c3    124    ccc     C3   3397 0.15592700  12.010000   ; qtot 0.364351
 3398         c3    124    ccc     C4   3398 0.28383300  12.010000   ; qtot 0.648184
 3399         c3    124    ccc     C5   3399 0.32403300  12.010000   ; qtot 0.972217
 3400         h1    124    ccc     H3   3400 0.13386900   1.008000   ; qtot 1.106086
 3401         h1    124    ccc     H4   3401 0.10146700   1.008000   ; qtot 1.207553
 3402         h2    124    ccc     H5   3402 0.10960400   1.008000   ; qtot 1.317157
 3403         os    124    ccc     O1   3403 -0.28650000  16.000000   ; qtot 1.030657
 3404         oh    124    ccc     O2   3404 -0.86012500  16.000000   ; qtot 0.170532
 3405         oh    124    ccc     O3   3405 -0.83772800  16.000000   ; qtot -0.667196
 3406         oh    124    ccc     O4   3406 -0.77449700  16.000000   ; qtot -1.441693
 3407         c3    124    ccc     C6   3407 0.37576500  12.010000   ; qtot -1.065928
 3408         ho    124    ccc     H6   3408 0.53656000   1.008000   ; qtot -0.529368
 3409         ho    124    ccc     H7   3409 0.49492100   1.008000   ; qtot -0.034447
 3410         ho    124    ccc     H8   3410 0.51297200   1.008000   ; qtot 0.478525
 3411         h1    124    ccc     H9   3411 0.05653400   1.008000   ; qtot 0.535059
 3412         h1    124    ccc    H10   3412 0.05653400   1.008000   ; qtot 0.591593
 3413         oh    124    ccc     O5   3413 -0.84113600  16.000000   ; qtot -0.249543
 3414         ho    124    ccc    H11   3414 0.51201600   1.008000   ; qtot 0.262473
 3415         os    124    ccc     O6   3415 -0.26013600  16.000000   ; qtot 0.002337
; residue  125 ccc rtp ccc q 0.0
 3416         c3    125    ccc     C1   3416 -0.33178800  12.010000   ; qtot -0.329451
 3417         c3    125    ccc     C2   3417 0.30606500  12.010000   ; qtot -0.023386
 3418         h1    125    ccc     H1   3418 0.11662300   1.008000   ; qtot 0.093237
 3419         h1    125    ccc     H2   3419 0.11526800   1.008000   ; qtot 0.208505
 3420         c3    125    ccc     C3   3420 0.15592700  12.010000   ; qtot 0.364432
 3421         c3    125    ccc     C4   3421 0.28383300  12.010000   ; qtot 0.648265
 3422         c3    125    ccc     C5   3422 0.32403300  12.010000   ; qtot 0.972298
 3423         h1    125    ccc     H3   3423 0.13386900   1.008000   ; qtot 1.106167
 3424         h1    125    ccc     H4   3424 0.10146700   1.008000   ; qtot 1.207634
 3425         h2    125    ccc     H5   3425 0.10960400   1.008000   ; qtot 1.317238
 3426         os    125    ccc     O1   3426 -0.28650000  16.000000   ; qtot 1.030738
 3427         oh    125    ccc     O2   3427 -0.86012500  16.000000   ; qtot 0.170613
 3428         oh    125    ccc     O3   3428 -0.83772800  16.000000   ; qtot -0.667115
 3429         oh    125    ccc     O4   3429 -0.77449700  16.000000   ; qtot -1.441612
 3430         c3    125    ccc     C6   3430 0.37576500  12.010000   ; qtot -1.065847
 3431         ho    125    ccc     H6   3431 0.53656000   1.008000   ; qtot -0.529287
 3432         ho    125    ccc     H7   3432 0.49492100   1.008000   ; qtot -0.034366
 3433         ho    125    ccc     H8   3433 0.51297200   1.008000   ; qtot 0.478606
 3434         h1    125    ccc     H9   3434 0.05653400   1.008000   ; qtot 0.535140
 3435         h1    125    ccc    H10   3435 0.05653400   1.008000   ; qtot 0.591674
 3436         oh    125    ccc     O5   3436 -0.84113600  16.000000   ; qtot -0.249462
 3437         ho    125    ccc    H11   3437 0.51201600   1.008000   ; qtot 0.262554
 3438         os    125    ccc     O6   3438 -0.26013600  16.000000   ; qtot 0.002418
; residue  126 ccc rtp ccc q 0.0
 3439         c3    126    ccc     C1   3439 -0.33178800  12.010000   ; qtot -0.329370
 3440         c3    126    ccc     C2   3440 0.30606500  12.010000   ; qtot -0.023305
 3441         h1    126    ccc     H1   3441 0.11662300   1.008000   ; qtot 0.093318
 3442         h1    126    ccc     H2   3442 0.11526800   1.008000   ; qtot 0.208586
 3443         c3    126    ccc     C3   3443 0.15592700  12.010000   ; qtot 0.364513
 3444         c3    126    ccc     C4   3444 0.28383300  12.010000   ; qtot 0.648346
 3445         c3    126    ccc     C5   3445 0.32403300  12.010000   ; qtot 0.972379
 3446         h1    126    ccc     H3   3446 0.13386900   1.008000   ; qtot 1.106248
 3447         h1    126    ccc     H4   3447 0.10146700   1.008000   ; qtot 1.207715
 3448         h2    126    ccc     H5   3448 0.10960400   1.008000   ; qtot 1.317319
 3449         os    126    ccc     O1   3449 -0.28650000  16.000000   ; qtot 1.030819
 3450         oh    126    ccc     O2   3450 -0.86012500  16.000000   ; qtot 0.170694
 3451         oh    126    ccc     O3   3451 -0.83772800  16.000000   ; qtot -0.667034
 3452         oh    126    ccc     O4   3452 -0.77449700  16.000000   ; qtot -1.441531
 3453         c3    126    ccc     C6   3453 0.37576500  12.010000   ; qtot -1.065766
 3454         ho    126    ccc     H6   3454 0.53656000   1.008000   ; qtot -0.529206
 3455         ho    126    ccc     H7   3455 0.49492100   1.008000   ; qtot -0.034285
 3456         ho    126    ccc     H8   3456 0.51297200   1.008000   ; qtot 0.478687
 3457         h1    126    ccc     H9   3457 0.05653400   1.008000   ; qtot 0.535221
 3458         h1    126    ccc    H10   3458 0.05653400   1.008000   ; qtot 0.591755
 3459         oh    126    ccc     O5   3459 -0.84113600  16.000000   ; qtot -0.249381
 3460         ho    126    ccc    H11   3460 0.51201600   1.008000   ; qtot 0.262635
 3461         os    126    ccc     O6   3461 -0.26013600  16.000000   ; qtot 0.002499
; residue  127 ccc rtp ccc q 0.0
 3462         c3    127    ccc     C1   3462 -0.33178800  12.010000   ; qtot -0.329289
 3463         c3    127    ccc     C2   3463 0.30606500  12.010000   ; qtot -0.023224
 3464         h1    127    ccc     H1   3464 0.11662300   1.008000   ; qtot 0.093399
 3465         h1    127    ccc     H2   3465 0.11526800   1.008000   ; qtot 0.208667
 3466         c3    127    ccc     C3   3466 0.15592700  12.010000   ; qtot 0.364594
 3467         c3    127    ccc     C4   3467 0.28383300  12.010000   ; qtot 0.648427
 3468         c3    127    ccc     C5   3468 0.32403300  12.010000   ; qtot 0.972460
 3469         h1    127    ccc     H3   3469 0.13386900   1.008000   ; qtot 1.106329
 3470         h1    127    ccc     H4   3470 0.10146700   1.008000   ; qtot 1.207796
 3471         h2    127    ccc     H5   3471 0.10960400   1.008000   ; qtot 1.317400
 3472         os    127    ccc     O1   3472 -0.28650000  16.000000   ; qtot 1.030900
 3473         oh    127    ccc     O2   3473 -0.86012500  16.000000   ; qtot 0.170775
 3474         oh    127    ccc     O3   3474 -0.83772800  16.000000   ; qtot -0.666953
 3475         oh    127    ccc     O4   3475 -0.77449700  16.000000   ; qtot -1.441450
 3476         c3    127    ccc     C6   3476 0.37576500  12.010000   ; qtot -1.065685
 3477         ho    127    ccc     H6   3477 0.53656000   1.008000   ; qtot -0.529125
 3478         ho    127    ccc     H7   3478 0.49492100   1.008000   ; qtot -0.034204
 3479         ho    127    ccc     H8   3479 0.51297200   1.008000   ; qtot 0.478768
 3480         h1    127    ccc     H9   3480 0.05653400   1.008000   ; qtot 0.535302
 3481         h1    127    ccc    H10   3481 0.05653400   1.008000   ; qtot 0.591836
 3482         oh    127    ccc     O5   3482 -0.84113600  16.000000   ; qtot -0.249300
 3483         ho    127    ccc    H11   3483 0.51201600   1.008000   ; qtot 0.262716
 3484         os    127    ccc     O6   3484 -0.26013600  16.000000   ; qtot 0.002580
; residue  128 ccc rtp ccc q 0.0
 3485         c3    128    ccc     C1   3485 -0.33178800  12.010000   ; qtot -0.329208
 3486         c3    128    ccc     C2   3486 0.30606500  12.010000   ; qtot -0.023143
 3487         h1    128    ccc     H1   3487 0.11662300   1.008000   ; qtot 0.093480
 3488         h1    128    ccc     H2   3488 0.11526800   1.008000   ; qtot 0.208748
 3489         c3    128    ccc     C3   3489 0.15592700  12.010000   ; qtot 0.364675
 3490         c3    128    ccc     C4   3490 0.28383300  12.010000   ; qtot 0.648508
 3491         c3    128    ccc     C5   3491 0.32403300  12.010000   ; qtot 0.972541
 3492         h1    128    ccc     H3   3492 0.13386900   1.008000   ; qtot 1.106410
 3493         h1    128    ccc     H4   3493 0.10146700   1.008000   ; qtot 1.207877
 3494         h2    128    ccc     H5   3494 0.10960400   1.008000   ; qtot 1.317481
 3495         os    128    ccc     O1   3495 -0.28650000  16.000000   ; qtot 1.030981
 3496         oh    128    ccc     O2   3496 -0.86012500  16.000000   ; qtot 0.170856
 3497         oh    128    ccc     O3   3497 -0.83772800  16.000000   ; qtot -0.666872
 3498         oh    128    ccc     O4   3498 -0.77449700  16.000000   ; qtot -1.441369
 3499         c3    128    ccc     C6   3499 0.37576500  12.010000   ; qtot -1.065604
 3500         ho    128    ccc     H6   3500 0.53656000   1.008000   ; qtot -0.529044
 3501         ho    128    ccc     H7   3501 0.49492100   1.008000   ; qtot -0.034123
 3502         ho    128    ccc     H8   3502 0.51297200   1.008000   ; qtot 0.478849
 3503         h1    128    ccc     H9   3503 0.05653400   1.008000   ; qtot 0.535383
 3504         h1    128    ccc    H10   3504 0.05653400   1.008000   ; qtot 0.591917
 3505         oh    128    ccc     O5   3505 -0.84113600  16.000000   ; qtot -0.249219
 3506         ho    128    ccc    H11   3506 0.51201600   1.008000   ; qtot 0.262798
 3507         os    128    ccc     O6   3507 -0.26013600  16.000000   ; qtot 0.002662
; residue  129 ccc rtp ccc q 0.0
 3508         c3    129    ccc     C1   3508 -0.33178800  12.010000   ; qtot -0.329126
 3509         c3    129    ccc     C2   3509 0.30606500  12.010000   ; qtot -0.023061
 3510         h1    129    ccc     H1   3510 0.11662300   1.008000   ; qtot 0.093562
 3511         h1    129    ccc     H2   3511 0.11526800   1.008000   ; qtot 0.208830
 3512         c3    129    ccc     C3   3512 0.15592700  12.010000   ; qtot 0.364757
 3513         c3    129    ccc     C4   3513 0.28383300  12.010000   ; qtot 0.648590
 3514         c3    129    ccc     C5   3514 0.32403300  12.010000   ; qtot 0.972623
 3515         h1    129    ccc     H3   3515 0.13386900   1.008000   ; qtot 1.106492
 3516         h1    129    ccc     H4   3516 0.10146700   1.008000   ; qtot 1.207959
 3517         h2    129    ccc     H5   3517 0.10960400   1.008000   ; qtot 1.317563
 3518         os    129    ccc     O1   3518 -0.28650000  16.000000   ; qtot 1.031063
 3519         oh    129    ccc     O2   3519 -0.86012500  16.000000   ; qtot 0.170937
 3520         oh    129    ccc     O3   3520 -0.83772800  16.000000   ; qtot -0.666790
 3521         oh    129    ccc     O4   3521 -0.77449700  16.000000   ; qtot -1.441287
 3522         c3    129    ccc     C6   3522 0.37576500  12.010000   ; qtot -1.065522
 3523         ho    129    ccc     H6   3523 0.53656000   1.008000   ; qtot -0.528962
 3524         ho    129    ccc     H7   3524 0.49492100   1.008000   ; qtot -0.034041
 3525         ho    129    ccc     H8   3525 0.51297200   1.008000   ; qtot 0.478931
 3526         h1    129    ccc     H9   3526 0.05653400   1.008000   ; qtot 0.535465
 3527         h1    129    ccc    H10   3527 0.05653400   1.008000   ; qtot 0.591999
 3528         oh    129    ccc     O5   3528 -0.84113600  16.000000   ; qtot -0.249137
 3529         ho    129    ccc    H11   3529 0.51201600   1.008000   ; qtot 0.262879
 3530         os    129    ccc     O6   3530 -0.26013600  16.000000   ; qtot 0.002743
; residue  130 ccc rtp ccc q 0.0
 3531         c3    130    ccc     C1   3531 -0.33178800  12.010000   ; qtot -0.329045
 3532         c3    130    ccc     C2   3532 0.30606500  12.010000   ; qtot -0.022980
 3533         h1    130    ccc     H1   3533 0.11662300   1.008000   ; qtot 0.093643
 3534         h1    130    ccc     H2   3534 0.11526800   1.008000   ; qtot 0.208911
 3535         c3    130    ccc     C3   3535 0.15592700  12.010000   ; qtot 0.364838
 3536         c3    130    ccc     C4   3536 0.28383300  12.010000   ; qtot 0.648671
 3537         c3    130    ccc     C5   3537 0.32403300  12.010000   ; qtot 0.972704
 3538         h1    130    ccc     H3   3538 0.13386900   1.008000   ; qtot 1.106573
 3539         h1    130    ccc     H4   3539 0.10146700   1.008000   ; qtot 1.208040
 3540         h2    130    ccc     H5   3540 0.10960400   1.008000   ; qtot 1.317644
 3541         os    130    ccc     O1   3541 -0.28650000  16.000000   ; qtot 1.031144
 3542         oh    130    ccc     O2   3542 -0.86012500  16.000000   ; qtot 0.171019
 3543         oh    130    ccc     O3   3543 -0.83772800  16.000000   ; qtot -0.666709
 3544         oh    130    ccc     O4   3544 -0.77449700  16.000000   ; qtot -1.441206
 3545         c3    130    ccc     C6   3545 0.37576500  12.010000   ; qtot -1.065441
 3546         ho    130    ccc     H6   3546 0.53656000   1.008000   ; qtot -0.528881
 3547         ho    130    ccc     H7   3547 0.49492100   1.008000   ; qtot -0.033960
 3548         ho    130    ccc     H8   3548 0.51297200   1.008000   ; qtot 0.479012
 3549         h1    130    ccc     H9   3549 0.05653400   1.008000   ; qtot 0.535546
 3550         h1    130    ccc    H10   3550 0.05653400   1.008000   ; qtot 0.592080
 3551         oh    130    ccc     O5   3551 -0.84113600  16.000000   ; qtot -0.249056
 3552         ho    130    ccc    H11   3552 0.51201600   1.008000   ; qtot 0.262960
 3553         os    130    ccc     O6   3553 -0.26013600  16.000000   ; qtot 0.002824
; residue  131 ccc rtp ccc q 0.0
 3554         c3    131    ccc     C1   3554 -0.33178800  12.010000   ; qtot -0.328964
 3555         c3    131    ccc     C2   3555 0.30606500  12.010000   ; qtot -0.022899
 3556         h1    131    ccc     H1   3556 0.11662300   1.008000   ; qtot 0.093724
 3557         h1    131    ccc     H2   3557 0.11526800   1.008000   ; qtot 0.208992
 3558         c3    131    ccc     C3   3558 0.15592700  12.010000   ; qtot 0.364919
 3559         c3    131    ccc     C4   3559 0.28383300  12.010000   ; qtot 0.648752
 3560         c3    131    ccc     C5   3560 0.32403300  12.010000   ; qtot 0.972785
 3561         h1    131    ccc     H3   3561 0.13386900   1.008000   ; qtot 1.106654
 3562         h1    131    ccc     H4   3562 0.10146700   1.008000   ; qtot 1.208121
 3563         h2    131    ccc     H5   3563 0.10960400   1.008000   ; qtot 1.317725
 3564         os    131    ccc     O1   3564 -0.28650000  16.000000   ; qtot 1.031225
 3565         oh    131    ccc     O2   3565 -0.86012500  16.000000   ; qtot 0.171100
 3566         oh    131    ccc     O3   3566 -0.83772800  16.000000   ; qtot -0.666628
 3567         oh    131    ccc     O4   3567 -0.77449700  16.000000   ; qtot -1.441125
 3568         c3    131    ccc     C6   3568 0.37576500  12.010000   ; qtot -1.065360
 3569         ho    131    ccc     H6   3569 0.53656000   1.008000   ; qtot -0.528800
 3570         ho    131    ccc     H7   3570 0.49492100   1.008000   ; qtot -0.033879
 3571         ho    131    ccc     H8   3571 0.51297200   1.008000   ; qtot 0.479093
 3572         h1    131    ccc     H9   3572 0.05653400   1.008000   ; qtot 0.535627
 3573         h1    131    ccc    H10   3573 0.05653400   1.008000   ; qtot 0.592161
 3574         oh    131    ccc     O5   3574 -0.84113600  16.000000   ; qtot -0.248975
 3575         ho    131    ccc    H11   3575 0.51201600   1.008000   ; qtot 0.263041
 3576         os    131    ccc     O6   3576 -0.26013600  16.000000   ; qtot 0.002905
; residue  132 ccc rtp ccc q 0.0
 3577         c3    132    ccc     C1   3577 -0.33178800  12.010000   ; qtot -0.328883
 3578         c3    132    ccc     C2   3578 0.30606500  12.010000   ; qtot -0.022818
 3579         h1    132    ccc     H1   3579 0.11662300   1.008000   ; qtot 0.093805
 3580         h1    132    ccc     H2   3580 0.11526800   1.008000   ; qtot 0.209073
 3581         c3    132    ccc     C3   3581 0.15592700  12.010000   ; qtot 0.365000
 3582         c3    132    ccc     C4   3582 0.28383300  12.010000   ; qtot 0.648833
 3583         c3    132    ccc     C5   3583 0.32403300  12.010000   ; qtot 0.972866
 3584         h1    132    ccc     H3   3584 0.13386900   1.008000   ; qtot 1.106735
 3585         h1    132    ccc     H4   3585 0.10146700   1.008000   ; qtot 1.208202
 3586         h2    132    ccc     H5   3586 0.10960400   1.008000   ; qtot 1.317806
 3587         os    132    ccc     O1   3587 -0.28650000  16.000000   ; qtot 1.031306
 3588         oh    132    ccc     O2   3588 -0.86012500  16.000000   ; qtot 0.171181
 3589         oh    132    ccc     O3   3589 -0.83772800  16.000000   ; qtot -0.666547
 3590         oh    132    ccc     O4   3590 -0.77449700  16.000000   ; qtot -1.441044
 3591         c3    132    ccc     C6   3591 0.37576500  12.010000   ; qtot -1.065279
 3592         ho    132    ccc     H6   3592 0.53656000   1.008000   ; qtot -0.528719
 3593         ho    132    ccc     H7   3593 0.49492100   1.008000   ; qtot -0.033798
 3594         ho    132    ccc     H8   3594 0.51297200   1.008000   ; qtot 0.479174
 3595         h1    132    ccc     H9   3595 0.05653400   1.008000   ; qtot 0.535708
 3596         h1    132    ccc    H10   3596 0.05653400   1.008000   ; qtot 0.592242
 3597         oh    132    ccc     O5   3597 -0.84113600  16.000000   ; qtot -0.248894
 3598         ho    132    ccc    H11   3598 0.51201600   1.008000   ; qtot 0.263122
 3599         os    132    ccc     O6   3599 -0.26013600  16.000000   ; qtot 0.002986
; residue  133 ccc rtp ccc q 0.0
 3600         c3    133    ccc     C1   3600 -0.33178800  12.010000   ; qtot -0.328802
 3601         c3    133    ccc     C2   3601 0.30606500  12.010000   ; qtot -0.022737
 3602         h1    133    ccc     H1   3602 0.11662300   1.008000   ; qtot 0.093886
 3603         h1    133    ccc     H2   3603 0.11526800   1.008000   ; qtot 0.209154
 3604         c3    133    ccc     C3   3604 0.15592700  12.010000   ; qtot 0.365081
 3605         c3    133    ccc     C4   3605 0.28383300  12.010000   ; qtot 0.648914
 3606         c3    133    ccc     C5   3606 0.32403300  12.010000   ; qtot 0.972947
 3607         h1    133    ccc     H3   3607 0.13386900   1.008000   ; qtot 1.106816
 3608         h1    133    ccc     H4   3608 0.10146700   1.008000   ; qtot 1.208283
 3609         h2    133    ccc     H5   3609 0.10960400   1.008000   ; qtot 1.317887
 3610         os    133    ccc     O1   3610 -0.28650000  16.000000   ; qtot 1.031387
 3611         oh    133    ccc     O2   3611 -0.86012500  16.000000   ; qtot 0.171262
 3612         oh    133    ccc     O3   3612 -0.83772800  16.000000   ; qtot -0.666466
 3613         oh    133    ccc     O4   3613 -0.77449700  16.000000   ; qtot -1.440963
 3614         c3    133    ccc     C6   3614 0.37576500  12.010000   ; qtot -1.065198
 3615         ho    133    ccc     H6   3615 0.53656000   1.008000   ; qtot -0.528638
 3616         ho    133    ccc     H7   3616 0.49492100   1.008000   ; qtot -0.033717
 3617         ho    133    ccc     H8   3617 0.51297200   1.008000   ; qtot 0.479255
 3618         h1    133    ccc     H9   3618 0.05653400   1.008000   ; qtot 0.535789
 3619         h1    133    ccc    H10   3619 0.05653400   1.008000   ; qtot 0.592323
 3620         oh    133    ccc     O5   3620 -0.84113600  16.000000   ; qtot -0.248813
 3621         ho    133    ccc    H11   3621 0.51201600   1.008000   ; qtot 0.263203
 3622         os    133    ccc     O6   3622 -0.26013600  16.000000   ; qtot 0.003067
; residue  134 ccc rtp ccc q 0.0
 3623         c3    134    ccc     C1   3623 -0.33178800  12.010000   ; qtot -0.328721
 3624         c3    134    ccc     C2   3624 0.30606500  12.010000   ; qtot -0.022656
 3625         h1    134    ccc     H1   3625 0.11662300   1.008000   ; qtot 0.093967
 3626         h1    134    ccc     H2   3626 0.11526800   1.008000   ; qtot 0.209235
 3627         c3    134    ccc     C3   3627 0.15592700  12.010000   ; qtot 0.365162
 3628         c3    134    ccc     C4   3628 0.28383300  12.010000   ; qtot 0.648995
 3629         c3    134    ccc     C5   3629 0.32403300  12.010000   ; qtot 0.973028
 3630         h1    134    ccc     H3   3630 0.13386900   1.008000   ; qtot 1.106897
 3631         h1    134    ccc     H4   3631 0.10146700   1.008000   ; qtot 1.208364
 3632         h2    134    ccc     H5   3632 0.10960400   1.008000   ; qtot 1.317968
 3633         os    134    ccc     O1   3633 -0.28650000  16.000000   ; qtot 1.031468
 3634         oh    134    ccc     O2   3634 -0.86012500  16.000000   ; qtot 0.171343
 3635         oh    134    ccc     O3   3635 -0.83772800  16.000000   ; qtot -0.666385
 3636         oh    134    ccc     O4   3636 -0.77449700  16.000000   ; qtot -1.440882
 3637         c3    134    ccc     C6   3637 0.37576500  12.010000   ; qtot -1.065117
 3638         ho    134    ccc     H6   3638 0.53656000   1.008000   ; qtot -0.528557
 3639         ho    134    ccc     H7   3639 0.49492100   1.008000   ; qtot -0.033636
 3640         ho    134    ccc     H8   3640 0.51297200   1.008000   ; qtot 0.479336
 3641         h1    134    ccc     H9   3641 0.05653400   1.008000   ; qtot 0.535870
 3642         h1    134    ccc    H10   3642 0.05653400   1.008000   ; qtot 0.592404
 3643         oh    134    ccc     O5   3643 -0.84113600  16.000000   ; qtot -0.248732
 3644         ho    134    ccc    H11   3644 0.51201600   1.008000   ; qtot 0.263284
 3645         os    134    ccc     O6   3645 -0.26013600  16.000000   ; qtot 0.003148
; residue  135 ccc rtp ccc q 0.0
 3646         c3    135    ccc     C1   3646 -0.33178800  12.010000   ; qtot -0.328640
 3647         c3    135    ccc     C2   3647 0.30606500  12.010000   ; qtot -0.022575
 3648         h1    135    ccc     H1   3648 0.11662300   1.008000   ; qtot 0.094048
 3649         h1    135    ccc     H2   3649 0.11526800   1.008000   ; qtot 0.209316
 3650         c3    135    ccc     C3   3650 0.15592700  12.010000   ; qtot 0.365243
 3651         c3    135    ccc     C4   3651 0.28383300  12.010000   ; qtot 0.649076
 3652         c3    135    ccc     C5   3652 0.32403300  12.010000   ; qtot 0.973109
 3653         h1    135    ccc     H3   3653 0.13386900   1.008000   ; qtot 1.106978
 3654         h1    135    ccc     H4   3654 0.10146700   1.008000   ; qtot 1.208445
 3655         h2    135    ccc     H5   3655 0.10960400   1.008000   ; qtot 1.318049
 3656         os    135    ccc     O1   3656 -0.28650000  16.000000   ; qtot 1.031549
 3657         oh    135    ccc     O2   3657 -0.86012500  16.000000   ; qtot 0.171424
 3658         oh    135    ccc     O3   3658 -0.83772800  16.000000   ; qtot -0.666304
 3659         oh    135    ccc     O4   3659 -0.77449700  16.000000   ; qtot -1.440801
 3660         c3    135    ccc     C6   3660 0.37576500  12.010000   ; qtot -1.065036
 3661         ho    135    ccc     H6   3661 0.53656000   1.008000   ; qtot -0.528476
 3662         ho    135    ccc     H7   3662 0.49492100   1.008000   ; qtot -0.033555
 3663         ho    135    ccc     H8   3663 0.51297200   1.008000   ; qtot 0.479417
 3664         h1    135    ccc     H9   3664 0.05653400   1.008000   ; qtot 0.535951
 3665         h1    135    ccc    H10   3665 0.05653400   1.008000   ; qtot 0.592485
 3666         oh    135    ccc     O5   3666 -0.84113600  16.000000   ; qtot -0.248651
 3667         ho    135    ccc    H11   3667 0.51201600   1.008000   ; qtot 0.263365
 3668         os    135    ccc     O6   3668 -0.26013600  16.000000   ; qtot 0.003229
; residue  136 ccc rtp ccc q 0.0
 3669         c3    136    ccc     C1   3669 -0.33178800  12.010000   ; qtot -0.328559
 3670         c3    136    ccc     C2   3670 0.30606500  12.010000   ; qtot -0.022494
 3671         h1    136    ccc     H1   3671 0.11662300   1.008000   ; qtot 0.094129
 3672         h1    136    ccc     H2   3672 0.11526800   1.008000   ; qtot 0.209397
 3673         c3    136    ccc     C3   3673 0.15592700  12.010000   ; qtot 0.365324
 3674         c3    136    ccc     C4   3674 0.28383300  12.010000   ; qtot 0.649157
 3675         c3    136    ccc     C5   3675 0.32403300  12.010000   ; qtot 0.973190
 3676         h1    136    ccc     H3   3676 0.13386900   1.008000   ; qtot 1.107059
 3677         h1    136    ccc     H4   3677 0.10146700   1.008000   ; qtot 1.208526
 3678         h2    136    ccc     H5   3678 0.10960400   1.008000   ; qtot 1.318130
 3679         os    136    ccc     O1   3679 -0.28650000  16.000000   ; qtot 1.031630
 3680         oh    136    ccc     O2   3680 -0.86012500  16.000000   ; qtot 0.171505
 3681         oh    136    ccc     O3   3681 -0.83772800  16.000000   ; qtot -0.666223
 3682         oh    136    ccc     O4   3682 -0.77449700  16.000000   ; qtot -1.440720
 3683         c3    136    ccc     C6   3683 0.37576500  12.010000   ; qtot -1.064955
 3684         ho    136    ccc     H6   3684 0.53656000   1.008000   ; qtot -0.528395
 3685         ho    136    ccc     H7   3685 0.49492100   1.008000   ; qtot -0.033474
 3686         ho    136    ccc     H8   3686 0.51297200   1.008000   ; qtot 0.479498
 3687         h1    136    ccc     H9   3687 0.05653400   1.008000   ; qtot 0.536032
 3688         h1    136    ccc    H10   3688 0.05653400   1.008000   ; qtot 0.592566
 3689         oh    136    ccc     O5   3689 -0.84113600  16.000000   ; qtot -0.248570
 3690         ho    136    ccc    H11   3690 0.51201600   1.008000   ; qtot 0.263446
 3691         os    136    ccc     O6   3691 -0.26013600  16.000000   ; qtot 0.003310
; residue  137 ccc rtp ccc q 0.0
 3692         c3    137    ccc     C1   3692 -0.33178800  12.010000   ; qtot -0.328478
 3693         c3    137    ccc     C2   3693 0.30606500  12.010000   ; qtot -0.022413
 3694         h1    137    ccc     H1   3694 0.11662300   1.008000   ; qtot 0.094210
 3695         h1    137    ccc     H2   3695 0.11526800   1.008000   ; qtot 0.209478
 3696         c3    137    ccc     C3   3696 0.15592700  12.010000   ; qtot 0.365405
 3697         c3    137    ccc     C4   3697 0.28383300  12.010000   ; qtot 0.649238
 3698         c3    137    ccc     C5   3698 0.32403300  12.010000   ; qtot 0.973271
 3699         h1    137    ccc     H3   3699 0.13386900   1.008000   ; qtot 1.107140
 3700         h1    137    ccc     H4   3700 0.10146700   1.008000   ; qtot 1.208607
 3701         h2    137    ccc     H5   3701 0.10960400   1.008000   ; qtot 1.318211
 3702         os    137    ccc     O1   3702 -0.28650000  16.000000   ; qtot 1.031711
 3703         oh    137    ccc     O2   3703 -0.86012500  16.000000   ; qtot 0.171586
 3704         oh    137    ccc     O3   3704 -0.83772800  16.000000   ; qtot -0.666142
 3705         oh    137    ccc     O4   3705 -0.77449700  16.000000   ; qtot -1.440639
 3706         c3    137    ccc     C6   3706 0.37576500  12.010000   ; qtot -1.064874
 3707         ho    137    ccc     H6   3707 0.53656000   1.008000   ; qtot -0.528314
 3708         ho    137    ccc     H7   3708 0.49492100   1.008000   ; qtot -0.033393
 3709         ho    137    ccc     H8   3709 0.51297200   1.008000   ; qtot 0.479579
 3710         h1    137    ccc     H9   3710 0.05653400   1.008000   ; qtot 0.536113
 3711         h1    137    ccc    H10   3711 0.05653400   1.008000   ; qtot 0.592647
 3712         oh    137    ccc     O5   3712 -0.84113600  16.000000   ; qtot -0.248489
 3713         ho    137    ccc    H11   3713 0.51201600   1.008000   ; qtot 0.263527
 3714         os    137    ccc     O6   3714 -0.26013600  16.000000   ; qtot 0.003391
; residue  138 ccc rtp ccc q 0.0
 3715         c3    138    ccc     C1   3715 -0.33178800  12.010000   ; qtot -0.328397
 3716         c3    138    ccc     C2   3716 0.30606500  12.010000   ; qtot -0.022332
 3717         h1    138    ccc     H1   3717 0.11662300   1.008000   ; qtot 0.094291
 3718         h1    138    ccc     H2   3718 0.11526800   1.008000   ; qtot 0.209559
 3719         c3    138    ccc     C3   3719 0.15592700  12.010000   ; qtot 0.365486
 3720         c3    138    ccc     C4   3720 0.28383300  12.010000   ; qtot 0.649319
 3721         c3    138    ccc     C5   3721 0.32403300  12.010000   ; qtot 0.973352
 3722         h1    138    ccc     H3   3722 0.13386900   1.008000   ; qtot 1.107221
 3723         h1    138    ccc     H4   3723 0.10146700   1.008000   ; qtot 1.208688
 3724         h2    138    ccc     H5   3724 0.10960400   1.008000   ; qtot 1.318292
 3725         os    138    ccc     O1   3725 -0.28650000  16.000000   ; qtot 1.031792
 3726         oh    138    ccc     O2   3726 -0.86012500  16.000000   ; qtot 0.171667
 3727         oh    138    ccc     O3   3727 -0.83772800  16.000000   ; qtot -0.666061
 3728         oh    138    ccc     O4   3728 -0.77449700  16.000000   ; qtot -1.440558
 3729         c3    138    ccc     C6   3729 0.37576500  12.010000   ; qtot -1.064793
 3730         ho    138    ccc     H6   3730 0.53656000   1.008000   ; qtot -0.528233
 3731         ho    138    ccc     H7   3731 0.49492100   1.008000   ; qtot -0.033312
 3732         ho    138    ccc     H8   3732 0.51297200   1.008000   ; qtot 0.479660
 3733         h1    138    ccc     H9   3733 0.05653400   1.008000   ; qtot 0.536194
 3734         h1    138    ccc    H10   3734 0.05653400   1.008000   ; qtot 0.592728
 3735         oh    138    ccc     O5   3735 -0.84113600  16.000000   ; qtot -0.248408
 3736         ho    138    ccc    H11   3736 0.51201600   1.008000   ; qtot 0.263608
 3737         os    138    ccc     O6   3737 -0.26013600  16.000000   ; qtot 0.003472
; residue  139 ccc rtp ccc q 0.0
 3738         c3    139    ccc     C1   3738 -0.33178800  12.010000   ; qtot -0.328316
 3739         c3    139    ccc     C2   3739 0.30606500  12.010000   ; qtot -0.022251
 3740         h1    139    ccc     H1   3740 0.11662300   1.008000   ; qtot 0.094372
 3741         h1    139    ccc     H2   3741 0.11526800   1.008000   ; qtot 0.209640
 3742         c3    139    ccc     C3   3742 0.15592700  12.010000   ; qtot 0.365567
 3743         c3    139    ccc     C4   3743 0.28383300  12.010000   ; qtot 0.649400
 3744         c3    139    ccc     C5   3744 0.32403300  12.010000   ; qtot 0.973433
 3745         h1    139    ccc     H3   3745 0.13386900   1.008000   ; qtot 1.107302
 3746         h1    139    ccc     H4   3746 0.10146700   1.008000   ; qtot 1.208769
 3747         h2    139    ccc     H5   3747 0.10960400   1.008000   ; qtot 1.318373
 3748         os    139    ccc     O1   3748 -0.28650000  16.000000   ; qtot 1.031873
 3749         oh    139    ccc     O2   3749 -0.86012500  16.000000   ; qtot 0.171748
 3750         oh    139    ccc     O3   3750 -0.83772800  16.000000   ; qtot -0.665980
 3751         oh    139    ccc     O4   3751 -0.77449700  16.000000   ; qtot -1.440477
 3752         c3    139    ccc     C6   3752 0.37576500  12.010000   ; qtot -1.064712
 3753         ho    139    ccc     H6   3753 0.53656000   1.008000   ; qtot -0.528152
 3754         ho    139    ccc     H7   3754 0.49492100   1.008000   ; qtot -0.033231
 3755         ho    139    ccc     H8   3755 0.51297200   1.008000   ; qtot 0.479741
 3756         h1    139    ccc     H9   3756 0.05653400   1.008000   ; qtot 0.536275
 3757         h1    139    ccc    H10   3757 0.05653400   1.008000   ; qtot 0.592809
 3758         oh    139    ccc     O5   3758 -0.84113600  16.000000   ; qtot -0.248327
 3759         ho    139    ccc    H11   3759 0.51201600   1.008000   ; qtot 0.263689
 3760         os    139    ccc     O6   3760 -0.26013600  16.000000   ; qtot 0.003553
; residue  140 ccc rtp ccc q 0.0
 3761         c3    140    ccc     C1   3761 -0.33178800  12.010000   ; qtot -0.328235
 3762         c3    140    ccc     C2   3762 0.30606500  12.010000   ; qtot -0.022170
 3763         h1    140    ccc     H1   3763 0.11662300   1.008000   ; qtot 0.094453
 3764         h1    140    ccc     H2   3764 0.11526800   1.008000   ; qtot 0.209721
 3765         c3    140    ccc     C3   3765 0.15592700  12.010000   ; qtot 0.365648
 3766         c3    140    ccc     C4   3766 0.28383300  12.010000   ; qtot 0.649481
 3767         c3    140    ccc     C5   3767 0.32403300  12.010000   ; qtot 0.973514
 3768         h1    140    ccc     H3   3768 0.13386900   1.008000   ; qtot 1.107383
 3769         h1    140    ccc     H4   3769 0.10146700   1.008000   ; qtot 1.208850
 3770         h2    140    ccc     H5   3770 0.10960400   1.008000   ; qtot 1.318454
 3771         os    140    ccc     O1   3771 -0.28650000  16.000000   ; qtot 1.031954
 3772         oh    140    ccc     O2   3772 -0.86012500  16.000000   ; qtot 0.171829
 3773         oh    140    ccc     O3   3773 -0.83772800  16.000000   ; qtot -0.665899
 3774         oh    140    ccc     O4   3774 -0.77449700  16.000000   ; qtot -1.440396
 3775         c3    140    ccc     C6   3775 0.37576500  12.010000   ; qtot -1.064631
 3776         ho    140    ccc     H6   3776 0.53656000   1.008000   ; qtot -0.528071
 3777         ho    140    ccc     H7   3777 0.49492100   1.008000   ; qtot -0.033150
 3778         ho    140    ccc     H8   3778 0.51297200   1.008000   ; qtot 0.479822
 3779         h1    140    ccc     H9   3779 0.05653400   1.008000   ; qtot 0.536356
 3780         h1    140    ccc    H10   3780 0.05653400   1.008000   ; qtot 0.592890
 3781         oh    140    ccc     O5   3781 -0.84113600  16.000000   ; qtot -0.248246
 3782         ho    140    ccc    H11   3782 0.51201600   1.008000   ; qtot 0.263770
 3783         os    140    ccc     O6   3783 -0.26013600  16.000000   ; qtot 0.003634
; residue  141 ccc rtp ccc q 0.0
 3784         c3    141    ccc     C1   3784 -0.33178800  12.010000   ; qtot -0.328154
 3785         c3    141    ccc     C2   3785 0.30606500  12.010000   ; qtot -0.022089
 3786         h1    141    ccc     H1   3786 0.11662300   1.008000   ; qtot 0.094534
 3787         h1    141    ccc     H2   3787 0.11526800   1.008000   ; qtot 0.209802
 3788         c3    141    ccc     C3   3788 0.15592700  12.010000   ; qtot 0.365729
 3789         c3    141    ccc     C4   3789 0.28383300  12.010000   ; qtot 0.649562
 3790         c3    141    ccc     C5   3790 0.32403300  12.010000   ; qtot 0.973595
 3791         h1    141    ccc     H3   3791 0.13386900   1.008000   ; qtot 1.107464
 3792         h1    141    ccc     H4   3792 0.10146700   1.008000   ; qtot 1.208931
 3793         h2    141    ccc     H5   3793 0.10960400   1.008000   ; qtot 1.318535
 3794         os    141    ccc     O1   3794 -0.28650000  16.000000   ; qtot 1.032035
 3795         oh    141    ccc     O2   3795 -0.86012500  16.000000   ; qtot 0.171910
 3796         oh    141    ccc     O3   3796 -0.83772800  16.000000   ; qtot -0.665818
 3797         oh    141    ccc     O4   3797 -0.77449700  16.000000   ; qtot -1.440315
 3798         c3    141    ccc     C6   3798 0.37576500  12.010000   ; qtot -1.064550
 3799         ho    141    ccc     H6   3799 0.53656000   1.008000   ; qtot -0.527990
 3800         ho    141    ccc     H7   3800 0.49492100   1.008000   ; qtot -0.033069
 3801         ho    141    ccc     H8   3801 0.51297200   1.008000   ; qtot 0.479903
 3802         h1    141    ccc     H9   3802 0.05653400   1.008000   ; qtot 0.536437
 3803         h1    141    ccc    H10   3803 0.05653400   1.008000   ; qtot 0.592971
 3804         oh    141    ccc     O5   3804 -0.84113600  16.000000   ; qtot -0.248165
 3805         ho    141    ccc    H11   3805 0.51201600   1.008000   ; qtot 0.263851
 3806         os    141    ccc     O6   3806 -0.26013600  16.000000   ; qtot 0.003715
; residue  142 ccc rtp ccc q 0.0
 3807         c3    142    ccc     C1   3807 -0.33178800  12.010000   ; qtot -0.328073
 3808         c3    142    ccc     C2   3808 0.30606500  12.010000   ; qtot -0.022008
 3809         h1    142    ccc     H1   3809 0.11662300   1.008000   ; qtot 0.094615
 3810         h1    142    ccc     H2   3810 0.11526800   1.008000   ; qtot 0.209883
 3811         c3    142    ccc     C3   3811 0.15592700  12.010000   ; qtot 0.365810
 3812         c3    142    ccc     C4   3812 0.28383300  12.010000   ; qtot 0.649643
 3813         c3    142    ccc     C5   3813 0.32403300  12.010000   ; qtot 0.973676
 3814         h1    142    ccc     H3   3814 0.13386900   1.008000   ; qtot 1.107545
 3815         h1    142    ccc     H4   3815 0.10146700   1.008000   ; qtot 1.209012
 3816         h2    142    ccc     H5   3816 0.10960400   1.008000   ; qtot 1.318616
 3817         os    142    ccc     O1   3817 -0.28650000  16.000000   ; qtot 1.032116
 3818         oh    142    ccc     O2   3818 -0.86012500  16.000000   ; qtot 0.171991
 3819         oh    142    ccc     O3   3819 -0.83772800  16.000000   ; qtot -0.665737
 3820         oh    142    ccc     O4   3820 -0.77449700  16.000000   ; qtot -1.440234
 3821         c3    142    ccc     C6   3821 0.37576500  12.010000   ; qtot -1.064469
 3822         ho    142    ccc     H6   3822 0.53656000   1.008000   ; qtot -0.527909
 3823         ho    142    ccc     H7   3823 0.49492100   1.008000   ; qtot -0.032988
 3824         ho    142    ccc     H8   3824 0.51297200   1.008000   ; qtot 0.479984
 3825         h1    142    ccc     H9   3825 0.05653400   1.008000   ; qtot 0.536518
 3826         h1    142    ccc    H10   3826 0.05653400   1.008000   ; qtot 0.593052
 3827         oh    142    ccc     O5   3827 -0.84113600  16.000000   ; qtot -0.248084
 3828         ho    142    ccc    H11   3828 0.51201600   1.008000   ; qtot 0.263932
 3829         os    142    ccc     O6   3829 -0.26013600  16.000000   ; qtot 0.003796
; residue  143 ccc rtp ccc q 0.0
 3830         c3    143    ccc     C1   3830 -0.33178800  12.010000   ; qtot -0.327992
 3831         c3    143    ccc     C2   3831 0.30606500  12.010000   ; qtot -0.021927
 3832         h1    143    ccc     H1   3832 0.11662300   1.008000   ; qtot 0.094696
 3833         h1    143    ccc     H2   3833 0.11526800   1.008000   ; qtot 0.209964
 3834         c3    143    ccc     C3   3834 0.15592700  12.010000   ; qtot 0.365891
 3835         c3    143    ccc     C4   3835 0.28383300  12.010000   ; qtot 0.649724
 3836         c3    143    ccc     C5   3836 0.32403300  12.010000   ; qtot 0.973757
 3837         h1    143    ccc     H3   3837 0.13386900   1.008000   ; qtot 1.107626
 3838         h1    143    ccc     H4   3838 0.10146700   1.008000   ; qtot 1.209093
 3839         h2    143    ccc     H5   3839 0.10960400   1.008000   ; qtot 1.318697
 3840         os    143    ccc     O1   3840 -0.28650000  16.000000   ; qtot 1.032197
 3841         oh    143    ccc     O2   3841 -0.86012500  16.000000   ; qtot 0.172072
 3842         oh    143    ccc     O3   3842 -0.83772800  16.000000   ; qtot -0.665656
 3843         oh    143    ccc     O4   3843 -0.77449700  16.000000   ; qtot -1.440153
 3844         c3    143    ccc     C6   3844 0.37576500  12.010000   ; qtot -1.064388
 3845         ho    143    ccc     H6   3845 0.53656000   1.008000   ; qtot -0.527828
 3846         ho    143    ccc     H7   3846 0.49492100   1.008000   ; qtot -0.032907
 3847         ho    143    ccc     H8   3847 0.51297200   1.008000   ; qtot 0.480065
 3848         h1    143    ccc     H9   3848 0.05653400   1.008000   ; qtot 0.536599
 3849         h1    143    ccc    H10   3849 0.05653400   1.008000   ; qtot 0.593133
 3850         oh    143    ccc     O5   3850 -0.84113600  16.000000   ; qtot -0.248003
 3851         ho    143    ccc    H11   3851 0.51201600   1.008000   ; qtot 0.264013
 3852         os    143    ccc     O6   3852 -0.26013600  16.000000   ; qtot 0.003877
; residue  144 ccc rtp ccc q 0.0
 3853         c3    144    ccc     C1   3853 -0.33178800  12.010000   ; qtot -0.327911
 3854         c3    144    ccc     C2   3854 0.30606500  12.010000   ; qtot -0.021846
 3855         h1    144    ccc     H1   3855 0.11662300   1.008000   ; qtot 0.094777
 3856         h1    144    ccc     H2   3856 0.11526800   1.008000   ; qtot 0.210045
 3857         c3    144    ccc     C3   3857 0.15592700  12.010000   ; qtot 0.365972
 3858         c3    144    ccc     C4   3858 0.28383300  12.010000   ; qtot 0.649805
 3859         c3    144    ccc     C5   3859 0.32403300  12.010000   ; qtot 0.973838
 3860         h1    144    ccc     H3   3860 0.13386900   1.008000   ; qtot 1.107707
 3861         h1    144    ccc     H4   3861 0.10146700   1.008000   ; qtot 1.209174
 3862         h2    144    ccc     H5   3862 0.10960400   1.008000   ; qtot 1.318778
 3863         os    144    ccc     O1   3863 -0.28650000  16.000000   ; qtot 1.032278
 3864         oh    144    ccc     O2   3864 -0.86012500  16.000000   ; qtot 0.172153
 3865         oh    144    ccc     O3   3865 -0.83772800  16.000000   ; qtot -0.665575
 3866         oh    144    ccc     O4   3866 -0.77449700  16.000000   ; qtot -1.440072
 3867         c3    144    ccc     C6   3867 0.37576500  12.010000   ; qtot -1.064307
 3868         ho    144    ccc     H6   3868 0.53656000   1.008000   ; qtot -0.527747
 3869         ho    144    ccc     H7   3869 0.49492100   1.008000   ; qtot -0.032826
 3870         ho    144    ccc     H8   3870 0.51297200   1.008000   ; qtot 0.480146
 3871         h1    144    ccc     H9   3871 0.05653400   1.008000   ; qtot 0.536680
 3872         h1    144    ccc    H10   3872 0.05653400   1.008000   ; qtot 0.593214
 3873         oh    144    ccc     O5   3873 -0.84113600  16.000000   ; qtot -0.247922
 3874         ho    144    ccc    H11   3874 0.51201600   1.008000   ; qtot 0.264094
 3875         os    144    ccc     O6   3875 -0.26013600  16.000000   ; qtot 0.003958
; residue  145 ccc rtp ccc q 0.0
 3876         c3    145    ccc     C1   3876 -0.33178800  12.010000   ; qtot -0.327830
 3877         c3    145    ccc     C2   3877 0.30606500  12.010000   ; qtot -0.021765
 3878         h1    145    ccc     H1   3878 0.11662300   1.008000   ; qtot 0.094858
 3879         h1    145    ccc     H2   3879 0.11526800   1.008000   ; qtot 0.210126
 3880         c3    145    ccc     C3   3880 0.15592700  12.010000   ; qtot 0.366053
 3881         c3    145    ccc     C4   3881 0.28383300  12.010000   ; qtot 0.649886
 3882         c3    145    ccc     C5   3882 0.32403300  12.010000   ; qtot 0.973919
 3883         h1    145    ccc     H3   3883 0.13386900   1.008000   ; qtot 1.107788
 3884         h1    145    ccc     H4   3884 0.10146700   1.008000   ; qtot 1.209255
 3885         h2    145    ccc     H5   3885 0.10960400   1.008000   ; qtot 1.318859
 3886         os    145    ccc     O1   3886 -0.28650000  16.000000   ; qtot 1.032359
 3887         oh    145    ccc     O2   3887 -0.86012500  16.000000   ; qtot 0.172234
 3888         oh    145    ccc     O3   3888 -0.83772800  16.000000   ; qtot -0.665494
 3889         oh    145    ccc     O4   3889 -0.77449700  16.000000   ; qtot -1.439991
 3890         c3    145    ccc     C6   3890 0.37576500  12.010000   ; qtot -1.064226
 3891         ho    145    ccc     H6   3891 0.53656000   1.008000   ; qtot -0.527666
 3892         ho    145    ccc     H7   3892 0.49492100   1.008000   ; qtot -0.032745
 3893         ho    145    ccc     H8   3893 0.51297200   1.008000   ; qtot 0.480227
 3894         h1    145    ccc     H9   3894 0.05653400   1.008000   ; qtot 0.536761
 3895         h1    145    ccc    H10   3895 0.05653400   1.008000   ; qtot 0.593295
 3896         oh    145    ccc     O5   3896 -0.84113600  16.000000   ; qtot -0.247841
 3897         ho    145    ccc    H11   3897 0.51201600   1.008000   ; qtot 0.264175
 3898         os    145    ccc     O6   3898 -0.26013600  16.000000   ; qtot 0.004039
; residue  146 ccc rtp ccc q 0.0
 3899         c3    146    ccc     C1   3899 -0.33178800  12.010000   ; qtot -0.327749
 3900         c3    146    ccc     C2   3900 0.30606500  12.010000   ; qtot -0.021684
 3901         h1    146    ccc     H1   3901 0.11662300   1.008000   ; qtot 0.094939
 3902         h1    146    ccc     H2   3902 0.11526800   1.008000   ; qtot 0.210207
 3903         c3    146    ccc     C3   3903 0.15592700  12.010000   ; qtot 0.366134
 3904         c3    146    ccc     C4   3904 0.28383300  12.010000   ; qtot 0.649967
 3905         c3    146    ccc     C5   3905 0.32403300  12.010000   ; qtot 0.974000
 3906         h1    146    ccc     H3   3906 0.13386900   1.008000   ; qtot 1.107869
 3907         h1    146    ccc     H4   3907 0.10146700   1.008000   ; qtot 1.209336
 3908         h2    146    ccc     H5   3908 0.10960400   1.008000   ; qtot 1.318940
 3909         os    146    ccc     O1   3909 -0.28650000  16.000000   ; qtot 1.032440
 3910         oh    146    ccc     O2   3910 -0.86012500  16.000000   ; qtot 0.172315
 3911         oh    146    ccc     O3   3911 -0.83772800  16.000000   ; qtot -0.665413
 3912         oh    146    ccc     O4   3912 -0.77449700  16.000000   ; qtot -1.439910
 3913         c3    146    ccc     C6   3913 0.37576500  12.010000   ; qtot -1.064145
 3914         ho    146    ccc     H6   3914 0.53656000   1.008000   ; qtot -0.527585
 3915         ho    146    ccc     H7   3915 0.49492100   1.008000   ; qtot -0.032664
 3916         ho    146    ccc     H8   3916 0.51297200   1.008000   ; qtot 0.480308
 3917         h1    146    ccc     H9   3917 0.05653400   1.008000   ; qtot 0.536842
 3918         h1    146    ccc    H10   3918 0.05653400   1.008000   ; qtot 0.593376
 3919         oh    146    ccc     O5   3919 -0.84113600  16.000000   ; qtot -0.247760
 3920         ho    146    ccc    H11   3920 0.51201600   1.008000   ; qtot 0.264256
 3921         os    146    ccc     O6   3921 -0.26013600  16.000000   ; qtot 0.004120
; residue  147 ccc rtp ccc q 0.0
 3922         c3    147    ccc     C1   3922 -0.33178800  12.010000   ; qtot -0.327668
 3923         c3    147    ccc     C2   3923 0.30606500  12.010000   ; qtot -0.021603
 3924         h1    147    ccc     H1   3924 0.11662300   1.008000   ; qtot 0.095020
 3925         h1    147    ccc     H2   3925 0.11526800   1.008000   ; qtot 0.210288
 3926         c3    147    ccc     C3   3926 0.15592700  12.010000   ; qtot 0.366215
 3927         c3    147    ccc     C4   3927 0.28383300  12.010000   ; qtot 0.650048
 3928         c3    147    ccc     C5   3928 0.32403300  12.010000   ; qtot 0.974081
 3929         h1    147    ccc     H3   3929 0.13386900   1.008000   ; qtot 1.107950
 3930         h1    147    ccc     H4   3930 0.10146700   1.008000   ; qtot 1.209417
 3931         h2    147    ccc     H5   3931 0.10960400   1.008000   ; qtot 1.319021
 3932         os    147    ccc     O1   3932 -0.28650000  16.000000   ; qtot 1.032521
 3933         oh    147    ccc     O2   3933 -0.86012500  16.000000   ; qtot 0.172396
 3934         oh    147    ccc     O3   3934 -0.83772800  16.000000   ; qtot -0.665332
 3935         oh    147    ccc     O4   3935 -0.77449700  16.000000   ; qtot -1.439829
 3936         c3    147    ccc     C6   3936 0.37576500  12.010000   ; qtot -1.064064
 3937         ho    147    ccc     H6   3937 0.53656000   1.008000   ; qtot -0.527504
 3938         ho    147    ccc     H7   3938 0.49492100   1.008000   ; qtot -0.032583
 3939         ho    147    ccc     H8   3939 0.51297200   1.008000   ; qtot 0.480389
 3940         h1    147    ccc     H9   3940 0.05653400   1.008000   ; qtot 0.536923
 3941         h1    147    ccc    H10   3941 0.05653400   1.008000   ; qtot 0.593457
 3942         oh    147    ccc     O5   3942 -0.84113600  16.000000   ; qtot -0.247679
 3943         ho    147    ccc    H11   3943 0.51201600   1.008000   ; qtot 0.264337
 3944         os    147    ccc     O6   3944 -0.26013600  16.000000   ; qtot 0.004201
; residue  148 ccc rtp ccc q 0.0
 3945         c3    148    ccc     C1   3945 -0.33178800  12.010000   ; qtot -0.327587
 3946         c3    148    ccc     C2   3946 0.30606500  12.010000   ; qtot -0.021522
 3947         h1    148    ccc     H1   3947 0.11662300   1.008000   ; qtot 0.095101
 3948         h1    148    ccc     H2   3948 0.11526800   1.008000   ; qtot 0.210369
 3949         c3    148    ccc     C3   3949 0.15592700  12.010000   ; qtot 0.366296
 3950         c3    148    ccc     C4   3950 0.28383300  12.010000   ; qtot 0.650129
 3951         c3    148    ccc     C5   3951 0.32403300  12.010000   ; qtot 0.974162
 3952         h1    148    ccc     H3   3952 0.13386900   1.008000   ; qtot 1.108031
 3953         h1    148    ccc     H4   3953 0.10146700   1.008000   ; qtot 1.209498
 3954         h2    148    ccc     H5   3954 0.10960400   1.008000   ; qtot 1.319102
 3955         os    148    ccc     O1   3955 -0.28650000  16.000000   ; qtot 1.032602
 3956         oh    148    ccc     O2   3956 -0.86012500  16.000000   ; qtot 0.172477
 3957         oh    148    ccc     O3   3957 -0.83772800  16.000000   ; qtot -0.665251
 3958         oh    148    ccc     O4   3958 -0.77449700  16.000000   ; qtot -1.439748
 3959         c3    148    ccc     C6   3959 0.37576500  12.010000   ; qtot -1.063983
 3960         ho    148    ccc     H6   3960 0.53656000   1.008000   ; qtot -0.527423
 3961         ho    148    ccc     H7   3961 0.49492100   1.008000   ; qtot -0.032502
 3962         ho    148    ccc     H8   3962 0.51297200   1.008000   ; qtot 0.480470
 3963         h1    148    ccc     H9   3963 0.05653400   1.008000   ; qtot 0.537004
 3964         h1    148    ccc    H10   3964 0.05653400   1.008000   ; qtot 0.593538
 3965         oh    148    ccc     O5   3965 -0.84113600  16.000000   ; qtot -0.247598
 3966         ho    148    ccc    H11   3966 0.51201600   1.008000   ; qtot 0.264418
 3967         os    148    ccc     O6   3967 -0.26013600  16.000000   ; qtot 0.004282
; residue  149 ccc rtp ccc q 0.0
 3968         c3    149    ccc     C1   3968 -0.33178800  12.010000   ; qtot -0.327506
 3969         c3    149    ccc     C2   3969 0.30606500  12.010000   ; qtot -0.021441
 3970         h1    149    ccc     H1   3970 0.11662300   1.008000   ; qtot 0.095182
 3971         h1    149    ccc     H2   3971 0.11526800   1.008000   ; qtot 0.210450
 3972         c3    149    ccc     C3   3972 0.15592700  12.010000   ; qtot 0.366377
 3973         c3    149    ccc     C4   3973 0.28383300  12.010000   ; qtot 0.650210
 3974         c3    149    ccc     C5   3974 0.32403300  12.010000   ; qtot 0.974243
 3975         h1    149    ccc     H3   3975 0.13386900   1.008000   ; qtot 1.108112
 3976         h1    149    ccc     H4   3976 0.10146700   1.008000   ; qtot 1.209579
 3977         h2    149    ccc     H5   3977 0.10960400   1.008000   ; qtot 1.319183
 3978         os    149    ccc     O1   3978 -0.28650000  16.000000   ; qtot 1.032683
 3979         oh    149    ccc     O2   3979 -0.86012500  16.000000   ; qtot 0.172558
 3980         oh    149    ccc     O3   3980 -0.83772800  16.000000   ; qtot -0.665170
 3981         oh    149    ccc     O4   3981 -0.77449700  16.000000   ; qtot -1.439667
 3982         c3    149    ccc     C6   3982 0.37576500  12.010000   ; qtot -1.063902
 3983         ho    149    ccc     H6   3983 0.53656000   1.008000   ; qtot -0.527342
 3984         ho    149    ccc     H7   3984 0.49492100   1.008000   ; qtot -0.032421
 3985         ho    149    ccc     H8   3985 0.51297200   1.008000   ; qtot 0.480551
 3986         h1    149    ccc     H9   3986 0.05653400   1.008000   ; qtot 0.537085
 3987         h1    149    ccc    H10   3987 0.05653400   1.008000   ; qtot 0.593619
 3988         oh    149    ccc     O5   3988 -0.84113600  16.000000   ; qtot -0.247517
 3989         ho    149    ccc    H11   3989 0.51201600   1.008000   ; qtot 0.264499
 3990         os    149    ccc     O6   3990 -0.26013600  16.000000   ; qtot 0.004363
; residue  150 ccc rtp ccc q 0.0
 3991         c3    150    ccc     C1   3991 -0.33178800  12.010000   ; qtot -0.327425
 3992         c3    150    ccc     C2   3992 0.30606500  12.010000   ; qtot -0.021360
 3993         h1    150    ccc     H1   3993 0.11662300   1.008000   ; qtot 0.095263
 3994         h1    150    ccc     H2   3994 0.11526800   1.008000   ; qtot 0.210531
 3995         c3    150    ccc     C3   3995 0.15592700  12.010000   ; qtot 0.366458
 3996         c3    150    ccc     C4   3996 0.28383300  12.010000   ; qtot 0.650291
 3997         c3    150    ccc     C5   3997 0.32403300  12.010000   ; qtot 0.974324
 3998         h1    150    ccc     H3   3998 0.13386900   1.008000   ; qtot 1.108193
 3999         h1    150    ccc     H4   3999 0.10146700   1.008000   ; qtot 1.209660
 4000         h2    150    ccc     H5   4000 0.10960400   1.008000   ; qtot 1.319264
 4001         os    150    ccc     O1   4001 -0.28650000  16.000000   ; qtot 1.032764
 4002         oh    150    ccc     O2   4002 -0.86012500  16.000000   ; qtot 0.172639
 4003         oh    150    ccc     O3   4003 -0.83772800  16.000000   ; qtot -0.665089
 4004         oh    150    ccc     O4   4004 -0.77449700  16.000000   ; qtot -1.439586
 4005         c3    150    ccc     C6   4005 0.37576500  12.010000   ; qtot -1.063821
 4006         ho    150    ccc     H6   4006 0.53656000   1.008000   ; qtot -0.527261
 4007         ho    150    ccc     H7   4007 0.49492100   1.008000   ; qtot -0.032340
 4008         ho    150    ccc     H8   4008 0.51297200   1.008000   ; qtot 0.480632
 4009         h1    150    ccc     H9   4009 0.05653400   1.008000   ; qtot 0.537166
 4010         h1    150    ccc    H10   4010 0.05653400   1.008000   ; qtot 0.593700
 4011         oh    150    ccc     O5   4011 -0.84113600  16.000000   ; qtot -0.247436
 4012         ho    150    ccc    H11   4012 0.51201600   1.008000   ; qtot 0.264580
 4013         os    150    ccc     O6   4013 -0.26013600  16.000000   ; qtot 0.004444
; residue  151 ccc rtp ccc q 0.0
 4014         c3    151    ccc     C1   4014 -0.33178800  12.010000   ; qtot -0.327344
 4015         c3    151    ccc     C2   4015 0.30606500  12.010000   ; qtot -0.021279
 4016         h1    151    ccc     H1   4016 0.11662300   1.008000   ; qtot 0.095344
 4017         h1    151    ccc     H2   4017 0.11526800   1.008000   ; qtot 0.210612
 4018         c3    151    ccc     C3   4018 0.15592700  12.010000   ; qtot 0.366539
 4019         c3    151    ccc     C4   4019 0.28383300  12.010000   ; qtot 0.650372
 4020         c3    151    ccc     C5   4020 0.32403300  12.010000   ; qtot 0.974405
 4021         h1    151    ccc     H3   4021 0.13386900   1.008000   ; qtot 1.108274
 4022         h1    151    ccc     H4   4022 0.10146700   1.008000   ; qtot 1.209741
 4023         h2    151    ccc     H5   4023 0.10960400   1.008000   ; qtot 1.319345
 4024         os    151    ccc     O1   4024 -0.28650000  16.000000   ; qtot 1.032845
 4025         oh    151    ccc     O2   4025 -0.86012500  16.000000   ; qtot 0.172720
 4026         oh    151    ccc     O3   4026 -0.83772800  16.000000   ; qtot -0.665008
 4027         oh    151    ccc     O4   4027 -0.77449700  16.000000   ; qtot -1.439505
 4028         c3    151    ccc     C6   4028 0.37576500  12.010000   ; qtot -1.063740
 4029         ho    151    ccc     H6   4029 0.53656000   1.008000   ; qtot -0.527180
 4030         ho    151    ccc     H7   4030 0.49492100   1.008000   ; qtot -0.032259
 4031         ho    151    ccc     H8   4031 0.51297200   1.008000   ; qtot 0.480713
 4032         h1    151    ccc     H9   4032 0.05653400   1.008000   ; qtot 0.537247
 4033         h1    151    ccc    H10   4033 0.05653400   1.008000   ; qtot 0.593781
 4034         oh    151    ccc     O5   4034 -0.84113600  16.000000   ; qtot -0.247355
 4035         ho    151    ccc    H11   4035 0.51201600   1.008000   ; qtot 0.264661
 4036         os    151    ccc     O6   4036 -0.26013600  16.000000   ; qtot 0.004525
; residue  152 ccc rtp ccc q 0.0
 4037         c3    152    ccc     C1   4037 -0.33178800  12.010000   ; qtot -0.327263
 4038         c3    152    ccc     C2   4038 0.30606500  12.010000   ; qtot -0.021198
 4039         h1    152    ccc     H1   4039 0.11662300   1.008000   ; qtot 0.095425
 4040         h1    152    ccc     H2   4040 0.11526800   1.008000   ; qtot 0.210693
 4041         c3    152    ccc     C3   4041 0.15592700  12.010000   ; qtot 0.366620
 4042         c3    152    ccc     C4   4042 0.28383300  12.010000   ; qtot 0.650453
 4043         c3    152    ccc     C5   4043 0.32403300  12.010000   ; qtot 0.974486
 4044         h1    152    ccc     H3   4044 0.13386900   1.008000   ; qtot 1.108355
 4045         h1    152    ccc     H4   4045 0.10146700   1.008000   ; qtot 1.209822
 4046         h2    152    ccc     H5   4046 0.10960400   1.008000   ; qtot 1.319426
 4047         os    152    ccc     O1   4047 -0.28650000  16.000000   ; qtot 1.032926
 4048         oh    152    ccc     O2   4048 -0.86012500  16.000000   ; qtot 0.172801
 4049         oh    152    ccc     O3   4049 -0.83772800  16.000000   ; qtot -0.664927
 4050         oh    152    ccc     O4   4050 -0.77449700  16.000000   ; qtot -1.439424
 4051         c3    152    ccc     C6   4051 0.37576500  12.010000   ; qtot -1.063659
 4052         ho    152    ccc     H6   4052 0.53656000   1.008000   ; qtot -0.527099
 4053         ho    152    ccc     H7   4053 0.49492100   1.008000   ; qtot -0.032178
 4054         ho    152    ccc     H8   4054 0.51297200   1.008000   ; qtot 0.480794
 4055         h1    152    ccc     H9   4055 0.05653400   1.008000   ; qtot 0.537328
 4056         h1    152    ccc    H10   4056 0.05653400   1.008000   ; qtot 0.593862
 4057         oh    152    ccc     O5   4057 -0.84113600  16.000000   ; qtot -0.247274
 4058         ho    152    ccc    H11   4058 0.51201600   1.008000   ; qtot 0.264742
 4059         os    152    ccc     O6   4059 -0.26013600  16.000000   ; qtot 0.004606
; residue  153 ccc rtp ccc q 0.0
 4060         c3    153    ccc     C1   4060 -0.33178800  12.010000   ; qtot -0.327182
 4061         c3    153    ccc     C2   4061 0.30606500  12.010000   ; qtot -0.021117
 4062         h1    153    ccc     H1   4062 0.11662300   1.008000   ; qtot 0.095506
 4063         h1    153    ccc     H2   4063 0.11526800   1.008000   ; qtot 0.210774
 4064         c3    153    ccc     C3   4064 0.15592700  12.010000   ; qtot 0.366701
 4065         c3    153    ccc     C4   4065 0.28383300  12.010000   ; qtot 0.650534
 4066         c3    153    ccc     C5   4066 0.32403300  12.010000   ; qtot 0.974567
 4067         h1    153    ccc     H3   4067 0.13386900   1.008000   ; qtot 1.108436
 4068         h1    153    ccc     H4   4068 0.10146700   1.008000   ; qtot 1.209903
 4069         h2    153    ccc     H5   4069 0.10960400   1.008000   ; qtot 1.319507
 4070         os    153    ccc     O1   4070 -0.28650000  16.000000   ; qtot 1.033007
 4071         oh    153    ccc     O2   4071 -0.86012500  16.000000   ; qtot 0.172882
 4072         oh    153    ccc     O3   4072 -0.83772800  16.000000   ; qtot -0.664846
 4073         oh    153    ccc     O4   4073 -0.77449700  16.000000   ; qtot -1.439343
 4074         c3    153    ccc     C6   4074 0.37576500  12.010000   ; qtot -1.063578
 4075         ho    153    ccc     H6   4075 0.53656000   1.008000   ; qtot -0.527018
 4076         ho    153    ccc     H7   4076 0.49492100   1.008000   ; qtot -0.032097
 4077         ho    153    ccc     H8   4077 0.51297200   1.008000   ; qtot 0.480875
 4078         h1    153    ccc     H9   4078 0.05653400   1.008000   ; qtot 0.537409
 4079         h1    153    ccc    H10   4079 0.05653400   1.008000   ; qtot 0.593943
 4080         oh    153    ccc     O5   4080 -0.84113600  16.000000   ; qtot -0.247193
 4081         ho    153    ccc    H11   4081 0.51201600   1.008000   ; qtot 0.264823
 4082         os    153    ccc     O6   4082 -0.26013600  16.000000   ; qtot 0.004687
; residue  154 ccc rtp ccc q 0.0
 4083         c3    154    ccc     C1   4083 -0.33178800  12.010000   ; qtot -0.327101
 4084         c3    154    ccc     C2   4084 0.30606500  12.010000   ; qtot -0.021036
 4085         h1    154    ccc     H1   4085 0.11662300   1.008000   ; qtot 0.095587
 4086         h1    154    ccc     H2   4086 0.11526800   1.008000   ; qtot 0.210855
 4087         c3    154    ccc     C3   4087 0.15592700  12.010000   ; qtot 0.366782
 4088         c3    154    ccc     C4   4088 0.28383300  12.010000   ; qtot 0.650615
 4089         c3    154    ccc     C5   4089 0.32403300  12.010000   ; qtot 0.974648
 4090         h1    154    ccc     H3   4090 0.13386900   1.008000   ; qtot 1.108517
 4091         h1    154    ccc     H4   4091 0.10146700   1.008000   ; qtot 1.209984
 4092         h2    154    ccc     H5   4092 0.10960400   1.008000   ; qtot 1.319588
 4093         os    154    ccc     O1   4093 -0.28650000  16.000000   ; qtot 1.033088
 4094         oh    154    ccc     O2   4094 -0.86012500  16.000000   ; qtot 0.172963
 4095         oh    154    ccc     O3   4095 -0.83772800  16.000000   ; qtot -0.664765
 4096         oh    154    ccc     O4   4096 -0.77449700  16.000000   ; qtot -1.439262
 4097         c3    154    ccc     C6   4097 0.37576500  12.010000   ; qtot -1.063497
 4098         ho    154    ccc     H6   4098 0.53656000   1.008000   ; qtot -0.526937
 4099         ho    154    ccc     H7   4099 0.49492100   1.008000   ; qtot -0.032016
 4100         ho    154    ccc     H8   4100 0.51297200   1.008000   ; qtot 0.480956
 4101         h1    154    ccc     H9   4101 0.05653400   1.008000   ; qtot 0.537490
 4102         h1    154    ccc    H10   4102 0.05653400   1.008000   ; qtot 0.594024
 4103         oh    154    ccc     O5   4103 -0.84113600  16.000000   ; qtot -0.247112
 4104         ho    154    ccc    H11   4104 0.51201600   1.008000   ; qtot 0.264904
 4105         os    154    ccc     O6   4105 -0.26013600  16.000000   ; qtot 0.004768
; residue  155 ccc rtp ccc q 0.0
 4106         c3    155    ccc     C1   4106 -0.33178800  12.010000   ; qtot -0.327020
 4107         c3    155    ccc     C2   4107 0.30606500  12.010000   ; qtot -0.020955
 4108         h1    155    ccc     H1   4108 0.11662300   1.008000   ; qtot 0.095668
 4109         h1    155    ccc     H2   4109 0.11526800   1.008000   ; qtot 0.210936
 4110         c3    155    ccc     C3   4110 0.15592700  12.010000   ; qtot 0.366863
 4111         c3    155    ccc     C4   4111 0.28383300  12.010000   ; qtot 0.650696
 4112         c3    155    ccc     C5   4112 0.32403300  12.010000   ; qtot 0.974729
 4113         h1    155    ccc     H3   4113 0.13386900   1.008000   ; qtot 1.108598
 4114         h1    155    ccc     H4   4114 0.10146700   1.008000   ; qtot 1.210065
 4115         h2    155    ccc     H5   4115 0.10960400   1.008000   ; qtot 1.319669
 4116         os    155    ccc     O1   4116 -0.28650000  16.000000   ; qtot 1.033169
 4117         oh    155    ccc     O2   4117 -0.86012500  16.000000   ; qtot 0.173044
 4118         oh    155    ccc     O3   4118 -0.83772800  16.000000   ; qtot -0.664684
 4119         oh    155    ccc     O4   4119 -0.77449700  16.000000   ; qtot -1.439181
 4120         c3    155    ccc     C6   4120 0.37576500  12.010000   ; qtot -1.063416
 4121         ho    155    ccc     H6   4121 0.53656000   1.008000   ; qtot -0.526856
 4122         ho    155    ccc     H7   4122 0.49492100   1.008000   ; qtot -0.031935
 4123         ho    155    ccc     H8   4123 0.51297200   1.008000   ; qtot 0.481037
 4124         h1    155    ccc     H9   4124 0.05653400   1.008000   ; qtot 0.537571
 4125         h1    155    ccc    H10   4125 0.05653400   1.008000   ; qtot 0.594105
 4126         oh    155    ccc     O5   4126 -0.84113600  16.000000   ; qtot -0.247031
 4127         ho    155    ccc    H11   4127 0.51201600   1.008000   ; qtot 0.264985
 4128         os    155    ccc     O6   4128 -0.26013600  16.000000   ; qtot 0.004849
; residue  156 ccc rtp ccc q 0.0
 4129         c3    156    ccc     C1   4129 -0.33178800  12.010000   ; qtot -0.326939
 4130         c3    156    ccc     C2   4130 0.30606500  12.010000   ; qtot -0.020874
 4131         h1    156    ccc     H1   4131 0.11662300   1.008000   ; qtot 0.095749
 4132         h1    156    ccc     H2   4132 0.11526800   1.008000   ; qtot 0.211017
 4133         c3    156    ccc     C3   4133 0.15592700  12.010000   ; qtot 0.366944
 4134         c3    156    ccc     C4   4134 0.28383300  12.010000   ; qtot 0.650777
 4135         c3    156    ccc     C5   4135 0.32403300  12.010000   ; qtot 0.974810
 4136         h1    156    ccc     H3   4136 0.13386900   1.008000   ; qtot 1.108679
 4137         h1    156    ccc     H4   4137 0.10146700   1.008000   ; qtot 1.210146
 4138         h2    156    ccc     H5   4138 0.10960400   1.008000   ; qtot 1.319750
 4139         os    156    ccc     O1   4139 -0.28650000  16.000000   ; qtot 1.033250
 4140         oh    156    ccc     O2   4140 -0.86012500  16.000000   ; qtot 0.173125
 4141         oh    156    ccc     O3   4141 -0.83772800  16.000000   ; qtot -0.664603
 4142         oh    156    ccc     O4   4142 -0.77449700  16.000000   ; qtot -1.439100
 4143         c3    156    ccc     C6   4143 0.37576500  12.010000   ; qtot -1.063335
 4144         ho    156    ccc     H6   4144 0.53656000   1.008000   ; qtot -0.526775
 4145         ho    156    ccc     H7   4145 0.49492100   1.008000   ; qtot -0.031854
 4146         ho    156    ccc     H8   4146 0.51297200   1.008000   ; qtot 0.481118
 4147         h1    156    ccc     H9   4147 0.05653400   1.008000   ; qtot 0.537652
 4148         h1    156    ccc    H10   4148 0.05653400   1.008000   ; qtot 0.594186
 4149         oh    156    ccc     O5   4149 -0.84113600  16.000000   ; qtot -0.246950
 4150         ho    156    ccc    H11   4150 0.51201600   1.008000   ; qtot 0.265066
 4151         os    156    ccc     O6   4151 -0.26013600  16.000000   ; qtot 0.004930
; residue  157 ccc rtp ccc q 0.0
 4152         c3    157    ccc     C1   4152 -0.33178800  12.010000   ; qtot -0.326858
 4153         c3    157    ccc     C2   4153 0.30606500  12.010000   ; qtot -0.020793
 4154         h1    157    ccc     H1   4154 0.11662300   1.008000   ; qtot 0.095830
 4155         h1    157    ccc     H2   4155 0.11526800   1.008000   ; qtot 0.211098
 4156         c3    157    ccc     C3   4156 0.15592700  12.010000   ; qtot 0.367025
 4157         c3    157    ccc     C4   4157 0.28383300  12.010000   ; qtot 0.650858
 4158         c3    157    ccc     C5   4158 0.32403300  12.010000   ; qtot 0.974891
 4159         h1    157    ccc     H3   4159 0.13386900   1.008000   ; qtot 1.108760
 4160         h1    157    ccc     H4   4160 0.10146700   1.008000   ; qtot 1.210227
 4161         h2    157    ccc     H5   4161 0.10960400   1.008000   ; qtot 1.319831
 4162         os    157    ccc     O1   4162 -0.28650000  16.000000   ; qtot 1.033331
 4163         oh    157    ccc     O2   4163 -0.86012500  16.000000   ; qtot 0.173206
 4164         oh    157    ccc     O3   4164 -0.83772800  16.000000   ; qtot -0.664522
 4165         oh    157    ccc     O4   4165 -0.77449700  16.000000   ; qtot -1.439019
 4166         c3    157    ccc     C6   4166 0.37576500  12.010000   ; qtot -1.063254
 4167         ho    157    ccc     H6   4167 0.53656000   1.008000   ; qtot -0.526694
 4168         ho    157    ccc     H7   4168 0.49492100   1.008000   ; qtot -0.031773
 4169         ho    157    ccc     H8   4169 0.51297200   1.008000   ; qtot 0.481199
 4170         h1    157    ccc     H9   4170 0.05653400   1.008000   ; qtot 0.537733
 4171         h1    157    ccc    H10   4171 0.05653400   1.008000   ; qtot 0.594267
 4172         oh    157    ccc     O5   4172 -0.84113600  16.000000   ; qtot -0.246869
 4173         ho    157    ccc    H11   4173 0.51201600   1.008000   ; qtot 0.265147
 4174         os    157    ccc     O6   4174 -0.26013600  16.000000   ; qtot 0.005011
; residue  158 ccc rtp ccc q 0.0
 4175         c3    158    ccc     C1   4175 -0.33178800  12.010000   ; qtot -0.326777
 4176         c3    158    ccc     C2   4176 0.30606500  12.010000   ; qtot -0.020712
 4177         h1    158    ccc     H1   4177 0.11662300   1.008000   ; qtot 0.095911
 4178         h1    158    ccc     H2   4178 0.11526800   1.008000   ; qtot 0.211179
 4179         c3    158    ccc     C3   4179 0.15592700  12.010000   ; qtot 0.367106
 4180         c3    158    ccc     C4   4180 0.28383300  12.010000   ; qtot 0.650939
 4181         c3    158    ccc     C5   4181 0.32403300  12.010000   ; qtot 0.974972
 4182         h1    158    ccc     H3   4182 0.13386900   1.008000   ; qtot 1.108841
 4183         h1    158    ccc     H4   4183 0.10146700   1.008000   ; qtot 1.210308
 4184         h2    158    ccc     H5   4184 0.10960400   1.008000   ; qtot 1.319912
 4185         os    158    ccc     O1   4185 -0.28650000  16.000000   ; qtot 1.033412
 4186         oh    158    ccc     O2   4186 -0.86012500  16.000000   ; qtot 0.173287
 4187         oh    158    ccc     O3   4187 -0.83772800  16.000000   ; qtot -0.664441
 4188         oh    158    ccc     O4   4188 -0.77449700  16.000000   ; qtot -1.438938
 4189         c3    158    ccc     C6   4189 0.37576500  12.010000   ; qtot -1.063173
 4190         ho    158    ccc     H6   4190 0.53656000   1.008000   ; qtot -0.526613
 4191         ho    158    ccc     H7   4191 0.49492100   1.008000   ; qtot -0.031692
 4192         ho    158    ccc     H8   4192 0.51297200   1.008000   ; qtot 0.481280
 4193         h1    158    ccc     H9   4193 0.05653400   1.008000   ; qtot 0.537814
 4194         h1    158    ccc    H10   4194 0.05653400   1.008000   ; qtot 0.594348
 4195         oh    158    ccc     O5   4195 -0.84113600  16.000000   ; qtot -0.246788
 4196         ho    158    ccc    H11   4196 0.51201600   1.008000   ; qtot 0.265228
 4197         os    158    ccc     O6   4197 -0.26013600  16.000000   ; qtot 0.005092
; residue  159 ccc rtp ccc q 0.0
 4198         c3    159    ccc     C1   4198 -0.33178800  12.010000   ; qtot -0.326696
 4199         c3    159    ccc     C2   4199 0.30606500  12.010000   ; qtot -0.020631
 4200         h1    159    ccc     H1   4200 0.11662300   1.008000   ; qtot 0.095992
 4201         h1    159    ccc     H2   4201 0.11526800   1.008000   ; qtot 0.211260
 4202         c3    159    ccc     C3   4202 0.15592700  12.010000   ; qtot 0.367187
 4203         c3    159    ccc     C4   4203 0.28383300  12.010000   ; qtot 0.651020
 4204         c3    159    ccc     C5   4204 0.32403300  12.010000   ; qtot 0.975053
 4205         h1    159    ccc     H3   4205 0.13386900   1.008000   ; qtot 1.108922
 4206         h1    159    ccc     H4   4206 0.10146700   1.008000   ; qtot 1.210389
 4207         h2    159    ccc     H5   4207 0.10960400   1.008000   ; qtot 1.319993
 4208         os    159    ccc     O1   4208 -0.28650000  16.000000   ; qtot 1.033493
 4209         oh    159    ccc     O2   4209 -0.86012500  16.000000   ; qtot 0.173368
 4210         oh    159    ccc     O3   4210 -0.83772800  16.000000   ; qtot -0.664360
 4211         oh    159    ccc     O4   4211 -0.77449700  16.000000   ; qtot -1.438857
 4212         c3    159    ccc     C6   4212 0.37576500  12.010000   ; qtot -1.063092
 4213         ho    159    ccc     H6   4213 0.53656000   1.008000   ; qtot -0.526532
 4214         ho    159    ccc     H7   4214 0.49492100   1.008000   ; qtot -0.031611
 4215         ho    159    ccc     H8   4215 0.51297200   1.008000   ; qtot 0.481361
 4216         h1    159    ccc     H9   4216 0.05653400   1.008000   ; qtot 0.537895
 4217         h1    159    ccc    H10   4217 0.05653400   1.008000   ; qtot 0.594429
 4218         oh    159    ccc     O5   4218 -0.84113600  16.000000   ; qtot -0.246707
 4219         ho    159    ccc    H11   4219 0.51201600   1.008000   ; qtot 0.265309
 4220         os    159    ccc     O6   4220 -0.26013600  16.000000   ; qtot 0.005173
; residue  160 ccc rtp ccc q 0.0
 4221         c3    160    ccc     C1   4221 -0.33178800  12.010000   ; qtot -0.326615
 4222         c3    160    ccc     C2   4222 0.30606500  12.010000   ; qtot -0.020550
 4223         h1    160    ccc     H1   4223 0.11662300   1.008000   ; qtot 0.096073
 4224         h1    160    ccc     H2   4224 0.11526800   1.008000   ; qtot 0.211341
 4225         c3    160    ccc     C3   4225 0.15592700  12.010000   ; qtot 0.367268
 4226         c3    160    ccc     C4   4226 0.28383300  12.010000   ; qtot 0.651101
 4227         c3    160    ccc     C5   4227 0.32403300  12.010000   ; qtot 0.975134
 4228         h1    160    ccc     H3   4228 0.13386900   1.008000   ; qtot 1.109003
 4229         h1    160    ccc     H4   4229 0.10146700   1.008000   ; qtot 1.210470
 4230         h2    160    ccc     H5   4230 0.10960400   1.008000   ; qtot 1.320074
 4231         os    160    ccc     O1   4231 -0.28650000  16.000000   ; qtot 1.033574
 4232         oh    160    ccc     O2   4232 -0.86012500  16.000000   ; qtot 0.173449
 4233         oh    160    ccc     O3   4233 -0.83772800  16.000000   ; qtot -0.664279
 4234         oh    160    ccc     O4   4234 -0.77449700  16.000000   ; qtot -1.438776
 4235         c3    160    ccc     C6   4235 0.37576500  12.010000   ; qtot -1.063011
 4236         ho    160    ccc     H6   4236 0.53656000   1.008000   ; qtot -0.526451
 4237         ho    160    ccc     H7   4237 0.49492100   1.008000   ; qtot -0.031530
 4238         ho    160    ccc     H8   4238 0.51297200   1.008000   ; qtot 0.481442
 4239         h1    160    ccc     H9   4239 0.05653400   1.008000   ; qtot 0.537976
 4240         h1    160    ccc    H10   4240 0.05653400   1.008000   ; qtot 0.594510
 4241         oh    160    ccc     O5   4241 -0.84113600  16.000000   ; qtot -0.246626
 4242         ho    160    ccc    H11   4242 0.51201600   1.008000   ; qtot 0.265390
 4243         os    160    ccc     O6   4243 -0.26013600  16.000000   ; qtot 0.005254
; residue  161 ccc rtp ccc q 0.0
 4244         c3    161    ccc     C1   4244 -0.33178800  12.010000   ; qtot -0.326534
 4245         c3    161    ccc     C2   4245 0.30606500  12.010000   ; qtot -0.020469
 4246         h1    161    ccc     H1   4246 0.11662300   1.008000   ; qtot 0.096154
 4247         h1    161    ccc     H2   4247 0.11526800   1.008000   ; qtot 0.211422
 4248         c3    161    ccc     C3   4248 0.15592700  12.010000   ; qtot 0.367349
 4249         c3    161    ccc     C4   4249 0.28383300  12.010000   ; qtot 0.651182
 4250         c3    161    ccc     C5   4250 0.32403300  12.010000   ; qtot 0.975215
 4251         h1    161    ccc     H3   4251 0.13386900   1.008000   ; qtot 1.109084
 4252         h1    161    ccc     H4   4252 0.10146700   1.008000   ; qtot 1.210551
 4253         h2    161    ccc     H5   4253 0.10960400   1.008000   ; qtot 1.320155
 4254         os    161    ccc     O1   4254 -0.28650000  16.000000   ; qtot 1.033655
 4255         oh    161    ccc     O2   4255 -0.86012500  16.000000   ; qtot 0.173530
 4256         oh    161    ccc     O3   4256 -0.83772800  16.000000   ; qtot -0.664198
 4257         oh    161    ccc     O4   4257 -0.77449700  16.000000   ; qtot -1.438695
 4258         c3    161    ccc     C6   4258 0.37576500  12.010000   ; qtot -1.062930
 4259         ho    161    ccc     H6   4259 0.53656000   1.008000   ; qtot -0.526370
 4260         ho    161    ccc     H7   4260 0.49492100   1.008000   ; qtot -0.031449
 4261         ho    161    ccc     H8   4261 0.51297200   1.008000   ; qtot 0.481523
 4262         h1    161    ccc     H9   4262 0.05653400   1.008000   ; qtot 0.538057
 4263         h1    161    ccc    H10   4263 0.05653400   1.008000   ; qtot 0.594591
 4264         oh    161    ccc     O5   4264 -0.84113600  16.000000   ; qtot -0.246545
 4265         ho    161    ccc    H11   4265 0.51201600   1.008000   ; qtot 0.265471
 4266         os    161    ccc     O6   4266 -0.26013600  16.000000   ; qtot 0.005335
; residue  162 ccc rtp ccc q 0.0
 4267         c3    162    ccc     C1   4267 -0.33178800  12.010000   ; qtot -0.326453
 4268         c3    162    ccc     C2   4268 0.30606500  12.010000   ; qtot -0.020388
 4269         h1    162    ccc     H1   4269 0.11662300   1.008000   ; qtot 0.096235
 4270         h1    162    ccc     H2   4270 0.11526800   1.008000   ; qtot 0.211503
 4271         c3    162    ccc     C3   4271 0.15592700  12.010000   ; qtot 0.367430
 4272         c3    162    ccc     C4   4272 0.28383300  12.010000   ; qtot 0.651263
 4273         c3    162    ccc     C5   4273 0.32403300  12.010000   ; qtot 0.975296
 4274         h1    162    ccc     H3   4274 0.13386900   1.008000   ; qtot 1.109165
 4275         h1    162    ccc     H4   4275 0.10146700   1.008000   ; qtot 1.210632
 4276         h2    162    ccc     H5   4276 0.10960400   1.008000   ; qtot 1.320236
 4277         os    162    ccc     O1   4277 -0.28650000  16.000000   ; qtot 1.033736
 4278         oh    162    ccc     O2   4278 -0.86012500  16.000000   ; qtot 0.173611
 4279         oh    162    ccc     O3   4279 -0.83772800  16.000000   ; qtot -0.664117
 4280         oh    162    ccc     O4   4280 -0.77449700  16.000000   ; qtot -1.438614
 4281         c3    162    ccc     C6   4281 0.37576500  12.010000   ; qtot -1.062849
 4282         ho    162    ccc     H6   4282 0.53656000   1.008000   ; qtot -0.526289
 4283         ho    162    ccc     H7   4283 0.49492100   1.008000   ; qtot -0.031368
 4284         ho    162    ccc     H8   4284 0.51297200   1.008000   ; qtot 0.481604
 4285         h1    162    ccc     H9   4285 0.05653400   1.008000   ; qtot 0.538138
 4286         h1    162    ccc    H10   4286 0.05653400   1.008000   ; qtot 0.594672
 4287         oh    162    ccc     O5   4287 -0.84113600  16.000000   ; qtot -0.246464
 4288         ho    162    ccc    H11   4288 0.51201600   1.008000   ; qtot 0.265552
 4289         os    162    ccc     O6   4289 -0.26013600  16.000000   ; qtot 0.005416
; residue  163 ccc rtp ccc q 0.0
 4290         c3    163    ccc     C1   4290 -0.33178800  12.010000   ; qtot -0.326372
 4291         c3    163    ccc     C2   4291 0.30606500  12.010000   ; qtot -0.020307
 4292         h1    163    ccc     H1   4292 0.11662300   1.008000   ; qtot 0.096316
 4293         h1    163    ccc     H2   4293 0.11526800   1.008000   ; qtot 0.211584
 4294         c3    163    ccc     C3   4294 0.15592700  12.010000   ; qtot 0.367511
 4295         c3    163    ccc     C4   4295 0.28383300  12.010000   ; qtot 0.651344
 4296         c3    163    ccc     C5   4296 0.32403300  12.010000   ; qtot 0.975377
 4297         h1    163    ccc     H3   4297 0.13386900   1.008000   ; qtot 1.109246
 4298         h1    163    ccc     H4   4298 0.10146700   1.008000   ; qtot 1.210713
 4299         h2    163    ccc     H5   4299 0.10960400   1.008000   ; qtot 1.320317
 4300         os    163    ccc     O1   4300 -0.28650000  16.000000   ; qtot 1.033817
 4301         oh    163    ccc     O2   4301 -0.86012500  16.000000   ; qtot 0.173692
 4302         oh    163    ccc     O3   4302 -0.83772800  16.000000   ; qtot -0.664036
 4303         oh    163    ccc     O4   4303 -0.77449700  16.000000   ; qtot -1.438533
 4304         c3    163    ccc     C6   4304 0.37576500  12.010000   ; qtot -1.062768
 4305         ho    163    ccc     H6   4305 0.53656000   1.008000   ; qtot -0.526208
 4306         ho    163    ccc     H7   4306 0.49492100   1.008000   ; qtot -0.031287
 4307         ho    163    ccc     H8   4307 0.51297200   1.008000   ; qtot 0.481685
 4308         h1    163    ccc     H9   4308 0.05653400   1.008000   ; qtot 0.538219
 4309         h1    163    ccc    H10   4309 0.05653400   1.008000   ; qtot 0.594753
 4310         oh    163    ccc     O5   4310 -0.84113600  16.000000   ; qtot -0.246383
 4311         ho    163    ccc    H11   4311 0.51201600   1.008000   ; qtot 0.265633
 4312         os    163    ccc     O6   4312 -0.26013600  16.000000   ; qtot 0.005497
; residue  164 ccc rtp ccc q 0.0
 4313         c3    164    ccc     C1   4313 -0.33178800  12.010000   ; qtot -0.326291
 4314         c3    164    ccc     C2   4314 0.30606500  12.010000   ; qtot -0.020226
 4315         h1    164    ccc     H1   4315 0.11662300   1.008000   ; qtot 0.096397
 4316         h1    164    ccc     H2   4316 0.11526800   1.008000   ; qtot 0.211665
 4317         c3    164    ccc     C3   4317 0.15592700  12.010000   ; qtot 0.367592
 4318         c3    164    ccc     C4   4318 0.28383300  12.010000   ; qtot 0.651425
 4319         c3    164    ccc     C5   4319 0.32403300  12.010000   ; qtot 0.975458
 4320         h1    164    ccc     H3   4320 0.13386900   1.008000   ; qtot 1.109327
 4321         h1    164    ccc     H4   4321 0.10146700   1.008000   ; qtot 1.210794
 4322         h2    164    ccc     H5   4322 0.10960400   1.008000   ; qtot 1.320398
 4323         os    164    ccc     O1   4323 -0.28650000  16.000000   ; qtot 1.033898
 4324         oh    164    ccc     O2   4324 -0.86012500  16.000000   ; qtot 0.173773
 4325         oh    164    ccc     O3   4325 -0.83772800  16.000000   ; qtot -0.663955
 4326         oh    164    ccc     O4   4326 -0.77449700  16.000000   ; qtot -1.438452
 4327         c3    164    ccc     C6   4327 0.37576500  12.010000   ; qtot -1.062687
 4328         ho    164    ccc     H6   4328 0.53656000   1.008000   ; qtot -0.526127
 4329         ho    164    ccc     H7   4329 0.49492100   1.008000   ; qtot -0.031206
 4330         ho    164    ccc     H8   4330 0.51297200   1.008000   ; qtot 0.481766
 4331         h1    164    ccc     H9   4331 0.05653400   1.008000   ; qtot 0.538300
 4332         h1    164    ccc    H10   4332 0.05653400   1.008000   ; qtot 0.594834
 4333         oh    164    ccc     O5   4333 -0.84113600  16.000000   ; qtot -0.246302
 4334         ho    164    ccc    H11   4334 0.51201600   1.008000   ; qtot 0.265714
 4335         os    164    ccc     O6   4335 -0.26013600  16.000000   ; qtot 0.005578
; residue  165 ccc rtp ccc q 0.0
 4336         c3    165    ccc     C1   4336 -0.33178800  12.010000   ; qtot -0.326210
 4337         c3    165    ccc     C2   4337 0.30606500  12.010000   ; qtot -0.020145
 4338         h1    165    ccc     H1   4338 0.11662300   1.008000   ; qtot 0.096478
 4339         h1    165    ccc     H2   4339 0.11526800   1.008000   ; qtot 0.211746
 4340         c3    165    ccc     C3   4340 0.15592700  12.010000   ; qtot 0.367673
 4341         c3    165    ccc     C4   4341 0.28383300  12.010000   ; qtot 0.651506
 4342         c3    165    ccc     C5   4342 0.32403300  12.010000   ; qtot 0.975539
 4343         h1    165    ccc     H3   4343 0.13386900   1.008000   ; qtot 1.109408
 4344         h1    165    ccc     H4   4344 0.10146700   1.008000   ; qtot 1.210875
 4345         h2    165    ccc     H5   4345 0.10960400   1.008000   ; qtot 1.320479
 4346         os    165    ccc     O1   4346 -0.28650000  16.000000   ; qtot 1.033979
 4347         oh    165    ccc     O2   4347 -0.86012500  16.000000   ; qtot 0.173854
 4348         oh    165    ccc     O3   4348 -0.83772800  16.000000   ; qtot -0.663874
 4349         oh    165    ccc     O4   4349 -0.77449700  16.000000   ; qtot -1.438371
 4350         c3    165    ccc     C6   4350 0.37576500  12.010000   ; qtot -1.062606
 4351         ho    165    ccc     H6   4351 0.53656000   1.008000   ; qtot -0.526046
 4352         ho    165    ccc     H7   4352 0.49492100   1.008000   ; qtot -0.031125
 4353         ho    165    ccc     H8   4353 0.51297200   1.008000   ; qtot 0.481847
 4354         h1    165    ccc     H9   4354 0.05653400   1.008000   ; qtot 0.538381
 4355         h1    165    ccc    H10   4355 0.05653400   1.008000   ; qtot 0.594915
 4356         oh    165    ccc     O5   4356 -0.84113600  16.000000   ; qtot -0.246221
 4357         ho    165    ccc    H11   4357 0.51201600   1.008000   ; qtot 0.265795
 4358         os    165    ccc     O6   4358 -0.26013600  16.000000   ; qtot 0.005659
; residue  166 ccc rtp ccc q 0.0
 4359         c3    166    ccc     C1   4359 -0.33178800  12.010000   ; qtot -0.326129
 4360         c3    166    ccc     C2   4360 0.30606500  12.010000   ; qtot -0.020064
 4361         h1    166    ccc     H1   4361 0.11662300   1.008000   ; qtot 0.096559
 4362         h1    166    ccc     H2   4362 0.11526800   1.008000   ; qtot 0.211827
 4363         c3    166    ccc     C3   4363 0.15592700  12.010000   ; qtot 0.367754
 4364         c3    166    ccc     C4   4364 0.28383300  12.010000   ; qtot 0.651587
 4365         c3    166    ccc     C5   4365 0.32403300  12.010000   ; qtot 0.975620
 4366         h1    166    ccc     H3   4366 0.13386900   1.008000   ; qtot 1.109489
 4367         h1    166    ccc     H4   4367 0.10146700   1.008000   ; qtot 1.210956
 4368         h2    166    ccc     H5   4368 0.10960400   1.008000   ; qtot 1.320560
 4369         os    166    ccc     O1   4369 -0.28650000  16.000000   ; qtot 1.034060
 4370         oh    166    ccc     O2   4370 -0.86012500  16.000000   ; qtot 0.173935
 4371         oh    166    ccc     O3   4371 -0.83772800  16.000000   ; qtot -0.663793
 4372         oh    166    ccc     O4   4372 -0.77449700  16.000000   ; qtot -1.438290
 4373         c3    166    ccc     C6   4373 0.37576500  12.010000   ; qtot -1.062525
 4374         ho    166    ccc     H6   4374 0.53656000   1.008000   ; qtot -0.525965
 4375         ho    166    ccc     H7   4375 0.49492100   1.008000   ; qtot -0.031044
 4376         ho    166    ccc     H8   4376 0.51297200   1.008000   ; qtot 0.481928
 4377         h1    166    ccc     H9   4377 0.05653400   1.008000   ; qtot 0.538462
 4378         h1    166    ccc    H10   4378 0.05653400   1.008000   ; qtot 0.594996
 4379         oh    166    ccc     O5   4379 -0.84113600  16.000000   ; qtot -0.246140
 4380         ho    166    ccc    H11   4380 0.51201600   1.008000   ; qtot 0.265876
 4381         os    166    ccc     O6   4381 -0.26013600  16.000000   ; qtot 0.005740
; residue  167 ccc rtp ccc q 0.0
 4382         c3    167    ccc     C1   4382 -0.33178800  12.010000   ; qtot -0.326048
 4383         c3    167    ccc     C2   4383 0.30606500  12.010000   ; qtot -0.019983
 4384         h1    167    ccc     H1   4384 0.11662300   1.008000   ; qtot 0.096640
 4385         h1    167    ccc     H2   4385 0.11526800   1.008000   ; qtot 0.211908
 4386         c3    167    ccc     C3   4386 0.15592700  12.010000   ; qtot 0.367835
 4387         c3    167    ccc     C4   4387 0.28383300  12.010000   ; qtot 0.651668
 4388         c3    167    ccc     C5   4388 0.32403300  12.010000   ; qtot 0.975701
 4389         h1    167    ccc     H3   4389 0.13386900   1.008000   ; qtot 1.109570
 4390         h1    167    ccc     H4   4390 0.10146700   1.008000   ; qtot 1.211037
 4391         h2    167    ccc     H5   4391 0.10960400   1.008000   ; qtot 1.320641
 4392         os    167    ccc     O1   4392 -0.28650000  16.000000   ; qtot 1.034141
 4393         oh    167    ccc     O2   4393 -0.86012500  16.000000   ; qtot 0.174016
 4394         oh    167    ccc     O3   4394 -0.83772800  16.000000   ; qtot -0.663712
 4395         oh    167    ccc     O4   4395 -0.77449700  16.000000   ; qtot -1.438209
 4396         c3    167    ccc     C6   4396 0.37576500  12.010000   ; qtot -1.062444
 4397         ho    167    ccc     H6   4397 0.53656000   1.008000   ; qtot -0.525884
 4398         ho    167    ccc     H7   4398 0.49492100   1.008000   ; qtot -0.030963
 4399         ho    167    ccc     H8   4399 0.51297200   1.008000   ; qtot 0.482009
 4400         h1    167    ccc     H9   4400 0.05653400   1.008000   ; qtot 0.538543
 4401         h1    167    ccc    H10   4401 0.05653400   1.008000   ; qtot 0.595077
 4402         oh    167    ccc     O5   4402 -0.84113600  16.000000   ; qtot -0.246059
 4403         ho    167    ccc    H11   4403 0.51201600   1.008000   ; qtot 0.265957
 4404         os    167    ccc     O6   4404 -0.26013600  16.000000   ; qtot 0.005821
; residue  168 ccc rtp ccc q 0.0
 4405         c3    168    ccc     C1   4405 -0.33178800  12.010000   ; qtot -0.325967
 4406         c3    168    ccc     C2   4406 0.30606500  12.010000   ; qtot -0.019902
 4407         h1    168    ccc     H1   4407 0.11662300   1.008000   ; qtot 0.096721
 4408         h1    168    ccc     H2   4408 0.11526800   1.008000   ; qtot 0.211989
 4409         c3    168    ccc     C3   4409 0.15592700  12.010000   ; qtot 0.367916
 4410         c3    168    ccc     C4   4410 0.28383300  12.010000   ; qtot 0.651749
 4411         c3    168    ccc     C5   4411 0.32403300  12.010000   ; qtot 0.975782
 4412         h1    168    ccc     H3   4412 0.13386900   1.008000   ; qtot 1.109651
 4413         h1    168    ccc     H4   4413 0.10146700   1.008000   ; qtot 1.211118
 4414         h2    168    ccc     H5   4414 0.10960400   1.008000   ; qtot 1.320722
 4415         os    168    ccc     O1   4415 -0.28650000  16.000000   ; qtot 1.034222
 4416         oh    168    ccc     O2   4416 -0.86012500  16.000000   ; qtot 0.174097
 4417         oh    168    ccc     O3   4417 -0.83772800  16.000000   ; qtot -0.663631
 4418         oh    168    ccc     O4   4418 -0.77449700  16.000000   ; qtot -1.438128
 4419         c3    168    ccc     C6   4419 0.37576500  12.010000   ; qtot -1.062363
 4420         ho    168    ccc     H6   4420 0.53656000   1.008000   ; qtot -0.525803
 4421         ho    168    ccc     H7   4421 0.49492100   1.008000   ; qtot -0.030882
 4422         ho    168    ccc     H8   4422 0.51297200   1.008000   ; qtot 0.482090
 4423         h1    168    ccc     H9   4423 0.05653400   1.008000   ; qtot 0.538624
 4424         h1    168    ccc    H10   4424 0.05653400   1.008000   ; qtot 0.595158
 4425         oh    168    ccc     O5   4425 -0.84113600  16.000000   ; qtot -0.245978
 4426         ho    168    ccc    H11   4426 0.51201600   1.008000   ; qtot 0.266038
 4427         os    168    ccc     O6   4427 -0.26013600  16.000000   ; qtot 0.005902
; residue  169 ccc rtp ccc q 0.0
 4428         c3    169    ccc     C1   4428 -0.33178800  12.010000   ; qtot -0.325886
 4429         c3    169    ccc     C2   4429 0.30606500  12.010000   ; qtot -0.019821
 4430         h1    169    ccc     H1   4430 0.11662300   1.008000   ; qtot 0.096802
 4431         h1    169    ccc     H2   4431 0.11526800   1.008000   ; qtot 0.212070
 4432         c3    169    ccc     C3   4432 0.15592700  12.010000   ; qtot 0.367997
 4433         c3    169    ccc     C4   4433 0.28383300  12.010000   ; qtot 0.651830
 4434         c3    169    ccc     C5   4434 0.32403300  12.010000   ; qtot 0.975863
 4435         h1    169    ccc     H3   4435 0.13386900   1.008000   ; qtot 1.109732
 4436         h1    169    ccc     H4   4436 0.10146700   1.008000   ; qtot 1.211199
 4437         h2    169    ccc     H5   4437 0.10960400   1.008000   ; qtot 1.320803
 4438         os    169    ccc     O1   4438 -0.28650000  16.000000   ; qtot 1.034303
 4439         oh    169    ccc     O2   4439 -0.86012500  16.000000   ; qtot 0.174178
 4440         oh    169    ccc     O3   4440 -0.83772800  16.000000   ; qtot -0.663550
 4441         oh    169    ccc     O4   4441 -0.77449700  16.000000   ; qtot -1.438047
 4442         c3    169    ccc     C6   4442 0.37576500  12.010000   ; qtot -1.062282
 4443         ho    169    ccc     H6   4443 0.53656000   1.008000   ; qtot -0.525722
 4444         ho    169    ccc     H7   4444 0.49492100   1.008000   ; qtot -0.030801
 4445         ho    169    ccc     H8   4445 0.51297200   1.008000   ; qtot 0.482171
 4446         h1    169    ccc     H9   4446 0.05653400   1.008000   ; qtot 0.538705
 4447         h1    169    ccc    H10   4447 0.05653400   1.008000   ; qtot 0.595239
 4448         oh    169    ccc     O5   4448 -0.84113600  16.000000   ; qtot -0.245897
 4449         ho    169    ccc    H11   4449 0.51201600   1.008000   ; qtot 0.266119
 4450         os    169    ccc     O6   4450 -0.26013600  16.000000   ; qtot 0.005983
; residue  170 ccc rtp ccc q 0.0
 4451         c3    170    ccc     C1   4451 -0.33178800  12.010000   ; qtot -0.325805
 4452         c3    170    ccc     C2   4452 0.30606500  12.010000   ; qtot -0.019740
 4453         h1    170    ccc     H1   4453 0.11662300   1.008000   ; qtot 0.096883
 4454         h1    170    ccc     H2   4454 0.11526800   1.008000   ; qtot 0.212151
 4455         c3    170    ccc     C3   4455 0.15592700  12.010000   ; qtot 0.368078
 4456         c3    170    ccc     C4   4456 0.28383300  12.010000   ; qtot 0.651911
 4457         c3    170    ccc     C5   4457 0.32403300  12.010000   ; qtot 0.975944
 4458         h1    170    ccc     H3   4458 0.13386900   1.008000   ; qtot 1.109813
 4459         h1    170    ccc     H4   4459 0.10146700   1.008000   ; qtot 1.211280
 4460         h2    170    ccc     H5   4460 0.10960400   1.008000   ; qtot 1.320884
 4461         os    170    ccc     O1   4461 -0.28650000  16.000000   ; qtot 1.034384
 4462         oh    170    ccc     O2   4462 -0.86012500  16.000000   ; qtot 0.174259
 4463         oh    170    ccc     O3   4463 -0.83772800  16.000000   ; qtot -0.663469
 4464         oh    170    ccc     O4   4464 -0.77449700  16.000000   ; qtot -1.437966
 4465         c3    170    ccc     C6   4465 0.37576500  12.010000   ; qtot -1.062201
 4466         ho    170    ccc     H6   4466 0.53656000   1.008000   ; qtot -0.525641
 4467         ho    170    ccc     H7   4467 0.49492100   1.008000   ; qtot -0.030720
 4468         ho    170    ccc     H8   4468 0.51297200   1.008000   ; qtot 0.482252
 4469         h1    170    ccc     H9   4469 0.05653400   1.008000   ; qtot 0.538786
 4470         h1    170    ccc    H10   4470 0.05653400   1.008000   ; qtot 0.595320
 4471         oh    170    ccc     O5   4471 -0.84113600  16.000000   ; qtot -0.245816
 4472         ho    170    ccc    H11   4472 0.51201600   1.008000   ; qtot 0.266200
 4473         os    170    ccc     O6   4473 -0.26013600  16.000000   ; qtot 0.006064
; residue  171 ccc rtp ccc q 0.0
 4474         c3    171    ccc     C1   4474 -0.33178800  12.010000   ; qtot -0.325724
 4475         c3    171    ccc     C2   4475 0.30606500  12.010000   ; qtot -0.019659
 4476         h1    171    ccc     H1   4476 0.11662300   1.008000   ; qtot 0.096964
 4477         h1    171    ccc     H2   4477 0.11526800   1.008000   ; qtot 0.212232
 4478         c3    171    ccc     C3   4478 0.15592700  12.010000   ; qtot 0.368159
 4479         c3    171    ccc     C4   4479 0.28383300  12.010000   ; qtot 0.651992
 4480         c3    171    ccc     C5   4480 0.32403300  12.010000   ; qtot 0.976025
 4481         h1    171    ccc     H3   4481 0.13386900   1.008000   ; qtot 1.109894
 4482         h1    171    ccc     H4   4482 0.10146700   1.008000   ; qtot 1.211361
 4483         h2    171    ccc     H5   4483 0.10960400   1.008000   ; qtot 1.320965
 4484         os    171    ccc     O1   4484 -0.28650000  16.000000   ; qtot 1.034465
 4485         oh    171    ccc     O2   4485 -0.86012500  16.000000   ; qtot 0.174340
 4486         oh    171    ccc     O3   4486 -0.83772800  16.000000   ; qtot -0.663388
 4487         oh    171    ccc     O4   4487 -0.77449700  16.000000   ; qtot -1.437885
 4488         c3    171    ccc     C6   4488 0.37576500  12.010000   ; qtot -1.062120
 4489         ho    171    ccc     H6   4489 0.53656000   1.008000   ; qtot -0.525560
 4490         ho    171    ccc     H7   4490 0.49492100   1.008000   ; qtot -0.030639
 4491         ho    171    ccc     H8   4491 0.51297200   1.008000   ; qtot 0.482333
 4492         h1    171    ccc     H9   4492 0.05653400   1.008000   ; qtot 0.538867
 4493         h1    171    ccc    H10   4493 0.05653400   1.008000   ; qtot 0.595401
 4494         oh    171    ccc     O5   4494 -0.84113600  16.000000   ; qtot -0.245735
 4495         ho    171    ccc    H11   4495 0.51201600   1.008000   ; qtot 0.266281
 4496         os    171    ccc     O6   4496 -0.26013600  16.000000   ; qtot 0.006145
; residue  172 ccc rtp ccc q 0.0
 4497         c3    172    ccc     C1   4497 -0.33178800  12.010000   ; qtot -0.325643
 4498         c3    172    ccc     C2   4498 0.30606500  12.010000   ; qtot -0.019578
 4499         h1    172    ccc     H1   4499 0.11662300   1.008000   ; qtot 0.097045
 4500         h1    172    ccc     H2   4500 0.11526800   1.008000   ; qtot 0.212313
 4501         c3    172    ccc     C3   4501 0.15592700  12.010000   ; qtot 0.368240
 4502         c3    172    ccc     C4   4502 0.28383300  12.010000   ; qtot 0.652073
 4503         c3    172    ccc     C5   4503 0.32403300  12.010000   ; qtot 0.976106
 4504         h1    172    ccc     H3   4504 0.13386900   1.008000   ; qtot 1.109975
 4505         h1    172    ccc     H4   4505 0.10146700   1.008000   ; qtot 1.211442
 4506         h2    172    ccc     H5   4506 0.10960400   1.008000   ; qtot 1.321046
 4507         os    172    ccc     O1   4507 -0.28650000  16.000000   ; qtot 1.034546
 4508         oh    172    ccc     O2   4508 -0.86012500  16.000000   ; qtot 0.174421
 4509         oh    172    ccc     O3   4509 -0.83772800  16.000000   ; qtot -0.663307
 4510         oh    172    ccc     O4   4510 -0.77449700  16.000000   ; qtot -1.437804
 4511         c3    172    ccc     C6   4511 0.37576500  12.010000   ; qtot -1.062039
 4512         ho    172    ccc     H6   4512 0.53656000   1.008000   ; qtot -0.525479
 4513         ho    172    ccc     H7   4513 0.49492100   1.008000   ; qtot -0.030558
 4514         ho    172    ccc     H8   4514 0.51297200   1.008000   ; qtot 0.482414
 4515         h1    172    ccc     H9   4515 0.05653400   1.008000   ; qtot 0.538948
 4516         h1    172    ccc    H10   4516 0.05653400   1.008000   ; qtot 0.595482
 4517         oh    172    ccc     O5   4517 -0.84113600  16.000000   ; qtot -0.245654
 4518         ho    172    ccc    H11   4518 0.51201600   1.008000   ; qtot 0.266362
 4519         os    172    ccc     O6   4519 -0.26013600  16.000000   ; qtot 0.006226
; residue  173 ccc rtp ccc q 0.0
 4520         c3    173    ccc     C1   4520 -0.33178800  12.010000   ; qtot -0.325562
 4521         c3    173    ccc     C2   4521 0.30606500  12.010000   ; qtot -0.019497
 4522         h1    173    ccc     H1   4522 0.11662300   1.008000   ; qtot 0.097126
 4523         h1    173    ccc     H2   4523 0.11526800   1.008000   ; qtot 0.212394
 4524         c3    173    ccc     C3   4524 0.15592700  12.010000   ; qtot 0.368321
 4525         c3    173    ccc     C4   4525 0.28383300  12.010000   ; qtot 0.652154
 4526         c3    173    ccc     C5   4526 0.32403300  12.010000   ; qtot 0.976187
 4527         h1    173    ccc     H3   4527 0.13386900   1.008000   ; qtot 1.110056
 4528         h1    173    ccc     H4   4528 0.10146700   1.008000   ; qtot 1.211523
 4529         h2    173    ccc     H5   4529 0.10960400   1.008000   ; qtot 1.321127
 4530         os    173    ccc     O1   4530 -0.28650000  16.000000   ; qtot 1.034627
 4531         oh    173    ccc     O2   4531 -0.86012500  16.000000   ; qtot 0.174502
 4532         oh    173    ccc     O3   4532 -0.83772800  16.000000   ; qtot -0.663226
 4533         oh    173    ccc     O4   4533 -0.77449700  16.000000   ; qtot -1.437723
 4534         c3    173    ccc     C6   4534 0.37576500  12.010000   ; qtot -1.061958
 4535         ho    173    ccc     H6   4535 0.53656000   1.008000   ; qtot -0.525398
 4536         ho    173    ccc     H7   4536 0.49492100   1.008000   ; qtot -0.030477
 4537         ho    173    ccc     H8   4537 0.51297200   1.008000   ; qtot 0.482495
 4538         h1    173    ccc     H9   4538 0.05653400   1.008000   ; qtot 0.539029
 4539         h1    173    ccc    H10   4539 0.05653400   1.008000   ; qtot 0.595563
 4540         oh    173    ccc     O5   4540 -0.84113600  16.000000   ; qtot -0.245573
 4541         ho    173    ccc    H11   4541 0.51201600   1.008000   ; qtot 0.266443
 4542         os    173    ccc     O6   4542 -0.26013600  16.000000   ; qtot 0.006307
; residue  174 ccc rtp ccc q 0.0
 4543         c3    174    ccc     C1   4543 -0.33178800  12.010000   ; qtot -0.325481
 4544         c3    174    ccc     C2   4544 0.30606500  12.010000   ; qtot -0.019416
 4545         h1    174    ccc     H1   4545 0.11662300   1.008000   ; qtot 0.097207
 4546         h1    174    ccc     H2   4546 0.11526800   1.008000   ; qtot 0.212475
 4547         c3    174    ccc     C3   4547 0.15592700  12.010000   ; qtot 0.368402
 4548         c3    174    ccc     C4   4548 0.28383300  12.010000   ; qtot 0.652235
 4549         c3    174    ccc     C5   4549 0.32403300  12.010000   ; qtot 0.976268
 4550         h1    174    ccc     H3   4550 0.13386900   1.008000   ; qtot 1.110137
 4551         h1    174    ccc     H4   4551 0.10146700   1.008000   ; qtot 1.211604
 4552         h2    174    ccc     H5   4552 0.10960400   1.008000   ; qtot 1.321208
 4553         os    174    ccc     O1   4553 -0.28650000  16.000000   ; qtot 1.034708
 4554         oh    174    ccc     O2   4554 -0.86012500  16.000000   ; qtot 0.174583
 4555         oh    174    ccc     O3   4555 -0.83772800  16.000000   ; qtot -0.663145
 4556         oh    174    ccc     O4   4556 -0.77449700  16.000000   ; qtot -1.437642
 4557         c3    174    ccc     C6   4557 0.37576500  12.010000   ; qtot -1.061877
 4558         ho    174    ccc     H6   4558 0.53656000   1.008000   ; qtot -0.525317
 4559         ho    174    ccc     H7   4559 0.49492100   1.008000   ; qtot -0.030396
 4560         ho    174    ccc     H8   4560 0.51297200   1.008000   ; qtot 0.482576
 4561         h1    174    ccc     H9   4561 0.05653400   1.008000   ; qtot 0.539110
 4562         h1    174    ccc    H10   4562 0.05653400   1.008000   ; qtot 0.595644
 4563         oh    174    ccc     O5   4563 -0.84113600  16.000000   ; qtot -0.245492
 4564         ho    174    ccc    H11   4564 0.51201600   1.008000   ; qtot 0.266524
 4565         os    174    ccc     O6   4565 -0.26013600  16.000000   ; qtot 0.006388
; residue  175 ccc rtp ccc q 0.0
 4566         c3    175    ccc     C1   4566 -0.33178800  12.010000   ; qtot -0.325400
 4567         c3    175    ccc     C2   4567 0.30606500  12.010000   ; qtot -0.019335
 4568         h1    175    ccc     H1   4568 0.11662300   1.008000   ; qtot 0.097288
 4569         h1    175    ccc     H2   4569 0.11526800   1.008000   ; qtot 0.212556
 4570         c3    175    ccc     C3   4570 0.15592700  12.010000   ; qtot 0.368483
 4571         c3    175    ccc     C4   4571 0.28383300  12.010000   ; qtot 0.652316
 4572         c3    175    ccc     C5   4572 0.32403300  12.010000   ; qtot 0.976349
 4573         h1    175    ccc     H3   4573 0.13386900   1.008000   ; qtot 1.110218
 4574         h1    175    ccc     H4   4574 0.10146700   1.008000   ; qtot 1.211685
 4575         h2    175    ccc     H5   4575 0.10960400   1.008000   ; qtot 1.321289
 4576         os    175    ccc     O1   4576 -0.28650000  16.000000   ; qtot 1.034789
 4577         oh    175    ccc     O2   4577 -0.86012500  16.000000   ; qtot 0.174664
 4578         oh    175    ccc     O3   4578 -0.83772800  16.000000   ; qtot -0.663064
 4579         oh    175    ccc     O4   4579 -0.77449700  16.000000   ; qtot -1.437561
 4580         c3    175    ccc     C6   4580 0.37576500  12.010000   ; qtot -1.061796
 4581         ho    175    ccc     H6   4581 0.53656000   1.008000   ; qtot -0.525236
 4582         ho    175    ccc     H7   4582 0.49492100   1.008000   ; qtot -0.030315
 4583         ho    175    ccc     H8   4583 0.51297200   1.008000   ; qtot 0.482657
 4584         h1    175    ccc     H9   4584 0.05653400   1.008000   ; qtot 0.539191
 4585         h1    175    ccc    H10   4585 0.05653400   1.008000   ; qtot 0.595725
 4586         oh    175    ccc     O5   4586 -0.84113600  16.000000   ; qtot -0.245411
 4587         ho    175    ccc    H11   4587 0.51201600   1.008000   ; qtot 0.266605
 4588         os    175    ccc     O6   4588 -0.26013600  16.000000   ; qtot 0.006469
; residue  176 ccc rtp ccc q 0.0
 4589         c3    176    ccc     C1   4589 -0.33178800  12.010000   ; qtot -0.325319
 4590         c3    176    ccc     C2   4590 0.30606500  12.010000   ; qtot -0.019254
 4591         h1    176    ccc     H1   4591 0.11662300   1.008000   ; qtot 0.097369
 4592         h1    176    ccc     H2   4592 0.11526800   1.008000   ; qtot 0.212637
 4593         c3    176    ccc     C3   4593 0.15592700  12.010000   ; qtot 0.368564
 4594         c3    176    ccc     C4   4594 0.28383300  12.010000   ; qtot 0.652397
 4595         c3    176    ccc     C5   4595 0.32403300  12.010000   ; qtot 0.976430
 4596         h1    176    ccc     H3   4596 0.13386900   1.008000   ; qtot 1.110299
 4597         h1    176    ccc     H4   4597 0.10146700   1.008000   ; qtot 1.211766
 4598         h2    176    ccc     H5   4598 0.10960400   1.008000   ; qtot 1.321370
 4599         os    176    ccc     O1   4599 -0.28650000  16.000000   ; qtot 1.034870
 4600         oh    176    ccc     O2   4600 -0.86012500  16.000000   ; qtot 0.174745
 4601         oh    176    ccc     O3   4601 -0.83772800  16.000000   ; qtot -0.662983
 4602         oh    176    ccc     O4   4602 -0.77449700  16.000000   ; qtot -1.437480
 4603         c3    176    ccc     C6   4603 0.37576500  12.010000   ; qtot -1.061715
 4604         ho    176    ccc     H6   4604 0.53656000   1.008000   ; qtot -0.525155
 4605         ho    176    ccc     H7   4605 0.49492100   1.008000   ; qtot -0.030234
 4606         ho    176    ccc     H8   4606 0.51297200   1.008000   ; qtot 0.482738
 4607         h1    176    ccc     H9   4607 0.05653400   1.008000   ; qtot 0.539272
 4608         h1    176    ccc    H10   4608 0.05653400   1.008000   ; qtot 0.595806
 4609         oh    176    ccc     O5   4609 -0.84113600  16.000000   ; qtot -0.245330
 4610         ho    176    ccc    H11   4610 0.51201600   1.008000   ; qtot 0.266686
 4611         os    176    ccc     O6   4611 -0.26013600  16.000000   ; qtot 0.006550
; residue  177 ccc rtp ccc q 0.0
 4612         c3    177    ccc     C1   4612 -0.33178800  12.010000   ; qtot -0.325238
 4613         c3    177    ccc     C2   4613 0.30606500  12.010000   ; qtot -0.019173
 4614         h1    177    ccc     H1   4614 0.11662300   1.008000   ; qtot 0.097450
 4615         h1    177    ccc     H2   4615 0.11526800   1.008000   ; qtot 0.212718
 4616         c3    177    ccc     C3   4616 0.15592700  12.010000   ; qtot 0.368645
 4617         c3    177    ccc     C4   4617 0.28383300  12.010000   ; qtot 0.652478
 4618         c3    177    ccc     C5   4618 0.32403300  12.010000   ; qtot 0.976511
 4619         h1    177    ccc     H3   4619 0.13386900   1.008000   ; qtot 1.110380
 4620         h1    177    ccc     H4   4620 0.10146700   1.008000   ; qtot 1.211847
 4621         h2    177    ccc     H5   4621 0.10960400   1.008000   ; qtot 1.321451
 4622         os    177    ccc     O1   4622 -0.28650000  16.000000   ; qtot 1.034951
 4623         oh    177    ccc     O2   4623 -0.86012500  16.000000   ; qtot 0.174826
 4624         oh    177    ccc     O3   4624 -0.83772800  16.000000   ; qtot -0.662902
 4625         oh    177    ccc     O4   4625 -0.77449700  16.000000   ; qtot -1.437399
 4626         c3    177    ccc     C6   4626 0.37576500  12.010000   ; qtot -1.061634
 4627         ho    177    ccc     H6   4627 0.53656000   1.008000   ; qtot -0.525074
 4628         ho    177    ccc     H7   4628 0.49492100   1.008000   ; qtot -0.030153
 4629         ho    177    ccc     H8   4629 0.51297200   1.008000   ; qtot 0.482819
 4630         h1    177    ccc     H9   4630 0.05653400   1.008000   ; qtot 0.539353
 4631         h1    177    ccc    H10   4631 0.05653400   1.008000   ; qtot 0.595887
 4632         oh    177    ccc     O5   4632 -0.84113600  16.000000   ; qtot -0.245249
 4633         ho    177    ccc    H11   4633 0.51201600   1.008000   ; qtot 0.266767
 4634         os    177    ccc     O6   4634 -0.26013600  16.000000   ; qtot 0.006631
; residue  178 ccc rtp ccc q 0.0
 4635         c3    178    ccc     C1   4635 -0.33178800  12.010000   ; qtot -0.325157
 4636         c3    178    ccc     C2   4636 0.30606500  12.010000   ; qtot -0.019092
 4637         h1    178    ccc     H1   4637 0.11662300   1.008000   ; qtot 0.097531
 4638         h1    178    ccc     H2   4638 0.11526800   1.008000   ; qtot 0.212799
 4639         c3    178    ccc     C3   4639 0.15592700  12.010000   ; qtot 0.368726
 4640         c3    178    ccc     C4   4640 0.28383300  12.010000   ; qtot 0.652559
 4641         c3    178    ccc     C5   4641 0.32403300  12.010000   ; qtot 0.976592
 4642         h1    178    ccc     H3   4642 0.13386900   1.008000   ; qtot 1.110461
 4643         h1    178    ccc     H4   4643 0.10146700   1.008000   ; qtot 1.211928
 4644         h2    178    ccc     H5   4644 0.10960400   1.008000   ; qtot 1.321532
 4645         os    178    ccc     O1   4645 -0.28650000  16.000000   ; qtot 1.035032
 4646         oh    178    ccc     O2   4646 -0.86012500  16.000000   ; qtot 0.174907
 4647         oh    178    ccc     O3   4647 -0.83772800  16.000000   ; qtot -0.662821
 4648         oh    178    ccc     O4   4648 -0.77449700  16.000000   ; qtot -1.437318
 4649         c3    178    ccc     C6   4649 0.37576500  12.010000   ; qtot -1.061553
 4650         ho    178    ccc     H6   4650 0.53656000   1.008000   ; qtot -0.524993
 4651         ho    178    ccc     H7   4651 0.49492100   1.008000   ; qtot -0.030072
 4652         ho    178    ccc     H8   4652 0.51297200   1.008000   ; qtot 0.482900
 4653         h1    178    ccc     H9   4653 0.05653400   1.008000   ; qtot 0.539434
 4654         h1    178    ccc    H10   4654 0.05653400   1.008000   ; qtot 0.595968
 4655         oh    178    ccc     O5   4655 -0.84113600  16.000000   ; qtot -0.245168
 4656         ho    178    ccc    H11   4656 0.51201600   1.008000   ; qtot 0.266848
 4657         os    178    ccc     O6   4657 -0.26013600  16.000000   ; qtot 0.006712
; residue  179 ccc rtp ccc q 0.0
 4658         c3    179    ccc     C1   4658 -0.33178800  12.010000   ; qtot -0.325076
 4659         c3    179    ccc     C2   4659 0.30606500  12.010000   ; qtot -0.019011
 4660         h1    179    ccc     H1   4660 0.11662300   1.008000   ; qtot 0.097612
 4661         h1    179    ccc     H2   4661 0.11526800   1.008000   ; qtot 0.212880
 4662         c3    179    ccc     C3   4662 0.15592700  12.010000   ; qtot 0.368807
 4663         c3    179    ccc     C4   4663 0.28383300  12.010000   ; qtot 0.652640
 4664         c3    179    ccc     C5   4664 0.32403300  12.010000   ; qtot 0.976673
 4665         h1    179    ccc     H3   4665 0.13386900   1.008000   ; qtot 1.110542
 4666         h1    179    ccc     H4   4666 0.10146700   1.008000   ; qtot 1.212009
 4667         h2    179    ccc     H5   4667 0.10960400   1.008000   ; qtot 1.321613
 4668         os    179    ccc     O1   4668 -0.28650000  16.000000   ; qtot 1.035113
 4669         oh    179    ccc     O2   4669 -0.86012500  16.000000   ; qtot 0.174988
 4670         oh    179    ccc     O3   4670 -0.83772800  16.000000   ; qtot -0.662740
 4671         oh    179    ccc     O4   4671 -0.77449700  16.000000   ; qtot -1.437237
 4672         c3    179    ccc     C6   4672 0.37576500  12.010000   ; qtot -1.061472
 4673         ho    179    ccc     H6   4673 0.53656000   1.008000   ; qtot -0.524912
 4674         ho    179    ccc     H7   4674 0.49492100   1.008000   ; qtot -0.029991
 4675         ho    179    ccc     H8   4675 0.51297200   1.008000   ; qtot 0.482981
 4676         h1    179    ccc     H9   4676 0.05653400   1.008000   ; qtot 0.539515
 4677         h1    179    ccc    H10   4677 0.05653400   1.008000   ; qtot 0.596049
 4678         oh    179    ccc     O5   4678 -0.84113600  16.000000   ; qtot -0.245087
 4679         ho    179    ccc    H11   4679 0.51201600   1.008000   ; qtot 0.266929
 4680         os    179    ccc     O6   4680 -0.26013600  16.000000   ; qtot 0.006793
; residue  180 ccc rtp ccc q 0.0
 4681         c3    180    ccc     C1   4681 -0.33178800  12.010000   ; qtot -0.324995
 4682         c3    180    ccc     C2   4682 0.30606500  12.010000   ; qtot -0.018930
 4683         h1    180    ccc     H1   4683 0.11662300   1.008000   ; qtot 0.097693
 4684         h1    180    ccc     H2   4684 0.11526800   1.008000   ; qtot 0.212961
 4685         c3    180    ccc     C3   4685 0.15592700  12.010000   ; qtot 0.368888
 4686         c3    180    ccc     C4   4686 0.28383300  12.010000   ; qtot 0.652721
 4687         c3    180    ccc     C5   4687 0.32403300  12.010000   ; qtot 0.976754
 4688         h1    180    ccc     H3   4688 0.13386900   1.008000   ; qtot 1.110623
 4689         h1    180    ccc     H4   4689 0.10146700   1.008000   ; qtot 1.212090
 4690         h2    180    ccc     H5   4690 0.10960400   1.008000   ; qtot 1.321694
 4691         os    180    ccc     O1   4691 -0.28650000  16.000000   ; qtot 1.035194
 4692         oh    180    ccc     O2   4692 -0.86012500  16.000000   ; qtot 0.175069
 4693         oh    180    ccc     O3   4693 -0.83772800  16.000000   ; qtot -0.662659
 4694         oh    180    ccc     O4   4694 -0.77449700  16.000000   ; qtot -1.437156
 4695         c3    180    ccc     C6   4695 0.37576500  12.010000   ; qtot -1.061391
 4696         ho    180    ccc     H6   4696 0.53656000   1.008000   ; qtot -0.524831
 4697         ho    180    ccc     H7   4697 0.49492100   1.008000   ; qtot -0.029910
 4698         ho    180    ccc     H8   4698 0.51297200   1.008000   ; qtot 0.483062
 4699         h1    180    ccc     H9   4699 0.05653400   1.008000   ; qtot 0.539596
 4700         h1    180    ccc    H10   4700 0.05653400   1.008000   ; qtot 0.596130
 4701         oh    180    ccc     O5   4701 -0.84113600  16.000000   ; qtot -0.245006
 4702         ho    180    ccc    H11   4702 0.51201600   1.008000   ; qtot 0.267010
 4703         os    180    ccc     O6   4703 -0.26013600  16.000000   ; qtot 0.006874
; residue  181 ccc rtp ccc q 0.0
 4704         c3    181    ccc     C1   4704 -0.33178800  12.010000   ; qtot -0.324914
 4705         c3    181    ccc     C2   4705 0.30606500  12.010000   ; qtot -0.018849
 4706         h1    181    ccc     H1   4706 0.11662300   1.008000   ; qtot 0.097774
 4707         h1    181    ccc     H2   4707 0.11526800   1.008000   ; qtot 0.213042
 4708         c3    181    ccc     C3   4708 0.15592700  12.010000   ; qtot 0.368969
 4709         c3    181    ccc     C4   4709 0.28383300  12.010000   ; qtot 0.652802
 4710         c3    181    ccc     C5   4710 0.32403300  12.010000   ; qtot 0.976835
 4711         h1    181    ccc     H3   4711 0.13386900   1.008000   ; qtot 1.110704
 4712         h1    181    ccc     H4   4712 0.10146700   1.008000   ; qtot 1.212171
 4713         h2    181    ccc     H5   4713 0.10960400   1.008000   ; qtot 1.321775
 4714         os    181    ccc     O1   4714 -0.28650000  16.000000   ; qtot 1.035275
 4715         oh    181    ccc     O2   4715 -0.86012500  16.000000   ; qtot 0.175150
 4716         oh    181    ccc     O3   4716 -0.83772800  16.000000   ; qtot -0.662578
 4717         oh    181    ccc     O4   4717 -0.77449700  16.000000   ; qtot -1.437075
 4718         c3    181    ccc     C6   4718 0.37576500  12.010000   ; qtot -1.061310
 4719         ho    181    ccc     H6   4719 0.53656000   1.008000   ; qtot -0.524750
 4720         ho    181    ccc     H7   4720 0.49492100   1.008000   ; qtot -0.029829
 4721         ho    181    ccc     H8   4721 0.51297200   1.008000   ; qtot 0.483143
 4722         h1    181    ccc     H9   4722 0.05653400   1.008000   ; qtot 0.539677
 4723         h1    181    ccc    H10   4723 0.05653400   1.008000   ; qtot 0.596211
 4724         oh    181    ccc     O5   4724 -0.84113600  16.000000   ; qtot -0.244925
 4725         ho    181    ccc    H11   4725 0.51201600   1.008000   ; qtot 0.267091
 4726         os    181    ccc     O6   4726 -0.26013600  16.000000   ; qtot 0.006955
; residue  182 ccc rtp ccc q 0.0
 4727         c3    182    ccc     C1   4727 -0.33178800  12.010000   ; qtot -0.324833
 4728         c3    182    ccc     C2   4728 0.30606500  12.010000   ; qtot -0.018768
 4729         h1    182    ccc     H1   4729 0.11662300   1.008000   ; qtot 0.097855
 4730         h1    182    ccc     H2   4730 0.11526800   1.008000   ; qtot 0.213123
 4731         c3    182    ccc     C3   4731 0.15592700  12.010000   ; qtot 0.369050
 4732         c3    182    ccc     C4   4732 0.28383300  12.010000   ; qtot 0.652883
 4733         c3    182    ccc     C5   4733 0.32403300  12.010000   ; qtot 0.976916
 4734         h1    182    ccc     H3   4734 0.13386900   1.008000   ; qtot 1.110785
 4735         h1    182    ccc     H4   4735 0.10146700   1.008000   ; qtot 1.212252
 4736         h2    182    ccc     H5   4736 0.10960400   1.008000   ; qtot 1.321856
 4737         os    182    ccc     O1   4737 -0.28650000  16.000000   ; qtot 1.035356
 4738         oh    182    ccc     O2   4738 -0.86012500  16.000000   ; qtot 0.175231
 4739         oh    182    ccc     O3   4739 -0.83772800  16.000000   ; qtot -0.662497
 4740         oh    182    ccc     O4   4740 -0.77449700  16.000000   ; qtot -1.436994
 4741         c3    182    ccc     C6   4741 0.37576500  12.010000   ; qtot -1.061229
 4742         ho    182    ccc     H6   4742 0.53656000   1.008000   ; qtot -0.524669
 4743         ho    182    ccc     H7   4743 0.49492100   1.008000   ; qtot -0.029748
 4744         ho    182    ccc     H8   4744 0.51297200   1.008000   ; qtot 0.483224
 4745         h1    182    ccc     H9   4745 0.05653400   1.008000   ; qtot 0.539758
 4746         h1    182    ccc    H10   4746 0.05653400   1.008000   ; qtot 0.596292
 4747         oh    182    ccc     O5   4747 -0.84113600  16.000000   ; qtot -0.244844
 4748         ho    182    ccc    H11   4748 0.51201600   1.008000   ; qtot 0.267172
 4749         os    182    ccc     O6   4749 -0.26013600  16.000000   ; qtot 0.007036
; residue  183 ccc rtp ccc q 0.0
 4750         c3    183    ccc     C1   4750 -0.33178800  12.010000   ; qtot -0.324752
 4751         c3    183    ccc     C2   4751 0.30606500  12.010000   ; qtot -0.018687
 4752         h1    183    ccc     H1   4752 0.11662300   1.008000   ; qtot 0.097936
 4753         h1    183    ccc     H2   4753 0.11526800   1.008000   ; qtot 0.213204
 4754         c3    183    ccc     C3   4754 0.15592700  12.010000   ; qtot 0.369131
 4755         c3    183    ccc     C4   4755 0.28383300  12.010000   ; qtot 0.652964
 4756         c3    183    ccc     C5   4756 0.32403300  12.010000   ; qtot 0.976997
 4757         h1    183    ccc     H3   4757 0.13386900   1.008000   ; qtot 1.110866
 4758         h1    183    ccc     H4   4758 0.10146700   1.008000   ; qtot 1.212333
 4759         h2    183    ccc     H5   4759 0.10960400   1.008000   ; qtot 1.321937
 4760         os    183    ccc     O1   4760 -0.28650000  16.000000   ; qtot 1.035437
 4761         oh    183    ccc     O2   4761 -0.86012500  16.000000   ; qtot 0.175312
 4762         oh    183    ccc     O3   4762 -0.83772800  16.000000   ; qtot -0.662416
 4763         oh    183    ccc     O4   4763 -0.77449700  16.000000   ; qtot -1.436913
 4764         c3    183    ccc     C6   4764 0.37576500  12.010000   ; qtot -1.061148
 4765         ho    183    ccc     H6   4765 0.53656000   1.008000   ; qtot -0.524588
 4766         ho    183    ccc     H7   4766 0.49492100   1.008000   ; qtot -0.029667
 4767         ho    183    ccc     H8   4767 0.51297200   1.008000   ; qtot 0.483305
 4768         h1    183    ccc     H9   4768 0.05653400   1.008000   ; qtot 0.539839
 4769         h1    183    ccc    H10   4769 0.05653400   1.008000   ; qtot 0.596373
 4770         oh    183    ccc     O5   4770 -0.84113600  16.000000   ; qtot -0.244763
 4771         ho    183    ccc    H11   4771 0.51201600   1.008000   ; qtot 0.267253
 4772         os    183    ccc     O6   4772 -0.26013600  16.000000   ; qtot 0.007117
; residue  184 ccc rtp ccc q 0.0
 4773         c3    184    ccc     C1   4773 -0.33178800  12.010000   ; qtot -0.324671
 4774         c3    184    ccc     C2   4774 0.30606500  12.010000   ; qtot -0.018606
 4775         h1    184    ccc     H1   4775 0.11662300   1.008000   ; qtot 0.098017
 4776         h1    184    ccc     H2   4776 0.11526800   1.008000   ; qtot 0.213285
 4777         c3    184    ccc     C3   4777 0.15592700  12.010000   ; qtot 0.369212
 4778         c3    184    ccc     C4   4778 0.28383300  12.010000   ; qtot 0.653045
 4779         c3    184    ccc     C5   4779 0.32403300  12.010000   ; qtot 0.977078
 4780         h1    184    ccc     H3   4780 0.13386900   1.008000   ; qtot 1.110947
 4781         h1    184    ccc     H4   4781 0.10146700   1.008000   ; qtot 1.212414
 4782         h2    184    ccc     H5   4782 0.10960400   1.008000   ; qtot 1.322018
 4783         os    184    ccc     O1   4783 -0.28650000  16.000000   ; qtot 1.035518
 4784         oh    184    ccc     O2   4784 -0.86012500  16.000000   ; qtot 0.175393
 4785         oh    184    ccc     O3   4785 -0.83772800  16.000000   ; qtot -0.662335
 4786         oh    184    ccc     O4   4786 -0.77449700  16.000000   ; qtot -1.436832
 4787         c3    184    ccc     C6   4787 0.37576500  12.010000   ; qtot -1.061067
 4788         ho    184    ccc     H6   4788 0.53656000   1.008000   ; qtot -0.524507
 4789         ho    184    ccc     H7   4789 0.49492100   1.008000   ; qtot -0.029586
 4790         ho    184    ccc     H8   4790 0.51297200   1.008000   ; qtot 0.483386
 4791         h1    184    ccc     H9   4791 0.05653400   1.008000   ; qtot 0.539920
 4792         h1    184    ccc    H10   4792 0.05653400   1.008000   ; qtot 0.596454
 4793         oh    184    ccc     O5   4793 -0.84113600  16.000000   ; qtot -0.244682
 4794         ho    184    ccc    H11   4794 0.51201600   1.008000   ; qtot 0.267334
 4795         os    184    ccc     O6   4795 -0.26013600  16.000000   ; qtot 0.007198
; residue  185 ccc rtp ccc q 0.0
 4796         c3    185    ccc     C1   4796 -0.33178800  12.010000   ; qtot -0.324590
 4797         c3    185    ccc     C2   4797 0.30606500  12.010000   ; qtot -0.018525
 4798         h1    185    ccc     H1   4798 0.11662300   1.008000   ; qtot 0.098098
 4799         h1    185    ccc     H2   4799 0.11526800   1.008000   ; qtot 0.213366
 4800         c3    185    ccc     C3   4800 0.15592700  12.010000   ; qtot 0.369293
 4801         c3    185    ccc     C4   4801 0.28383300  12.010000   ; qtot 0.653126
 4802         c3    185    ccc     C5   4802 0.32403300  12.010000   ; qtot 0.977159
 4803         h1    185    ccc     H3   4803 0.13386900   1.008000   ; qtot 1.111028
 4804         h1    185    ccc     H4   4804 0.10146700   1.008000   ; qtot 1.212495
 4805         h2    185    ccc     H5   4805 0.10960400   1.008000   ; qtot 1.322099
 4806         os    185    ccc     O1   4806 -0.28650000  16.000000   ; qtot 1.035599
 4807         oh    185    ccc     O2   4807 -0.86012500  16.000000   ; qtot 0.175474
 4808         oh    185    ccc     O3   4808 -0.83772800  16.000000   ; qtot -0.662254
 4809         oh    185    ccc     O4   4809 -0.77449700  16.000000   ; qtot -1.436751
 4810         c3    185    ccc     C6   4810 0.37576500  12.010000   ; qtot -1.060986
 4811         ho    185    ccc     H6   4811 0.53656000   1.008000   ; qtot -0.524426
 4812         ho    185    ccc     H7   4812 0.49492100   1.008000   ; qtot -0.029505
 4813         ho    185    ccc     H8   4813 0.51297200   1.008000   ; qtot 0.483467
 4814         h1    185    ccc     H9   4814 0.05653400   1.008000   ; qtot 0.540001
 4815         h1    185    ccc    H10   4815 0.05653400   1.008000   ; qtot 0.596535
 4816         oh    185    ccc     O5   4816 -0.84113600  16.000000   ; qtot -0.244601
 4817         ho    185    ccc    H11   4817 0.51201600   1.008000   ; qtot 0.267415
 4818         os    185    ccc     O6   4818 -0.26013600  16.000000   ; qtot 0.007279
; residue  186 ccc rtp ccc q 0.0
 4819         c3    186    ccc     C1   4819 -0.33178800  12.010000   ; qtot -0.324509
 4820         c3    186    ccc     C2   4820 0.30606500  12.010000   ; qtot -0.018444
 4821         h1    186    ccc     H1   4821 0.11662300   1.008000   ; qtot 0.098179
 4822         h1    186    ccc     H2   4822 0.11526800   1.008000   ; qtot 0.213447
 4823         c3    186    ccc     C3   4823 0.15592700  12.010000   ; qtot 0.369374
 4824         c3    186    ccc     C4   4824 0.28383300  12.010000   ; qtot 0.653207
 4825         c3    186    ccc     C5   4825 0.32403300  12.010000   ; qtot 0.977240
 4826         h1    186    ccc     H3   4826 0.13386900   1.008000   ; qtot 1.111109
 4827         h1    186    ccc     H4   4827 0.10146700   1.008000   ; qtot 1.212576
 4828         h2    186    ccc     H5   4828 0.10960400   1.008000   ; qtot 1.322180
 4829         os    186    ccc     O1   4829 -0.28650000  16.000000   ; qtot 1.035680
 4830         oh    186    ccc     O2   4830 -0.86012500  16.000000   ; qtot 0.175555
 4831         oh    186    ccc     O3   4831 -0.83772800  16.000000   ; qtot -0.662173
 4832         oh    186    ccc     O4   4832 -0.77449700  16.000000   ; qtot -1.436670
 4833         c3    186    ccc     C6   4833 0.37576500  12.010000   ; qtot -1.060905
 4834         ho    186    ccc     H6   4834 0.53656000   1.008000   ; qtot -0.524345
 4835         ho    186    ccc     H7   4835 0.49492100   1.008000   ; qtot -0.029424
 4836         ho    186    ccc     H8   4836 0.51297200   1.008000   ; qtot 0.483548
 4837         h1    186    ccc     H9   4837 0.05653400   1.008000   ; qtot 0.540082
 4838         h1    186    ccc    H10   4838 0.05653400   1.008000   ; qtot 0.596616
 4839         oh    186    ccc     O5   4839 -0.84113600  16.000000   ; qtot -0.244520
 4840         ho    186    ccc    H11   4840 0.51201600   1.008000   ; qtot 0.267496
 4841         os    186    ccc     O6   4841 -0.26013600  16.000000   ; qtot 0.007360
; residue  187 ccc rtp ccc q 0.0
 4842         c3    187    ccc     C1   4842 -0.33178800  12.010000   ; qtot -0.324428
 4843         c3    187    ccc     C2   4843 0.30606500  12.010000   ; qtot -0.018363
 4844         h1    187    ccc     H1   4844 0.11662300   1.008000   ; qtot 0.098260
 4845         h1    187    ccc     H2   4845 0.11526800   1.008000   ; qtot 0.213528
 4846         c3    187    ccc     C3   4846 0.15592700  12.010000   ; qtot 0.369455
 4847         c3    187    ccc     C4   4847 0.28383300  12.010000   ; qtot 0.653288
 4848         c3    187    ccc     C5   4848 0.32403300  12.010000   ; qtot 0.977321
 4849         h1    187    ccc     H3   4849 0.13386900   1.008000   ; qtot 1.111190
 4850         h1    187    ccc     H4   4850 0.10146700   1.008000   ; qtot 1.212657
 4851         h2    187    ccc     H5   4851 0.10960400   1.008000   ; qtot 1.322261
 4852         os    187    ccc     O1   4852 -0.28650000  16.000000   ; qtot 1.035761
 4853         oh    187    ccc     O2   4853 -0.86012500  16.000000   ; qtot 0.175636
 4854         oh    187    ccc     O3   4854 -0.83772800  16.000000   ; qtot -0.662092
 4855         oh    187    ccc     O4   4855 -0.77449700  16.000000   ; qtot -1.436589
 4856         c3    187    ccc     C6   4856 0.37576500  12.010000   ; qtot -1.060824
 4857         ho    187    ccc     H6   4857 0.53656000   1.008000   ; qtot -0.524264
 4858         ho    187    ccc     H7   4858 0.49492100   1.008000   ; qtot -0.029343
 4859         ho    187    ccc     H8   4859 0.51297200   1.008000   ; qtot 0.483629
 4860         h1    187    ccc     H9   4860 0.05653400   1.008000   ; qtot 0.540163
 4861         h1    187    ccc    H10   4861 0.05653400   1.008000   ; qtot 0.596697
 4862         oh    187    ccc     O5   4862 -0.84113600  16.000000   ; qtot -0.244439
 4863         ho    187    ccc    H11   4863 0.51201600   1.008000   ; qtot 0.267577
 4864         os    187    ccc     O6   4864 -0.26013600  16.000000   ; qtot 0.007441
; residue  188 ccc rtp ccc q 0.0
 4865         c3    188    ccc     C1   4865 -0.33178800  12.010000   ; qtot -0.324347
 4866         c3    188    ccc     C2   4866 0.30606500  12.010000   ; qtot -0.018282
 4867         h1    188    ccc     H1   4867 0.11662300   1.008000   ; qtot 0.098341
 4868         h1    188    ccc     H2   4868 0.11526800   1.008000   ; qtot 0.213609
 4869         c3    188    ccc     C3   4869 0.15592700  12.010000   ; qtot 0.369536
 4870         c3    188    ccc     C4   4870 0.28383300  12.010000   ; qtot 0.653369
 4871         c3    188    ccc     C5   4871 0.32403300  12.010000   ; qtot 0.977402
 4872         h1    188    ccc     H3   4872 0.13386900   1.008000   ; qtot 1.111271
 4873         h1    188    ccc     H4   4873 0.10146700   1.008000   ; qtot 1.212738
 4874         h2    188    ccc     H5   4874 0.10960400   1.008000   ; qtot 1.322342
 4875         os    188    ccc     O1   4875 -0.28650000  16.000000   ; qtot 1.035842
 4876         oh    188    ccc     O2   4876 -0.86012500  16.000000   ; qtot 0.175717
 4877         oh    188    ccc     O3   4877 -0.83772800  16.000000   ; qtot -0.662011
 4878         oh    188    ccc     O4   4878 -0.77449700  16.000000   ; qtot -1.436508
 4879         c3    188    ccc     C6   4879 0.37576500  12.010000   ; qtot -1.060743
 4880         ho    188    ccc     H6   4880 0.53656000   1.008000   ; qtot -0.524183
 4881         ho    188    ccc     H7   4881 0.49492100   1.008000   ; qtot -0.029262
 4882         ho    188    ccc     H8   4882 0.51297200   1.008000   ; qtot 0.483710
 4883         h1    188    ccc     H9   4883 0.05653400   1.008000   ; qtot 0.540244
 4884         h1    188    ccc    H10   4884 0.05653400   1.008000   ; qtot 0.596778
 4885         oh    188    ccc     O5   4885 -0.84113600  16.000000   ; qtot -0.244358
 4886         ho    188    ccc    H11   4886 0.51201600   1.008000   ; qtot 0.267658
 4887         os    188    ccc     O6   4887 -0.26013600  16.000000   ; qtot 0.007522
; residue  189 ccc rtp ccc q 0.0
 4888         c3    189    ccc     C1   4888 -0.33178800  12.010000   ; qtot -0.324266
 4889         c3    189    ccc     C2   4889 0.30606500  12.010000   ; qtot -0.018201
 4890         h1    189    ccc     H1   4890 0.11662300   1.008000   ; qtot 0.098422
 4891         h1    189    ccc     H2   4891 0.11526800   1.008000   ; qtot 0.213690
 4892         c3    189    ccc     C3   4892 0.15592700  12.010000   ; qtot 0.369617
 4893         c3    189    ccc     C4   4893 0.28383300  12.010000   ; qtot 0.653450
 4894         c3    189    ccc     C5   4894 0.32403300  12.010000   ; qtot 0.977483
 4895         h1    189    ccc     H3   4895 0.13386900   1.008000   ; qtot 1.111352
 4896         h1    189    ccc     H4   4896 0.10146700   1.008000   ; qtot 1.212819
 4897         h2    189    ccc     H5   4897 0.10960400   1.008000   ; qtot 1.322423
 4898         os    189    ccc     O1   4898 -0.28650000  16.000000   ; qtot 1.035923
 4899         oh    189    ccc     O2   4899 -0.86012500  16.000000   ; qtot 0.175798
 4900         oh    189    ccc     O3   4900 -0.83772800  16.000000   ; qtot -0.661930
 4901         oh    189    ccc     O4   4901 -0.77449700  16.000000   ; qtot -1.436427
 4902         c3    189    ccc     C6   4902 0.37576500  12.010000   ; qtot -1.060662
 4903         ho    189    ccc     H6   4903 0.53656000   1.008000   ; qtot -0.524102
 4904         ho    189    ccc     H7   4904 0.49492100   1.008000   ; qtot -0.029181
 4905         ho    189    ccc     H8   4905 0.51297200   1.008000   ; qtot 0.483791
 4906         h1    189    ccc     H9   4906 0.05653400   1.008000   ; qtot 0.540325
 4907         h1    189    ccc    H10   4907 0.05653400   1.008000   ; qtot 0.596859
 4908         oh    189    ccc     O5   4908 -0.84113600  16.000000   ; qtot -0.244277
 4909         ho    189    ccc    H11   4909 0.51201600   1.008000   ; qtot 0.267739
 4910         os    189    ccc     O6   4910 -0.26013600  16.000000   ; qtot 0.007603
; residue  190 ccc rtp ccc q 0.0
 4911         c3    190    ccc     C1   4911 -0.33178800  12.010000   ; qtot -0.324185
 4912         c3    190    ccc     C2   4912 0.30606500  12.010000   ; qtot -0.018120
 4913         h1    190    ccc     H1   4913 0.11662300   1.008000   ; qtot 0.098503
 4914         h1    190    ccc     H2   4914 0.11526800   1.008000   ; qtot 0.213771
 4915         c3    190    ccc     C3   4915 0.15592700  12.010000   ; qtot 0.369698
 4916         c3    190    ccc     C4   4916 0.28383300  12.010000   ; qtot 0.653531
 4917         c3    190    ccc     C5   4917 0.32403300  12.010000   ; qtot 0.977564
 4918         h1    190    ccc     H3   4918 0.13386900   1.008000   ; qtot 1.111433
 4919         h1    190    ccc     H4   4919 0.10146700   1.008000   ; qtot 1.212900
 4920         h2    190    ccc     H5   4920 0.10960400   1.008000   ; qtot 1.322504
 4921         os    190    ccc     O1   4921 -0.28650000  16.000000   ; qtot 1.036004
 4922         oh    190    ccc     O2   4922 -0.86012500  16.000000   ; qtot 0.175879
 4923         oh    190    ccc     O3   4923 -0.83772800  16.000000   ; qtot -0.661849
 4924         oh    190    ccc     O4   4924 -0.77449700  16.000000   ; qtot -1.436346
 4925         c3    190    ccc     C6   4925 0.37576500  12.010000   ; qtot -1.060581
 4926         ho    190    ccc     H6   4926 0.53656000   1.008000   ; qtot -0.524021
 4927         ho    190    ccc     H7   4927 0.49492100   1.008000   ; qtot -0.029100
 4928         ho    190    ccc     H8   4928 0.51297200   1.008000   ; qtot 0.483872
 4929         h1    190    ccc     H9   4929 0.05653400   1.008000   ; qtot 0.540406
 4930         h1    190    ccc    H10   4930 0.05653400   1.008000   ; qtot 0.596940
 4931         oh    190    ccc     O5   4931 -0.84113600  16.000000   ; qtot -0.244196
 4932         ho    190    ccc    H11   4932 0.51201600   1.008000   ; qtot 0.267820
 4933         os    190    ccc     O6   4933 -0.26013600  16.000000   ; qtot 0.007684

[ bonds ]
;    ai     aj funct         c0         c1         c2         c3
      1      2     1   0.14647 272713.120000
      1      5     1   0.14647 272713.120000
      1      8     1   0.14647 272713.120000
      2     14     1   0.15375 251793.120000
      5     17     1   0.15375 251793.120000
      8     11     1   0.15375 251793.120000
     11     23     1   0.15375 251793.120000
     14     26     1   0.15375 251793.120000
     17     20     1   0.15375 251793.120000
     20     57     1   0.14316 258236.480000
     23     86     1   0.14316 258236.480000
     26    115     1   0.14316 258236.480000
     29     30     1   0.14647 272713.120000
     29     33     1   0.14647 272713.120000
     29     36     1   0.14647 272713.120000
     30     42     1   0.15375 251793.120000
     33     45     1   0.15375 251793.120000
     36     39     1   0.15375 251793.120000
     39     48     1   0.15375 251793.120000
     42     54     1   0.15375 251793.120000
     45     51     1   0.15375 251793.120000
     48     57     1   0.14316 258236.480000
     51    144     1   0.14316 258236.480000
     54    173     1   0.14316 258236.480000
     58     59     1   0.14647 272713.120000
     58     62     1   0.14647 272713.120000
     58     65     1   0.14647 272713.120000
     59     71     1   0.15375 251793.120000
     62     74     1   0.15375 251793.120000
     65     68     1   0.15375 251793.120000
     68     77     1   0.15375 251793.120000
     71     83     1   0.15375 251793.120000
     74     80     1   0.15375 251793.120000
     77     86     1   0.14316 258236.480000
     80    202     1   0.14316 258236.480000
     83    231     1   0.14316 258236.480000
     87     88     1   0.14647 272713.120000
     87     91     1   0.14647 272713.120000
     87     94     1   0.14647 272713.120000
     88    100     1   0.15375 251793.120000
     91    103     1   0.15375 251793.120000
     94     97     1   0.15375 251793.120000
     97    106     1   0.15375 251793.120000
    100    112     1   0.15375 251793.120000
    103    109     1   0.15375 251793.120000
    106    115     1   0.14316 258236.480000
    109    260     1   0.14316 258236.480000
    112    289     1   0.14316 258236.480000
    116    117     1   0.14647 272713.120000
    116    120     1   0.14647 272713.120000
    116    123     1   0.14647 272713.120000
    117    129     1   0.15375 251793.120000
    120    132     1   0.15375 251793.120000
    123    126     1   0.15375 251793.120000
    126    135     1   0.15375 251793.120000
    129    141     1   0.15375 251793.120000
    132    138     1   0.15375 251793.120000
    135    144     1   0.14316 258236.480000
    138    318     1   0.14316 258236.480000
    141    347     1   0.14316 258236.480000
    145    146     1   0.14647 272713.120000
    145    149     1   0.14647 272713.120000
    145    152     1   0.14647 272713.120000
    146    158     1   0.15375 251793.120000
    149    161     1   0.15375 251793.120000
    152    155     1   0.15375 251793.120000
    155    164     1   0.15375 251793.120000
    158    170     1   0.15375 251793.120000
    161    167     1   0.15375 251793.120000
    164    173     1   0.14316 258236.480000
    167    376     1   0.14316 258236.480000
    170    405     1   0.14316 258236.480000
    174    175     1   0.14647 272713.120000
    174    178     1   0.14647 272713.120000
    174    181     1   0.14647 272713.120000
    175    187     1   0.15375 251793.120000
    178    190     1   0.15375 251793.120000
    181    184     1   0.15375 251793.120000
    184    193     1   0.15375 251793.120000
    187    199     1   0.15375 251793.120000
    190    196     1   0.15375 251793.120000
    193    202     1   0.14316 258236.480000
    196    434     1   0.14316 258236.480000
    199    463     1   0.14316 258236.480000
    203    204     1   0.14647 272713.120000
    203    207     1   0.14647 272713.120000
    203    210     1   0.14647 272713.120000
    204    216     1   0.15375 251793.120000
    207    219     1   0.15375 251793.120000
    210    213     1   0.15375 251793.120000
    213    222     1   0.15375 251793.120000
    216    228     1   0.15375 251793.120000
    219    225     1   0.15375 251793.120000
    222    231     1   0.14316 258236.480000
    225    492     1   0.14316 258236.480000
    228    521     1   0.14316 258236.480000
    232    233     1   0.14647 272713.120000
    232    236     1   0.14647 272713.120000
    232    239     1   0.14647 272713.120000
    233    245     1   0.15375 251793.120000
    236    248     1   0.15375 251793.120000
    239    242     1   0.15375 251793.120000
    242    251     1   0.15375 251793.120000
    245    257     1   0.15375 251793.120000
    248    254     1   0.15375 251793.120000
    251    260     1   0.14316 258236.480000
    254    550     1   0.14316 258236.480000
    257    579     1   0.14316 258236.480000
    261    262     1   0.14647 272713.120000
    261    265     1   0.14647 272713.120000
    261    268     1   0.14647 272713.120000
    262    274     1   0.15375 251793.120000
    265    277     1   0.15375 251793.120000
    268    271     1   0.15375 251793.120000
    271    280     1   0.15375 251793.120000
    274    286     1   0.15375 251793.120000
    277    283     1   0.15375 251793.120000
    280    289     1   0.14316 258236.480000
    283    608     1   0.14316 258236.480000
    286    637     1   0.14316 258236.480000
    290    291     1   0.14647 272713.120000
    290    294     1   0.14647 272713.120000
    290    297     1   0.14647 272713.120000
    291    303     1   0.15375 251793.120000
    294    306     1   0.15375 251793.120000
    297    300     1   0.15375 251793.120000
    300    309     1   0.15375 251793.120000
    303    315     1   0.15375 251793.120000
    306    312     1   0.15375 251793.120000
    309    318     1   0.14316 258236.480000
    312    666     1   0.14316 258236.480000
    315    695     1   0.14316 258236.480000
    319    320     1   0.14647 272713.120000
    319    323     1   0.14647 272713.120000
    319    326     1   0.14647 272713.120000
    320    332     1   0.15375 251793.120000
    323    335     1   0.15375 251793.120000
    326    329     1   0.15375 251793.120000
    329    338     1   0.15375 251793.120000
    332    344     1   0.15375 251793.120000
    335    341     1   0.15375 251793.120000
    338    347     1   0.14316 258236.480000
    341    724     1   0.14316 258236.480000
    344    753     1   0.14316 258236.480000
    348    349     1   0.14647 272713.120000
    348    352     1   0.14647 272713.120000
    348    355     1   0.14647 272713.120000
    349    361     1   0.15375 251793.120000
    352    364     1   0.15375 251793.120000
    355    358     1   0.15375 251793.120000
    358    367     1   0.15375 251793.120000
    361    373     1   0.15375 251793.120000
    364    370     1   0.15375 251793.120000
    367    376     1   0.14316 258236.480000
    370    782     1   0.14316 258236.480000
    373    811     1   0.14316 258236.480000
    377    378     1   0.14647 272713.120000
    377    381     1   0.14647 272713.120000
    377    384     1   0.14647 272713.120000
    378    390     1   0.15375 251793.120000
    381    393     1   0.15375 251793.120000
    384    387     1   0.15375 251793.120000
    387    396     1   0.15375 251793.120000
    390    402     1   0.15375 251793.120000
    393    399     1   0.15375 251793.120000
    396    405     1   0.14316 258236.480000
    399    840     1   0.14316 258236.480000
    402    869     1   0.14316 258236.480000
    406    407     1   0.14647 272713.120000
    406    410     1   0.14647 272713.120000
    406    413     1   0.14647 272713.120000
    407    419     1   0.15375 251793.120000
    410    422     1   0.15375 251793.120000
    413    416     1   0.15375 251793.120000
    416    425     1   0.15375 251793.120000
    419    431     1   0.15375 251793.120000
    422    428     1   0.15375 251793.120000
    425    434     1   0.14316 258236.480000
    428    898     1   0.14316 258236.480000
    431    927     1   0.14316 258236.480000
    435    436     1   0.14647 272713.120000
    435    439     1   0.14647 272713.120000
    435    442     1   0.14647 272713.120000
    436    448     1   0.15375 251793.120000
    439    451     1   0.15375 251793.120000
    442    445     1   0.15375 251793.120000
    445    454     1   0.15375 251793.120000
    448    460     1   0.15375 251793.120000
    451    457     1   0.15375 251793.120000
    454    463     1   0.14316 258236.480000
    457    956     1   0.14316 258236.480000
    460    985     1   0.14316 258236.480000
    464    465     1   0.14647 272713.120000
    464    468     1   0.14647 272713.120000
    464    471     1   0.14647 272713.120000
    465    477     1   0.15375 251793.120000
    468    480     1   0.15375 251793.120000
    471    474     1   0.15375 251793.120000
    474    483     1   0.15375 251793.120000
    477    489     1   0.15375 251793.120000
    480    486     1   0.15375 251793.120000
    483    492     1   0.14316 258236.480000
    486   1014     1   0.14316 258236.480000
    489   1043     1   0.14316 258236.480000
    493    494     1   0.14647 272713.120000
    493    497     1   0.14647 272713.120000
    493    500     1   0.14647 272713.120000
    494    506     1   0.15375 251793.120000
    497    509     1   0.15375 251793.120000
    500    503     1   0.15375 251793.120000
    503    512     1   0.15375 251793.120000
    506    518     1   0.15375 251793.120000
    509    515     1   0.15375 251793.120000
    512    521     1   0.14316 258236.480000
    515   1072     1   0.14316 258236.480000
    518   1101     1   0.14316 258236.480000
    522    523     1   0.14647 272713.120000
    522    526     1   0.14647 272713.120000
    522    529     1   0.14647 272713.120000
    523    535     1   0.15375 251793.120000
    526    538     1   0.15375 251793.120000
    529    532     1   0.15375 251793.120000
    532    541     1   0.15375 251793.120000
    535    547     1   0.15375 251793.120000
    538    544     1   0.15375 251793.120000
    541    550     1   0.14316 258236.480000
    544   1130     1   0.14316 258236.480000
    547   1159     1   0.14316 258236.480000
    551    552     1   0.14647 272713.120000
    551    555     1   0.14647 272713.120000
    551    558     1   0.14647 272713.120000
    552    564     1   0.15375 251793.120000
    555    567     1   0.15375 251793.120000
    558    561     1   0.15375 251793.120000
    561    570     1   0.15375 251793.120000
    564    576     1   0.15375 251793.120000
    567    573     1   0.15375 251793.120000
    570    579     1   0.14316 258236.480000
    573   1188     1   0.14316 258236.480000
    576   1217     1   0.14316 258236.480000
    580    581     1   0.14647 272713.120000
    580    584     1   0.14647 272713.120000
    580    587     1   0.14647 272713.120000
    581    593     1   0.15375 251793.120000
    584    596     1   0.15375 251793.120000
    587    590     1   0.15375 251793.120000
    590    599     1   0.15375 251793.120000
    593    605     1   0.15375 251793.120000
    596    602     1   0.15375 251793.120000
    599    608     1   0.14316 258236.480000
    602   1246     1   0.14316 258236.480000
    605   1275     1   0.14316 258236.480000
    609    610     1   0.14647 272713.120000
    609    613     1   0.14647 272713.120000
    609    616     1   0.14647 272713.120000
    610    622     1   0.15375 251793.120000
    613    625     1   0.15375 251793.120000
    616    619     1   0.15375 251793.120000
    619    628     1   0.15375 251793.120000
    622    634     1   0.15375 251793.120000
    625    631     1   0.15375 251793.120000
    628    637     1   0.14316 258236.480000
    631   1304     1   0.14316 258236.480000
    634   1333     1   0.14316 258236.480000
    638    639     1   0.14647 272713.120000
    638    642     1   0.14647 272713.120000
    638    645     1   0.14647 272713.120000
    639    651     1   0.15375 251793.120000
    642    654     1   0.15375 251793.120000
    645    648     1   0.15375 251793.120000
    648    657     1   0.15375 251793.120000
    651    663     1   0.15375 251793.120000
    654    660     1   0.15375 251793.120000
    657    666     1   0.14316 258236.480000
    660   1362     1   0.14316 258236.480000
    663   1391     1   0.14316 258236.480000
    667    668     1   0.14647 272713.120000
    667    671     1   0.14647 272713.120000
    667    674     1   0.14647 272713.120000
    668    680     1   0.15375 251793.120000
    671    683     1   0.15375 251793.120000
    674    677     1   0.15375 251793.120000
    677    686     1   0.15375 251793.120000
    680    692     1   0.15375 251793.120000
    683    689     1   0.15375 251793.120000
    686    695     1   0.14316 258236.480000
    689   1420     1   0.14316 258236.480000
    692   1449     1   0.14316 258236.480000
    696    697     1   0.14647 272713.120000
    696    700     1   0.14647 272713.120000
    696    703     1   0.14647 272713.120000
    697    709     1   0.15375 251793.120000
    700    712     1   0.15375 251793.120000
    703    706     1   0.15375 251793.120000
    706    715     1   0.15375 251793.120000
    709    721     1   0.15375 251793.120000
    712    718     1   0.15375 251793.120000
    715    724     1   0.14316 258236.480000
    718   1478     1   0.14316 258236.480000
    721   1507     1   0.14316 258236.480000
    725    726     1   0.14647 272713.120000
    725    729     1   0.14647 272713.120000
    725    732     1   0.14647 272713.120000
    726    738     1   0.15375 251793.120000
    729    741     1   0.15375 251793.120000
    732    735     1   0.15375 251793.120000
    735    744     1   0.15375 251793.120000
    738    750     1   0.15375 251793.120000
    741    747     1   0.15375 251793.120000
    744    753     1   0.14316 258236.480000
    747   1536     1   0.14316 258236.480000
    750   1565     1   0.14316 258236.480000
    754    755     1   0.14647 272713.120000
    754    758     1   0.14647 272713.120000
    754    761     1   0.14647 272713.120000
    755    767     1   0.15375 251793.120000
    758    770     1   0.15375 251793.120000
    761    764     1   0.15375 251793.120000
    764    773     1   0.15375 251793.120000
    767    779     1   0.15375 251793.120000
    770    776     1   0.15375 251793.120000
    773    782     1   0.14316 258236.480000
    776   1594     1   0.14316 258236.480000
    779   1623     1   0.14316 258236.480000
    783    784     1   0.14647 272713.120000
    783    787     1   0.14647 272713.120000
    783    790     1   0.14647 272713.120000
    784    796     1   0.15375 251793.120000
    787    799     1   0.15375 251793.120000
    790    793     1   0.15375 251793.120000
    793    802     1   0.15375 251793.120000
    796    808     1   0.15375 251793.120000
    799    805     1   0.15375 251793.120000
    802    811     1   0.14316 258236.480000
    805   1652     1   0.14316 258236.480000
    808   1681     1   0.14316 258236.480000
    812    813     1   0.14647 272713.120000
    812    816     1   0.14647 272713.120000
    812    819     1   0.14647 272713.120000
    813    825     1   0.15375 251793.120000
    816    828     1   0.15375 251793.120000
    819    822     1   0.15375 251793.120000
    822    831     1   0.15375 251793.120000
    825    837     1   0.15375 251793.120000
    828    834     1   0.15375 251793.120000
    831    840     1   0.14316 258236.480000
    834   1710     1   0.14316 258236.480000
    837   1739     1   0.14316 258236.480000
    841    842     1   0.14647 272713.120000
    841    845     1   0.14647 272713.120000
    841    848     1   0.14647 272713.120000
    842    854     1   0.15375 251793.120000
    845    857     1   0.15375 251793.120000
    848    851     1   0.15375 251793.120000
    851    860     1   0.15375 251793.120000
    854    866     1   0.15375 251793.120000
    857    863     1   0.15375 251793.120000
    860    869     1   0.14316 258236.480000
    863   1768     1   0.14316 258236.480000
    866   1797     1   0.14316 258236.480000
    870    871     1   0.14647 272713.120000
    870    874     1   0.14647 272713.120000
    870    877     1   0.14647 272713.120000
    871    883     1   0.15375 251793.120000
    874    886     1   0.15375 251793.120000
    877    880     1   0.15375 251793.120000
    880    889     1   0.15375 251793.120000
    883    895     1   0.15375 251793.120000
    886    892     1   0.15375 251793.120000
    889    898     1   0.14316 258236.480000
    892   1826     1   0.14316 258236.480000
    895   1855     1   0.14316 258236.480000
    899    900     1   0.14647 272713.120000
    899    903     1   0.14647 272713.120000
    899    906     1   0.14647 272713.120000
    900    912     1   0.15375 251793.120000
    903    915     1   0.15375 251793.120000
    906    909     1   0.15375 251793.120000
    909    918     1   0.15375 251793.120000
    912    924     1   0.15375 251793.120000
    915    921     1   0.15375 251793.120000
    918    927     1   0.14316 258236.480000
    921   1884     1   0.14316 258236.480000
    924   1913     1   0.14316 258236.480000
    928    929     1   0.14647 272713.120000
    928    932     1   0.14647 272713.120000
    928    935     1   0.14647 272713.120000
    929    941     1   0.15375 251793.120000
    932    944     1   0.15375 251793.120000
    935    938     1   0.15375 251793.120000
    938    947     1   0.15375 251793.120000
    941    953     1   0.15375 251793.120000
    944    950     1   0.15375 251793.120000
    947    956     1   0.14316 258236.480000
    950   1942     1   0.14316 258236.480000
    953   1971     1   0.14316 258236.480000
    957    958     1   0.14647 272713.120000
    957    961     1   0.14647 272713.120000
    957    964     1   0.14647 272713.120000
    958    970     1   0.15375 251793.120000
    961    973     1   0.15375 251793.120000
    964    967     1   0.15375 251793.120000
    967    976     1   0.15375 251793.120000
    970    982     1   0.15375 251793.120000
    973    979     1   0.15375 251793.120000
    976    985     1   0.14316 258236.480000
    979   2000     1   0.14316 258236.480000
    982   2029     1   0.14316 258236.480000
    986    987     1   0.14647 272713.120000
    986    990     1   0.14647 272713.120000
    986    993     1   0.14647 272713.120000
    987    999     1   0.15375 251793.120000
    990   1002     1   0.15375 251793.120000
    993    996     1   0.15375 251793.120000
    996   1005     1   0.15375 251793.120000
    999   1011     1   0.15375 251793.120000
   1002   1008     1   0.15375 251793.120000
   1005   1014     1   0.14316 258236.480000
   1008   2058     1   0.14316 258236.480000
   1011   2087     1   0.14316 258236.480000
   1015   1016     1   0.14647 272713.120000
   1015   1019     1   0.14647 272713.120000
   1015   1022     1   0.14647 272713.120000
   1016   1028     1   0.15375 251793.120000
   1019   1031     1   0.15375 251793.120000
   1022   1025     1   0.15375 251793.120000
   1025   1034     1   0.15375 251793.120000
   1028   1040     1   0.15375 251793.120000
   1031   1037     1   0.15375 251793.120000
   1034   1043     1   0.14316 258236.480000
   1037   2116     1   0.14316 258236.480000
   1040   2145     1   0.14316 258236.480000
   1044   1045     1   0.14647 272713.120000
   1044   1048     1   0.14647 272713.120000
   1044   1051     1   0.14647 272713.120000
   1045   1057     1   0.15375 251793.120000
   1048   1060     1   0.15375 251793.120000
   1051   1054     1   0.15375 251793.120000
   1054   1063     1   0.15375 251793.120000
   1057   1069     1   0.15375 251793.120000
   1060   1066     1   0.15375 251793.120000
   1063   1072     1   0.14316 258236.480000
   1066   2174     1   0.14316 258236.480000
   1069   2203     1   0.14316 258236.480000
   1073   1074     1   0.14647 272713.120000
   1073   1077     1   0.14647 272713.120000
   1073   1080     1   0.14647 272713.120000
   1074   1086     1   0.15375 251793.120000
   1077   1089     1   0.15375 251793.120000
   1080   1083     1   0.15375 251793.120000
   1083   1092     1   0.15375 251793.120000
   1086   1098     1   0.15375 251793.120000
   1089   1095     1   0.15375 251793.120000
   1092   1101     1   0.14316 258236.480000
   1095   2232     1   0.14316 258236.480000
   1098   2261     1   0.14316 258236.480000
   1102   1103     1   0.14647 272713.120000
   1102   1106     1   0.14647 272713.120000
   1102   1109     1   0.14647 272713.120000
   1103   1115     1   0.15375 251793.120000
   1106   1118     1   0.15375 251793.120000
   1109   1112     1   0.15375 251793.120000
   1112   1121     1   0.15375 251793.120000
   1115   1127     1   0.15375 251793.120000
   1118   1124     1   0.15375 251793.120000
   1121   1130     1   0.14316 258236.480000
   1124   2290     1   0.14316 258236.480000
   1127   2319     1   0.14316 258236.480000
   1131   1132     1   0.14647 272713.120000
   1131   1135     1   0.14647 272713.120000
   1131   1138     1   0.14647 272713.120000
   1132   1144     1   0.15375 251793.120000
   1135   1147     1   0.15375 251793.120000
   1138   1141     1   0.15375 251793.120000
   1141   1150     1   0.15375 251793.120000
   1144   1156     1   0.15375 251793.120000
   1147   1153     1   0.15375 251793.120000
   1150   1159     1   0.14316 258236.480000
   1153   2348     1   0.14316 258236.480000
   1156   2377     1   0.14316 258236.480000
   1160   1161     1   0.14647 272713.120000
   1160   1164     1   0.14647 272713.120000
   1160   1167     1   0.14647 272713.120000
   1161   1173     1   0.15375 251793.120000
   1164   1176     1   0.15375 251793.120000
   1167   1170     1   0.15375 251793.120000
   1170   1179     1   0.15375 251793.120000
   1173   1185     1   0.15375 251793.120000
   1176   1182     1   0.15375 251793.120000
   1179   1188     1   0.14316 258236.480000
   1182   2406     1   0.14316 258236.480000
   1185   2435     1   0.14316 258236.480000
   1189   1190     1   0.14647 272713.120000
   1189   1193     1   0.14647 272713.120000
   1189   1196     1   0.14647 272713.120000
   1190   1202     1   0.15375 251793.120000
   1193   1205     1   0.15375 251793.120000
   1196   1199     1   0.15375 251793.120000
   1199   1208     1   0.15375 251793.120000
   1202   1214     1   0.15375 251793.120000
   1205   1211     1   0.15375 251793.120000
   1208   1217     1   0.14316 258236.480000
   1211   2464     1   0.14316 258236.480000
   1214   2493     1   0.14316 258236.480000
   1218   1219     1   0.14647 272713.120000
   1218   1222     1   0.14647 272713.120000
   1218   1225     1   0.14647 272713.120000
   1219   1231     1   0.15375 251793.120000
   1222   1234     1   0.15375 251793.120000
   1225   1228     1   0.15375 251793.120000
   1228   1237     1   0.15375 251793.120000
   1231   1243     1   0.15375 251793.120000
   1234   1240     1   0.15375 251793.120000
   1237   1246     1   0.14316 258236.480000
   1240   2522     1   0.14316 258236.480000
   1243   2551     1   0.14316 258236.480000
   1247   1248     1   0.14647 272713.120000
   1247   1251     1   0.14647 272713.120000
   1247   1254     1   0.14647 272713.120000
   1248   1260     1   0.15375 251793.120000
   1251   1263     1   0.15375 251793.120000
   1254   1257     1   0.15375 251793.120000
   1257   1266     1   0.15375 251793.120000
   1260   1272     1   0.15375 251793.120000
   1263   1269     1   0.15375 251793.120000
   1266   1275     1   0.14316 258236.480000
   1269   2580     1   0.14316 258236.480000
   1272   2609     1   0.14316 258236.480000
   1276   1277     1   0.14647 272713.120000
   1276   1280     1   0.14647 272713.120000
   1276   1283     1   0.14647 272713.120000
   1277   1289     1   0.15375 251793.120000
   1280   1292     1   0.15375 251793.120000
   1283   1286     1   0.15375 251793.120000
   1286   1295     1   0.15375 251793.120000
   1289   1301     1   0.15375 251793.120000
   1292   1298     1   0.15375 251793.120000
   1295   1304     1   0.14316 258236.480000
   1298   2638     1   0.14316 258236.480000
   1301   2667     1   0.14316 258236.480000
   1305   1306     1   0.14647 272713.120000
   1305   1309     1   0.14647 272713.120000
   1305   1312     1   0.14647 272713.120000
   1306   1318     1   0.15375 251793.120000
   1309   1321     1   0.15375 251793.120000
   1312   1315     1   0.15375 251793.120000
   1315   1324     1   0.15375 251793.120000
   1318   1330     1   0.15375 251793.120000
   1321   1327     1   0.15375 251793.120000
   1324   1333     1   0.14316 258236.480000
   1327   2696     1   0.14316 258236.480000
   1330   2725     1   0.14316 258236.480000
   1334   1335     1   0.14647 272713.120000
   1334   1338     1   0.14647 272713.120000
   1334   1341     1   0.14647 272713.120000
   1335   1347     1   0.15375 251793.120000
   1338   1350     1   0.15375 251793.120000
   1341   1344     1   0.15375 251793.120000
   1344   1353     1   0.15375 251793.120000
   1347   1359     1   0.15375 251793.120000
   1350   1356     1   0.15375 251793.120000
   1353   1362     1   0.14316 258236.480000
   1356   2736     1   0.14316 258236.480000
   1359   2759     1   0.14316 258236.480000
   1363   1364     1   0.14647 272713.120000
   1363   1367     1   0.14647 272713.120000
   1363   1370     1   0.14647 272713.120000
   1364   1376     1   0.15375 251793.120000
   1367   1379     1   0.15375 251793.120000
   1370   1373     1   0.15375 251793.120000
   1373   1382     1   0.15375 251793.120000
   1376   1388     1   0.15375 251793.120000
   1379   1385     1   0.15375 251793.120000
   1382   1391     1   0.14316 258236.480000
   1385   2782     1   0.14316 258236.480000
   1388   2805     1   0.14316 258236.480000
   1392   1393     1   0.14647 272713.120000
   1392   1396     1   0.14647 272713.120000
   1392   1399     1   0.14647 272713.120000
   1393   1405     1   0.15375 251793.120000
   1396   1408     1   0.15375 251793.120000
   1399   1402     1   0.15375 251793.120000
   1402   1411     1   0.15375 251793.120000
   1405   1417     1   0.15375 251793.120000
   1408   1414     1   0.15375 251793.120000
   1411   1420     1   0.14316 258236.480000
   1414   2828     1   0.14316 258236.480000
   1417   2851     1   0.14316 258236.480000
   1421   1422     1   0.14647 272713.120000
   1421   1425     1   0.14647 272713.120000
   1421   1428     1   0.14647 272713.120000
   1422   1434     1   0.15375 251793.120000
   1425   1437     1   0.15375 251793.120000
   1428   1431     1   0.15375 251793.120000
   1431   1440     1   0.15375 251793.120000
   1434   1446     1   0.15375 251793.120000
   1437   1443     1   0.15375 251793.120000
   1440   1449     1   0.14316 258236.480000
   1443   2874     1   0.14316 258236.480000
   1446   2897     1   0.14316 258236.480000
   1450   1451     1   0.14647 272713.120000
   1450   1454     1   0.14647 272713.120000
   1450   1457     1   0.14647 272713.120000
   1451   1463     1   0.15375 251793.120000
   1454   1466     1   0.15375 251793.120000
   1457   1460     1   0.15375 251793.120000
   1460   1469     1   0.15375 251793.120000
   1463   1475     1   0.15375 251793.120000
   1466   1472     1   0.15375 251793.120000
   1469   1478     1   0.14316 258236.480000
   1472   2920     1   0.14316 258236.480000
   1475   2943     1   0.14316 258236.480000
   1479   1480     1   0.14647 272713.120000
   1479   1483     1   0.14647 272713.120000
   1479   1486     1   0.14647 272713.120000
   1480   1492     1   0.15375 251793.120000
   1483   1495     1   0.15375 251793.120000
   1486   1489     1   0.15375 251793.120000
   1489   1498     1   0.15375 251793.120000
   1492   1504     1   0.15375 251793.120000
   1495   1501     1   0.15375 251793.120000
   1498   1507     1   0.14316 258236.480000
   1501   2966     1   0.14316 258236.480000
   1504   2989     1   0.14316 258236.480000
   1508   1509     1   0.14647 272713.120000
   1508   1512     1   0.14647 272713.120000
   1508   1515     1   0.14647 272713.120000
   1509   1521     1   0.15375 251793.120000
   1512   1524     1   0.15375 251793.120000
   1515   1518     1   0.15375 251793.120000
   1518   1527     1   0.15375 251793.120000
   1521   1533     1   0.15375 251793.120000
   1524   1530     1   0.15375 251793.120000
   1527   1536     1   0.14316 258236.480000
   1530   3012     1   0.14316 258236.480000
   1533   3035     1   0.14316 258236.480000
   1537   1538     1   0.14647 272713.120000
   1537   1541     1   0.14647 272713.120000
   1537   1544     1   0.14647 272713.120000
   1538   1550     1   0.15375 251793.120000
   1541   1553     1   0.15375 251793.120000
   1544   1547     1   0.15375 251793.120000
   1547   1556     1   0.15375 251793.120000
   1550   1562     1   0.15375 251793.120000
   1553   1559     1   0.15375 251793.120000
   1556   1565     1   0.14316 258236.480000
   1559   3058     1   0.14316 258236.480000
   1562   3081     1   0.14316 258236.480000
   1566   1567     1   0.14647 272713.120000
   1566   1570     1   0.14647 272713.120000
   1566   1573     1   0.14647 272713.120000
   1567   1579     1   0.15375 251793.120000
   1570   1582     1   0.15375 251793.120000
   1573   1576     1   0.15375 251793.120000
   1576   1585     1   0.15375 251793.120000
   1579   1591     1   0.15375 251793.120000
   1582   1588     1   0.15375 251793.120000
   1585   1594     1   0.14316 258236.480000
   1588   3104     1   0.14316 258236.480000
   1591   3127     1   0.14316 258236.480000
   1595   1596     1   0.14647 272713.120000
   1595   1599     1   0.14647 272713.120000
   1595   1602     1   0.14647 272713.120000
   1596   1608     1   0.15375 251793.120000
   1599   1611     1   0.15375 251793.120000
   1602   1605     1   0.15375 251793.120000
   1605   1614     1   0.15375 251793.120000
   1608   1620     1   0.15375 251793.120000
   1611   1617     1   0.15375 251793.120000
   1614   1623     1   0.14316 258236.480000
   1617   3150     1   0.14316 258236.480000
   1620   3173     1   0.14316 258236.480000
   1624   1625     1   0.14647 272713.120000
   1624   1628     1   0.14647 272713.120000
   1624   1631     1   0.14647 272713.120000
   1625   1637     1   0.15375 251793.120000
   1628   1640     1   0.15375 251793.120000
   1631   1634     1   0.15375 251793.120000
   1634   1643     1   0.15375 251793.120000
   1637   1649     1   0.15375 251793.120000
   1640   1646     1   0.15375 251793.120000
   1643   1652     1   0.14316 258236.480000
   1646   3196     1   0.14316 258236.480000
   1649   3219     1   0.14316 258236.480000
   1653   1654     1   0.14647 272713.120000
   1653   1657     1   0.14647 272713.120000
   1653   1660     1   0.14647 272713.120000
   1654   1666     1   0.15375 251793.120000
   1657   1669     1   0.15375 251793.120000
   1660   1663     1   0.15375 251793.120000
   1663   1672     1   0.15375 251793.120000
   1666   1678     1   0.15375 251793.120000
   1669   1675     1   0.15375 251793.120000
   1672   1681     1   0.14316 258236.480000
   1675   3242     1   0.14316 258236.480000
   1678   3265     1   0.14316 258236.480000
   1682   1683     1   0.14647 272713.120000
   1682   1686     1   0.14647 272713.120000
   1682   1689     1   0.14647 272713.120000
   1683   1695     1   0.15375 251793.120000
   1686   1698     1   0.15375 251793.120000
   1689   1692     1   0.15375 251793.120000
   1692   1701     1   0.15375 251793.120000
   1695   1707     1   0.15375 251793.120000
   1698   1704     1   0.15375 251793.120000
   1701   1710     1   0.14316 258236.480000
   1704   3288     1   0.14316 258236.480000
   1707   3311     1   0.14316 258236.480000
   1711   1712     1   0.14647 272713.120000
   1711   1715     1   0.14647 272713.120000
   1711   1718     1   0.14647 272713.120000
   1712   1724     1   0.15375 251793.120000
   1715   1727     1   0.15375 251793.120000
   1718   1721     1   0.15375 251793.120000
   1721   1730     1   0.15375 251793.120000
   1724   1736     1   0.15375 251793.120000
   1727   1733     1   0.15375 251793.120000
   1730   1739     1   0.14316 258236.480000
   1733   3334     1   0.14316 258236.480000
   1736   3357     1   0.14316 258236.480000
   1740   1741     1   0.14647 272713.120000
   1740   1744     1   0.14647 272713.120000
   1740   1747     1   0.14647 272713.120000
   1741   1753     1   0.15375 251793.120000
   1744   1756     1   0.15375 251793.120000
   1747   1750     1   0.15375 251793.120000
   1750   1759     1   0.15375 251793.120000
   1753   1765     1   0.15375 251793.120000
   1756   1762     1   0.15375 251793.120000
   1759   1768     1   0.14316 258236.480000
   1762   3380     1   0.14316 258236.480000
   1765   3403     1   0.14316 258236.480000
   1769   1770     1   0.14647 272713.120000
   1769   1773     1   0.14647 272713.120000
   1769   1776     1   0.14647 272713.120000
   1770   1782     1   0.15375 251793.120000
   1773   1785     1   0.15375 251793.120000
   1776   1779     1   0.15375 251793.120000
   1779   1788     1   0.15375 251793.120000
   1782   1794     1   0.15375 251793.120000
   1785   1791     1   0.15375 251793.120000
   1788   1797     1   0.14316 258236.480000
   1791   3426     1   0.14316 258236.480000
   1794   3449     1   0.14316 258236.480000
   1798   1799     1   0.14647 272713.120000
   1798   1802     1   0.14647 272713.120000
   1798   1805     1   0.14647 272713.120000
   1799   1811     1   0.15375 251793.120000
   1802   1814     1   0.15375 251793.120000
   1805   1808     1   0.15375 251793.120000
   1808   1817     1   0.15375 251793.120000
   1811   1823     1   0.15375 251793.120000
   1814   1820     1   0.15375 251793.120000
   1817   1826     1   0.14316 258236.480000
   1820   3472     1   0.14316 258236.480000
   1823   3495     1   0.14316 258236.480000
   1827   1828     1   0.14647 272713.120000
   1827   1831     1   0.14647 272713.120000
   1827   1834     1   0.14647 272713.120000
   1828   1840     1   0.15375 251793.120000
   1831   1843     1   0.15375 251793.120000
   1834   1837     1   0.15375 251793.120000
   1837   1846     1   0.15375 251793.120000
   1840   1852     1   0.15375 251793.120000
   1843   1849     1   0.15375 251793.120000
   1846   1855     1   0.14316 258236.480000
   1849   3518     1   0.14316 258236.480000
   1852   3541     1   0.14316 258236.480000
   1856   1857     1   0.14647 272713.120000
   1856   1860     1   0.14647 272713.120000
   1856   1863     1   0.14647 272713.120000
   1857   1869     1   0.15375 251793.120000
   1860   1872     1   0.15375 251793.120000
   1863   1866     1   0.15375 251793.120000
   1866   1875     1   0.15375 251793.120000
   1869   1881     1   0.15375 251793.120000
   1872   1878     1   0.15375 251793.120000
   1875   1884     1   0.14316 258236.480000
   1878   3564     1   0.14316 258236.480000
   1881   3587     1   0.14316 258236.480000
   1885   1886     1   0.14647 272713.120000
   1885   1889     1   0.14647 272713.120000
   1885   1892     1   0.14647 272713.120000
   1886   1898     1   0.15375 251793.120000
   1889   1901     1   0.15375 251793.120000
   1892   1895     1   0.15375 251793.120000
   1895   1904     1   0.15375 251793.120000
   1898   1910     1   0.15375 251793.120000
   1901   1907     1   0.15375 251793.120000
   1904   1913     1   0.14316 258236.480000
   1907   3610     1   0.14316 258236.480000
   1910   3633     1   0.14316 258236.480000
   1914   1915     1   0.14647 272713.120000
   1914   1918     1   0.14647 272713.120000
   1914   1921     1   0.14647 272713.120000
   1915   1927     1   0.15375 251793.120000
   1918   1930     1   0.15375 251793.120000
   1921   1924     1   0.15375 251793.120000
   1924   1933     1   0.15375 251793.120000
   1927   1939     1   0.15375 251793.120000
   1930   1936     1   0.15375 251793.120000
   1933   1942     1   0.14316 258236.480000
   1936   3656     1   0.14316 258236.480000
   1939   3679     1   0.14316 258236.480000
   1943   1944     1   0.14647 272713.120000
   1943   1947     1   0.14647 272713.120000
   1943   1950     1   0.14647 272713.120000
   1944   1956     1   0.15375 251793.120000
   1947   1959     1   0.15375 251793.120000
   1950   1953     1   0.15375 251793.120000
   1953   1962     1   0.15375 251793.120000
   1956   1968     1   0.15375 251793.120000
   1959   1965     1   0.15375 251793.120000
   1962   1971     1   0.14316 258236.480000
   1965   3702     1   0.14316 258236.480000
   1968   3725     1   0.14316 258236.480000
   1972   1973     1   0.14647 272713.120000
   1972   1976     1   0.14647 272713.120000
   1972   1979     1   0.14647 272713.120000
   1973   1985     1   0.15375 251793.120000
   1976   1988     1   0.15375 251793.120000
   1979   1982     1   0.15375 251793.120000
   1982   1991     1   0.15375 251793.120000
   1985   1997     1   0.15375 251793.120000
   1988   1994     1   0.15375 251793.120000
   1991   2000     1   0.14316 258236.480000
   1994   3748     1   0.14316 258236.480000
   1997   3771     1   0.14316 258236.480000
   2001   2002     1   0.14647 272713.120000
   2001   2005     1   0.14647 272713.120000
   2001   2008     1   0.14647 272713.120000
   2002   2014     1   0.15375 251793.120000
   2005   2017     1   0.15375 251793.120000
   2008   2011     1   0.15375 251793.120000
   2011   2020     1   0.15375 251793.120000
   2014   2026     1   0.15375 251793.120000
   2017   2023     1   0.15375 251793.120000
   2020   2029     1   0.14316 258236.480000
   2023   3794     1   0.14316 258236.480000
   2026   3817     1   0.14316 258236.480000
   2030   2031     1   0.14647 272713.120000
   2030   2034     1   0.14647 272713.120000
   2030   2037     1   0.14647 272713.120000
   2031   2043     1   0.15375 251793.120000
   2034   2046     1   0.15375 251793.120000
   2037   2040     1   0.15375 251793.120000
   2040   2049     1   0.15375 251793.120000
   2043   2055     1   0.15375 251793.120000
   2046   2052     1   0.15375 251793.120000
   2049   2058     1   0.14316 258236.480000
   2052   3840     1   0.14316 258236.480000
   2055   3863     1   0.14316 258236.480000
   2059   2060     1   0.14647 272713.120000
   2059   2063     1   0.14647 272713.120000
   2059   2066     1   0.14647 272713.120000
   2060   2072     1   0.15375 251793.120000
   2063   2075     1   0.15375 251793.120000
   2066   2069     1   0.15375 251793.120000
   2069   2078     1   0.15375 251793.120000
   2072   2084     1   0.15375 251793.120000
   2075   2081     1   0.15375 251793.120000
   2078   2087     1   0.14316 258236.480000
   2081   3886     1   0.14316 258236.480000
   2084   3909     1   0.14316 258236.480000
   2088   2089     1   0.14647 272713.120000
   2088   2092     1   0.14647 272713.120000
   2088   2095     1   0.14647 272713.120000
   2089   2101     1   0.15375 251793.120000
   2092   2104     1   0.15375 251793.120000
   2095   2098     1   0.15375 251793.120000
   2098   2107     1   0.15375 251793.120000
   2101   2113     1   0.15375 251793.120000
   2104   2110     1   0.15375 251793.120000
   2107   2116     1   0.14316 258236.480000
   2110   3932     1   0.14316 258236.480000
   2113   3955     1   0.14316 258236.480000
   2117   2118     1   0.14647 272713.120000
   2117   2121     1   0.14647 272713.120000
   2117   2124     1   0.14647 272713.120000
   2118   2130     1   0.15375 251793.120000
   2121   2133     1   0.15375 251793.120000
   2124   2127     1   0.15375 251793.120000
   2127   2136     1   0.15375 251793.120000
   2130   2142     1   0.15375 251793.120000
   2133   2139     1   0.15375 251793.120000
   2136   2145     1   0.14316 258236.480000
   2139   3978     1   0.14316 258236.480000
   2142   4001     1   0.14316 258236.480000
   2146   2147     1   0.14647 272713.120000
   2146   2150     1   0.14647 272713.120000
   2146   2153     1   0.14647 272713.120000
   2147   2159     1   0.15375 251793.120000
   2150   2162     1   0.15375 251793.120000
   2153   2156     1   0.15375 251793.120000
   2156   2165     1   0.15375 251793.120000
   2159   2171     1   0.15375 251793.120000
   2162   2168     1   0.15375 251793.120000
   2165   2174     1   0.14316 258236.480000
   2168   4024     1   0.14316 258236.480000
   2171   4047     1   0.14316 258236.480000
   2175   2176     1   0.14647 272713.120000
   2175   2179     1   0.14647 272713.120000
   2175   2182     1   0.14647 272713.120000
   2176   2188     1   0.15375 251793.120000
   2179   2191     1   0.15375 251793.120000
   2182   2185     1   0.15375 251793.120000
   2185   2194     1   0.15375 251793.120000
   2188   2200     1   0.15375 251793.120000
   2191   2197     1   0.15375 251793.120000
   2194   2203     1   0.14316 258236.480000
   2197   4070     1   0.14316 258236.480000
   2200   4093     1   0.14316 258236.480000
   2204   2205     1   0.14647 272713.120000
   2204   2208     1   0.14647 272713.120000
   2204   2211     1   0.14647 272713.120000
   2205   2217     1   0.15375 251793.120000
   2208   2220     1   0.15375 251793.120000
   2211   2214     1   0.15375 251793.120000
   2214   2223     1   0.15375 251793.120000
   2217   2229     1   0.15375 251793.120000
   2220   2226     1   0.15375 251793.120000
   2223   2232     1   0.14316 258236.480000
   2226   4116     1   0.14316 258236.480000
   2229   4139     1   0.14316 258236.480000
   2233   2234     1   0.14647 272713.120000
   2233   2237     1   0.14647 272713.120000
   2233   2240     1   0.14647 272713.120000
   2234   2246     1   0.15375 251793.120000
   2237   2249     1   0.15375 251793.120000
   2240   2243     1   0.15375 251793.120000
   2243   2252     1   0.15375 251793.120000
   2246   2258     1   0.15375 251793.120000
   2249   2255     1   0.15375 251793.120000
   2252   2261     1   0.14316 258236.480000
   2255   4162     1   0.14316 258236.480000
   2258   4185     1   0.14316 258236.480000
   2262   2263     1   0.14647 272713.120000
   2262   2266     1   0.14647 272713.120000
   2262   2269     1   0.14647 272713.120000
   2263   2275     1   0.15375 251793.120000
   2266   2278     1   0.15375 251793.120000
   2269   2272     1   0.15375 251793.120000
   2272   2281     1   0.15375 251793.120000
   2275   2287     1   0.15375 251793.120000
   2278   2284     1   0.15375 251793.120000
   2281   2290     1   0.14316 258236.480000
   2284   4208     1   0.14316 258236.480000
   2287   4231     1   0.14316 258236.480000
   2291   2292     1   0.14647 272713.120000
   2291   2295     1   0.14647 272713.120000
   2291   2298     1   0.14647 272713.120000
   2292   2304     1   0.15375 251793.120000
   2295   2307     1   0.15375 251793.120000
   2298   2301     1   0.15375 251793.120000
   2301   2310     1   0.15375 251793.120000
   2304   2316     1   0.15375 251793.120000
   2307   2313     1   0.15375 251793.120000
   2310   2319     1   0.14316 258236.480000
   2313   4254     1   0.14316 258236.480000
   2316   4277     1   0.14316 258236.480000
   2320   2321     1   0.14647 272713.120000
   2320   2324     1   0.14647 272713.120000
   2320   2327     1   0.14647 272713.120000
   2321   2333     1   0.15375 251793.120000
   2324   2336     1   0.15375 251793.120000
   2327   2330     1   0.15375 251793.120000
   2330   2339     1   0.15375 251793.120000
   2333   2345     1   0.15375 251793.120000
   2336   2342     1   0.15375 251793.120000
   2339   2348     1   0.14316 258236.480000
   2342   4300     1   0.14316 258236.480000
   2345   4323     1   0.14316 258236.480000
   2349   2350     1   0.14647 272713.120000
   2349   2353     1   0.14647 272713.120000
   2349   2356     1   0.14647 272713.120000
   2350   2362     1   0.15375 251793.120000
   2353   2365     1   0.15375 251793.120000
   2356   2359     1   0.15375 251793.120000
   2359   2368     1   0.15375 251793.120000
   2362   2374     1   0.15375 251793.120000
   2365   2371     1   0.15375 251793.120000
   2368   2377     1   0.14316 258236.480000
   2371   4346     1   0.14316 258236.480000
   2374   4369     1   0.14316 258236.480000
   2378   2379     1   0.14647 272713.120000
   2378   2382     1   0.14647 272713.120000
   2378   2385     1   0.14647 272713.120000
   2379   2391     1   0.15375 251793.120000
   2382   2394     1   0.15375 251793.120000
   2385   2388     1   0.15375 251793.120000
   2388   2397     1   0.15375 251793.120000
   2391   2403     1   0.15375 251793.120000
   2394   2400     1   0.15375 251793.120000
   2397   2406     1   0.14316 258236.480000
   2400   4392     1   0.14316 258236.480000
   2403   4415     1   0.14316 258236.480000
   2407   2408     1   0.14647 272713.120000
   2407   2411     1   0.14647 272713.120000
   2407   2414     1   0.14647 272713.120000
   2408   2420     1   0.15375 251793.120000
   2411   2423     1   0.15375 251793.120000
   2414   2417     1   0.15375 251793.120000
   2417   2426     1   0.15375 251793.120000
   2420   2432     1   0.15375 251793.120000
   2423   2429     1   0.15375 251793.120000
   2426   2435     1   0.14316 258236.480000
   2429   4438     1   0.14316 258236.480000
   2432   4461     1   0.14316 258236.480000
   2436   2437     1   0.14647 272713.120000
   2436   2440     1   0.14647 272713.120000
   2436   2443     1   0.14647 272713.120000
   2437   2449     1   0.15375 251793.120000
   2440   2452     1   0.15375 251793.120000
   2443   2446     1   0.15375 251793.120000
   2446   2455     1   0.15375 251793.120000
   2449   2461     1   0.15375 251793.120000
   2452   2458     1   0.15375 251793.120000
   2455   2464     1   0.14316 258236.480000
   2458   4484     1   0.14316 258236.480000
   2461   4507     1   0.14316 258236.480000
   2465   2466     1   0.14647 272713.120000
   2465   2469     1   0.14647 272713.120000
   2465   2472     1   0.14647 272713.120000
   2466   2478     1   0.15375 251793.120000
   2469   2481     1   0.15375 251793.120000
   2472   2475     1   0.15375 251793.120000
   2475   2484     1   0.15375 251793.120000
   2478   2490     1   0.15375 251793.120000
   2481   2487     1   0.15375 251793.120000
   2484   2493     1   0.14316 258236.480000
   2487   4530     1   0.14316 258236.480000
   2490   4553     1   0.14316 258236.480000
   2494   2495     1   0.14647 272713.120000
   2494   2498     1   0.14647 272713.120000
   2494   2501     1   0.14647 272713.120000
   2495   2507     1   0.15375 251793.120000
   2498   2510     1   0.15375 251793.120000
   2501   2504     1   0.15375 251793.120000
   2504   2513     1   0.15375 251793.120000
   2507   2519     1   0.15375 251793.120000
   2510   2516     1   0.15375 251793.120000
   2513   2522     1   0.14316 258236.480000
   2516   4576     1   0.14316 258236.480000
   2519   4599     1   0.14316 258236.480000
   2523   2524     1   0.14647 272713.120000
   2523   2527     1   0.14647 272713.120000
   2523   2530     1   0.14647 272713.120000
   2524   2536     1   0.15375 251793.120000
   2527   2539     1   0.15375 251793.120000
   2530   2533     1   0.15375 251793.120000
   2533   2542     1   0.15375 251793.120000
   2536   2548     1   0.15375 251793.120000
   2539   2545     1   0.15375 251793.120000
   2542   2551     1   0.14316 258236.480000
   2545   4622     1   0.14316 258236.480000
   2548   4645     1   0.14316 258236.480000
   2552   2553     1   0.14647 272713.120000
   2552   2556     1   0.14647 272713.120000
   2552   2559     1   0.14647 272713.120000
   2553   2565     1   0.15375 251793.120000
   2556   2568     1   0.15375 251793.120000
   2559   2562     1   0.15375 251793.120000
   2562   2571     1   0.15375 251793.120000
   2565   2577     1   0.15375 251793.120000
   2568   2574     1   0.15375 251793.120000
   2571   2580     1   0.14316 258236.480000
   2574   4668     1   0.14316 258236.480000
   2577   4691     1   0.14316 258236.480000
   2581   2582     1   0.14647 272713.120000
   2581   2585     1   0.14647 272713.120000
   2581   2588     1   0.14647 272713.120000
   2582   2594     1   0.15375 251793.120000
   2585   2597     1   0.15375 251793.120000
   2588   2591     1   0.15375 251793.120000
   2591   2600     1   0.15375 251793.120000
   2594   2606     1   0.15375 251793.120000
   2597   2603     1   0.15375 251793.120000
   2600   2609     1   0.14316 258236.480000
   2603   4714     1   0.14316 258236.480000
   2606   4737     1   0.14316 258236.480000
   2610   2611     1   0.14647 272713.120000
   2610   2614     1   0.14647 272713.120000
   2610   2617     1   0.14647 272713.120000
   2611   2623     1   0.15375 251793.120000
   2614   2626     1   0.15375 251793.120000
   2617   2620     1   0.15375 251793.120000
   2620   2629     1   0.15375 251793.120000
   2623   2635     1   0.15375 251793.120000
   2626   2632     1   0.15375 251793.120000
   2629   2638     1   0.14316 258236.480000
   2632   4760     1   0.14316 258236.480000
   2635   4783     1   0.14316 258236.480000
   2639   2640     1   0.14647 272713.120000
   2639   2643     1   0.14647 272713.120000
   2639   2646     1   0.14647 272713.120000
   2640   2652     1   0.15375 251793.120000
   2643   2655     1   0.15375 251793.120000
   2646   2649     1   0.15375 251793.120000
   2649   2658     1   0.15375 251793.120000
   2652   2664     1   0.15375 251793.120000
   2655   2661     1   0.15375 251793.120000
   2658   2667     1   0.14316 258236.480000
   2661   4806     1   0.14316 258236.480000
   2664   4829     1   0.14316 258236.480000
   2668   2669     1   0.14647 272713.120000
   2668   2672     1   0.14647 272713.120000
   2668   2675     1   0.14647 272713.120000
   2669   2681     1   0.15375 251793.120000
   2672   2684     1   0.15375 251793.120000
   2675   2678     1   0.15375 251793.120000
   2678   2687     1   0.15375 251793.120000
   2681   2693     1   0.15375 251793.120000
   2684   2690     1   0.15375 251793.120000
   2687   2696     1   0.14316 258236.480000
   2690   4852     1   0.14316 258236.480000
   2693   4875     1   0.14316 258236.480000
   2697   2698     1   0.14647 272713.120000
   2697   2701     1   0.14647 272713.120000
   2697   2704     1   0.14647 272713.120000
   2698   2710     1   0.15375 251793.120000
   2701   2713     1   0.15375 251793.120000
   2704   2707     1   0.15375 251793.120000
   2707   2716     1   0.15375 251793.120000
   2710   2722     1   0.15375 251793.120000
   2713   2719     1   0.15375 251793.120000
   2716   2725     1   0.14316 258236.480000
   2719   4898     1   0.14316 258236.480000
   2722   4921     1   0.14316 258236.480000
   2726   2727     1   0.15375 251793.120000
   2726   2740     1   0.15375 251793.120000
   2726   2748     1   0.14316 258236.480000
   2727   2730     1   0.15375 251793.120000
   2727   2739     1   0.14233 265014.560000
   2730   2731     1   0.15375 251793.120000
   2730   2738     1   0.14233 265014.560000
   2731   2732     1   0.15375 251793.120000
   2731   2737     1   0.14233 265014.560000
   2732   2736     1   0.14316 258236.480000
   2732   2748     1   0.14316 258236.480000
   2740   2746     1   0.14233 265014.560000
   2749   2750     1   0.15375 251793.120000
   2749   2763     1   0.15375 251793.120000
   2749   2771     1   0.14316 258236.480000
   2750   2753     1   0.15375 251793.120000
   2750   2762     1   0.14233 265014.560000
   2753   2754     1   0.15375 251793.120000
   2753   2761     1   0.14233 265014.560000
   2754   2755     1   0.15375 251793.120000
   2754   2760     1   0.14233 265014.560000
   2755   2759     1   0.14316 258236.480000
   2755   2771     1   0.14316 258236.480000
   2763   2769     1   0.14233 265014.560000
   2772   2773     1   0.15375 251793.120000
   2772   2786     1   0.15375 251793.120000
   2772   2794     1   0.14316 258236.480000
   2773   2776     1   0.15375 251793.120000
   2773   2785     1   0.14233 265014.560000
   2776   2777     1   0.15375 251793.120000
   2776   2784     1   0.14233 265014.560000
   2777   2778     1   0.15375 251793.120000
   2777   2783     1   0.14233 265014.560000
   2778   2782     1   0.14316 258236.480000
   2778   2794     1   0.14316 258236.480000
   2786   2792     1   0.14233 265014.560000
   2795   2796     1   0.15375 251793.120000
   2795   2809     1   0.15375 251793.120000
   2795   2817     1   0.14316 258236.480000
   2796   2799     1   0.15375 251793.120000
   2796   2808     1   0.14233 265014.560000
   2799   2800     1   0.15375 251793.120000
   2799   2807     1   0.14233 265014.560000
   2800   2801     1   0.15375 251793.120000
   2800   2806     1   0.14233 265014.560000
   2801   2805     1   0.14316 258236.480000
   2801   2817     1   0.14316 258236.480000
   2809   2815     1   0.14233 265014.560000
   2818   2819     1   0.15375 251793.120000
   2818   2832     1   0.15375 251793.120000
   2818   2840     1   0.14316 258236.480000
   2819   2822     1   0.15375 251793.120000
   2819   2831     1   0.14233 265014.560000
   2822   2823     1   0.15375 251793.120000
   2822   2830     1   0.14233 265014.560000
   2823   2824     1   0.15375 251793.120000
   2823   2829     1   0.14233 265014.560000
   2824   2828     1   0.14316 258236.480000
   2824   2840     1   0.14316 258236.480000
   2832   2838     1   0.14233 265014.560000
   2841   2842     1   0.15375 251793.120000
   2841   2855     1   0.15375 251793.120000
   2841   2863     1   0.14316 258236.480000
   2842   2845     1   0.15375 251793.120000
   2842   2854     1   0.14233 265014.560000
   2845   2846     1   0.15375 251793.120000
   2845   2853     1   0.14233 265014.560000
   2846   2847     1   0.15375 251793.120000
   2846   2852     1   0.14233 265014.560000
   2847   2851     1   0.14316 258236.480000
   2847   2863     1   0.14316 258236.480000
   2855   2861     1   0.14233 265014.560000
   2864   2865     1   0.15375 251793.120000
   2864   2878     1   0.15375 251793.120000
   2864   2886     1   0.14316 258236.480000
   2865   2868     1   0.15375 251793.120000
   2865   2877     1   0.14233 265014.560000
   2868   2869     1   0.15375 251793.120000
   2868   2876     1   0.14233 265014.560000
   2869   2870     1   0.15375 251793.120000
   2869   2875     1   0.14233 265014.560000
   2870   2874     1   0.14316 258236.480000
   2870   2886     1   0.14316 258236.480000
   2878   2884     1   0.14233 265014.560000
   2887   2888     1   0.15375 251793.120000
   2887   2901     1   0.15375 251793.120000
   2887   2909     1   0.14316 258236.480000
   2888   2891     1   0.15375 251793.120000
   2888   2900     1   0.14233 265014.560000
   2891   2892     1   0.15375 251793.120000
   2891   2899     1   0.14233 265014.560000
   2892   2893     1   0.15375 251793.120000
   2892   2898     1   0.14233 265014.560000
   2893   2897     1   0.14316 258236.480000
   2893   2909     1   0.14316 258236.480000
   2901   2907     1   0.14233 265014.560000
   2910   2911     1   0.15375 251793.120000
   2910   2924     1   0.15375 251793.120000
   2910   2932     1   0.14316 258236.480000
   2911   2914     1   0.15375 251793.120000
   2911   2923     1   0.14233 265014.560000
   2914   2915     1   0.15375 251793.120000
   2914   2922     1   0.14233 265014.560000
   2915   2916     1   0.15375 251793.120000
   2915   2921     1   0.14233 265014.560000
   2916   2920     1   0.14316 258236.480000
   2916   2932     1   0.14316 258236.480000
   2924   2930     1   0.14233 265014.560000
   2933   2934     1   0.15375 251793.120000
   2933   2947     1   0.15375 251793.120000
   2933   2955     1   0.14316 258236.480000
   2934   2937     1   0.15375 251793.120000
   2934   2946     1   0.14233 265014.560000
   2937   2938     1   0.15375 251793.120000
   2937   2945     1   0.14233 265014.560000
   2938   2939     1   0.15375 251793.120000
   2938   2944     1   0.14233 265014.560000
   2939   2943     1   0.14316 258236.480000
   2939   2955     1   0.14316 258236.480000
   2947   2953     1   0.14233 265014.560000
   2956   2957     1   0.15375 251793.120000
   2956   2970     1   0.15375 251793.120000
   2956   2978     1   0.14316 258236.480000
   2957   2960     1   0.15375 251793.120000
   2957   2969     1   0.14233 265014.560000
   2960   2961     1   0.15375 251793.120000
   2960   2968     1   0.14233 265014.560000
   2961   2962     1   0.15375 251793.120000
   2961   2967     1   0.14233 265014.560000
   2962   2966     1   0.14316 258236.480000
   2962   2978     1   0.14316 258236.480000
   2970   2976     1   0.14233 265014.560000
   2979   2980     1   0.15375 251793.120000
   2979   2993     1   0.15375 251793.120000
   2979   3001     1   0.14316 258236.480000
   2980   2983     1   0.15375 251793.120000
   2980   2992     1   0.14233 265014.560000
   2983   2984     1   0.15375 251793.120000
   2983   2991     1   0.14233 265014.560000
   2984   2985     1   0.15375 251793.120000
   2984   2990     1   0.14233 265014.560000
   2985   2989     1   0.14316 258236.480000
   2985   3001     1   0.14316 258236.480000
   2993   2999     1   0.14233 265014.560000
   3002   3003     1   0.15375 251793.120000
   3002   3016     1   0.15375 251793.120000
   3002   3024     1   0.14316 258236.480000
   3003   3006     1   0.15375 251793.120000
   3003   3015     1   0.14233 265014.560000
   3006   3007     1   0.15375 251793.120000
   3006   3014     1   0.14233 265014.560000
   3007   3008     1   0.15375 251793.120000
   3007   3013     1   0.14233 265014.560000
   3008   3012     1   0.14316 258236.480000
   3008   3024     1   0.14316 258236.480000
   3016   3022     1   0.14233 265014.560000
   3025   3026     1   0.15375 251793.120000
   3025   3039     1   0.15375 251793.120000
   3025   3047     1   0.14316 258236.480000
   3026   3029     1   0.15375 251793.120000
   3026   3038     1   0.14233 265014.560000
   3029   3030     1   0.15375 251793.120000
   3029   3037     1   0.14233 265014.560000
   3030   3031     1   0.15375 251793.120000
   3030   3036     1   0.14233 265014.560000
   3031   3035     1   0.14316 258236.480000
   3031   3047     1   0.14316 258236.480000
   3039   3045     1   0.14233 265014.560000
   3048   3049     1   0.15375 251793.120000
   3048   3062     1   0.15375 251793.120000
   3048   3070     1   0.14316 258236.480000
   3049   3052     1   0.15375 251793.120000
   3049   3061     1   0.14233 265014.560000
   3052   3053     1   0.15375 251793.120000
   3052   3060     1   0.14233 265014.560000
   3053   3054     1   0.15375 251793.120000
   3053   3059     1   0.14233 265014.560000
   3054   3058     1   0.14316 258236.480000
   3054   3070     1   0.14316 258236.480000
   3062   3068     1   0.14233 265014.560000
   3071   3072     1   0.15375 251793.120000
   3071   3085     1   0.15375 251793.120000
   3071   3093     1   0.14316 258236.480000
   3072   3075     1   0.15375 251793.120000
   3072   3084     1   0.14233 265014.560000
   3075   3076     1   0.15375 251793.120000
   3075   3083     1   0.14233 265014.560000
   3076   3077     1   0.15375 251793.120000
   3076   3082     1   0.14233 265014.560000
   3077   3081     1   0.14316 258236.480000
   3077   3093     1   0.14316 258236.480000
   3085   3091     1   0.14233 265014.560000
   3094   3095     1   0.15375 251793.120000
   3094   3108     1   0.15375 251793.120000
   3094   3116     1   0.14316 258236.480000
   3095   3098     1   0.15375 251793.120000
   3095   3107     1   0.14233 265014.560000
   3098   3099     1   0.15375 251793.120000
   3098   3106     1   0.14233 265014.560000
   3099   3100     1   0.15375 251793.120000
   3099   3105     1   0.14233 265014.560000
   3100   3104     1   0.14316 258236.480000
   3100   3116     1   0.14316 258236.480000
   3108   3114     1   0.14233 265014.560000
   3117   3118     1   0.15375 251793.120000
   3117   3131     1   0.15375 251793.120000
   3117   3139     1   0.14316 258236.480000
   3118   3121     1   0.15375 251793.120000
   3118   3130     1   0.14233 265014.560000
   3121   3122     1   0.15375 251793.120000
   3121   3129     1   0.14233 265014.560000
   3122   3123     1   0.15375 251793.120000
   3122   3128     1   0.14233 265014.560000
   3123   3127     1   0.14316 258236.480000
   3123   3139     1   0.14316 258236.480000
   3131   3137     1   0.14233 265014.560000
   3140   3141     1   0.15375 251793.120000
   3140   3154     1   0.15375 251793.120000
   3140   3162     1   0.14316 258236.480000
   3141   3144     1   0.15375 251793.120000
   3141   3153     1   0.14233 265014.560000
   3144   3145     1   0.15375 251793.120000
   3144   3152     1   0.14233 265014.560000
   3145   3146     1   0.15375 251793.120000
   3145   3151     1   0.14233 265014.560000
   3146   3150     1   0.14316 258236.480000
   3146   3162     1   0.14316 258236.480000
   3154   3160     1   0.14233 265014.560000
   3163   3164     1   0.15375 251793.120000
   3163   3177     1   0.15375 251793.120000
   3163   3185     1   0.14316 258236.480000
   3164   3167     1   0.15375 251793.120000
   3164   3176     1   0.14233 265014.560000
   3167   3168     1   0.15375 251793.120000
   3167   3175     1   0.14233 265014.560000
   3168   3169     1   0.15375 251793.120000
   3168   3174     1   0.14233 265014.560000
   3169   3173     1   0.14316 258236.480000
   3169   3185     1   0.14316 258236.480000
   3177   3183     1   0.14233 265014.560000
   3186   3187     1   0.15375 251793.120000
   3186   3200     1   0.15375 251793.120000
   3186   3208     1   0.14316 258236.480000
   3187   3190     1   0.15375 251793.120000
   3187   3199     1   0.14233 265014.560000
   3190   3191     1   0.15375 251793.120000
   3190   3198     1   0.14233 265014.560000
   3191   3192     1   0.15375 251793.120000
   3191   3197     1   0.14233 265014.560000
   3192   3196     1   0.14316 258236.480000
   3192   3208     1   0.14316 258236.480000
   3200   3206     1   0.14233 265014.560000
   3209   3210     1   0.15375 251793.120000
   3209   3223     1   0.15375 251793.120000
   3209   3231     1   0.14316 258236.480000
   3210   3213     1   0.15375 251793.120000
   3210   3222     1   0.14233 265014.560000
   3213   3214     1   0.15375 251793.120000
   3213   3221     1   0.14233 265014.560000
   3214   3215     1   0.15375 251793.120000
   3214   3220     1   0.14233 265014.560000
   3215   3219     1   0.14316 258236.480000
   3215   3231     1   0.14316 258236.480000
   3223   3229     1   0.14233 265014.560000
   3232   3233     1   0.15375 251793.120000
   3232   3246     1   0.15375 251793.120000
   3232   3254     1   0.14316 258236.480000
   3233   3236     1   0.15375 251793.120000
   3233   3245     1   0.14233 265014.560000
   3236   3237     1   0.15375 251793.120000
   3236   3244     1   0.14233 265014.560000
   3237   3238     1   0.15375 251793.120000
   3237   3243     1   0.14233 265014.560000
   3238   3242     1   0.14316 258236.480000
   3238   3254     1   0.14316 258236.480000
   3246   3252     1   0.14233 265014.560000
   3255   3256     1   0.15375 251793.120000
   3255   3269     1   0.15375 251793.120000
   3255   3277     1   0.14316 258236.480000
   3256   3259     1   0.15375 251793.120000
   3256   3268     1   0.14233 265014.560000
   3259   3260     1   0.15375 251793.120000
   3259   3267     1   0.14233 265014.560000
   3260   3261     1   0.15375 251793.120000
   3260   3266     1   0.14233 265014.560000
   3261   3265     1   0.14316 258236.480000
   3261   3277     1   0.14316 258236.480000
   3269   3275     1   0.14233 265014.560000
   3278   3279     1   0.15375 251793.120000
   3278   3292     1   0.15375 251793.120000
   3278   3300     1   0.14316 258236.480000
   3279   3282     1   0.15375 251793.120000
   3279   3291     1   0.14233 265014.560000
   3282   3283     1   0.15375 251793.120000
   3282   3290     1   0.14233 265014.560000
   3283   3284     1   0.15375 251793.120000
   3283   3289     1   0.14233 265014.560000
   3284   3288     1   0.14316 258236.480000
   3284   3300     1   0.14316 258236.480000
   3292   3298     1   0.14233 265014.560000
   3301   3302     1   0.15375 251793.120000
   3301   3315     1   0.15375 251793.120000
   3301   3323     1   0.14316 258236.480000
   3302   3305     1   0.15375 251793.120000
   3302   3314     1   0.14233 265014.560000
   3305   3306     1   0.15375 251793.120000
   3305   3313     1   0.14233 265014.560000
   3306   3307     1   0.15375 251793.120000
   3306   3312     1   0.14233 265014.560000
   3307   3311     1   0.14316 258236.480000
   3307   3323     1   0.14316 258236.480000
   3315   3321     1   0.14233 265014.560000
   3324   3325     1   0.15375 251793.120000
   3324   3338     1   0.15375 251793.120000
   3324   3346     1   0.14316 258236.480000
   3325   3328     1   0.15375 251793.120000
   3325   3337     1   0.14233 265014.560000
   3328   3329     1   0.15375 251793.120000
   3328   3336     1   0.14233 265014.560000
   3329   3330     1   0.15375 251793.120000
   3329   3335     1   0.14233 265014.560000
   3330   3334     1   0.14316 258236.480000
   3330   3346     1   0.14316 258236.480000
   3338   3344     1   0.14233 265014.560000
   3347   3348     1   0.15375 251793.120000
   3347   3361     1   0.15375 251793.120000
   3347   3369     1   0.14316 258236.480000
   3348   3351     1   0.15375 251793.120000
   3348   3360     1   0.14233 265014.560000
   3351   3352     1   0.15375 251793.120000
   3351   3359     1   0.14233 265014.560000
   3352   3353     1   0.15375 251793.120000
   3352   3358     1   0.14233 265014.560000
   3353   3357     1   0.14316 258236.480000
   3353   3369     1   0.14316 258236.480000
   3361   3367     1   0.14233 265014.560000
   3370   3371     1   0.15375 251793.120000
   3370   3384     1   0.15375 251793.120000
   3370   3392     1   0.14316 258236.480000
   3371   3374     1   0.15375 251793.120000
   3371   3383     1   0.14233 265014.560000
   3374   3375     1   0.15375 251793.120000
   3374   3382     1   0.14233 265014.560000
   3375   3376     1   0.15375 251793.120000
   3375   3381     1   0.14233 265014.560000
   3376   3380     1   0.14316 258236.480000
   3376   3392     1   0.14316 258236.480000
   3384   3390     1   0.14233 265014.560000
   3393   3394     1   0.15375 251793.120000
   3393   3407     1   0.15375 251793.120000
   3393   3415     1   0.14316 258236.480000
   3394   3397     1   0.15375 251793.120000
   3394   3406     1   0.14233 265014.560000
   3397   3398     1   0.15375 251793.120000
   3397   3405     1   0.14233 265014.560000
   3398   3399     1   0.15375 251793.120000
   3398   3404     1   0.14233 265014.560000
   3399   3403     1   0.14316 258236.480000
   3399   3415     1   0.14316 258236.480000
   3407   3413     1   0.14233 265014.560000
   3416   3417     1   0.15375 251793.120000
   3416   3430     1   0.15375 251793.120000
   3416   3438     1   0.14316 258236.480000
   3417   3420     1   0.15375 251793.120000
   3417   3429     1   0.14233 265014.560000
   3420   3421     1   0.15375 251793.120000
   3420   3428     1   0.14233 265014.560000
   3421   3422     1   0.15375 251793.120000
   3421   3427     1   0.14233 265014.560000
   3422   3426     1   0.14316 258236.480000
   3422   3438     1   0.14316 258236.480000
   3430   3436     1   0.14233 265014.560000
   3439   3440     1   0.15375 251793.120000
   3439   3453     1   0.15375 251793.120000
   3439   3461     1   0.14316 258236.480000
   3440   3443     1   0.15375 251793.120000
   3440   3452     1   0.14233 265014.560000
   3443   3444     1   0.15375 251793.120000
   3443   3451     1   0.14233 265014.560000
   3444   3445     1   0.15375 251793.120000
   3444   3450     1   0.14233 265014.560000
   3445   3449     1   0.14316 258236.480000
   3445   3461     1   0.14316 258236.480000
   3453   3459     1   0.14233 265014.560000
   3462   3463     1   0.15375 251793.120000
   3462   3476     1   0.15375 251793.120000
   3462   3484     1   0.14316 258236.480000
   3463   3466     1   0.15375 251793.120000
   3463   3475     1   0.14233 265014.560000
   3466   3467     1   0.15375 251793.120000
   3466   3474     1   0.14233 265014.560000
   3467   3468     1   0.15375 251793.120000
   3467   3473     1   0.14233 265014.560000
   3468   3472     1   0.14316 258236.480000
   3468   3484     1   0.14316 258236.480000
   3476   3482     1   0.14233 265014.560000
   3485   3486     1   0.15375 251793.120000
   3485   3499     1   0.15375 251793.120000
   3485   3507     1   0.14316 258236.480000
   3486   3489     1   0.15375 251793.120000
   3486   3498     1   0.14233 265014.560000
   3489   3490     1   0.15375 251793.120000
   3489   3497     1   0.14233 265014.560000
   3490   3491     1   0.15375 251793.120000
   3490   3496     1   0.14233 265014.560000
   3491   3495     1   0.14316 258236.480000
   3491   3507     1   0.14316 258236.480000
   3499   3505     1   0.14233 265014.560000
   3508   3509     1   0.15375 251793.120000
   3508   3522     1   0.15375 251793.120000
   3508   3530     1   0.14316 258236.480000
   3509   3512     1   0.15375 251793.120000
   3509   3521     1   0.14233 265014.560000
   3512   3513     1   0.15375 251793.120000
   3512   3520     1   0.14233 265014.560000
   3513   3514     1   0.15375 251793.120000
   3513   3519     1   0.14233 265014.560000
   3514   3518     1   0.14316 258236.480000
   3514   3530     1   0.14316 258236.480000
   3522   3528     1   0.14233 265014.560000
   3531   3532     1   0.15375 251793.120000
   3531   3545     1   0.15375 251793.120000
   3531   3553     1   0.14316 258236.480000
   3532   3535     1   0.15375 251793.120000
   3532   3544     1   0.14233 265014.560000
   3535   3536     1   0.15375 251793.120000
   3535   3543     1   0.14233 265014.560000
   3536   3537     1   0.15375 251793.120000
   3536   3542     1   0.14233 265014.560000
   3537   3541     1   0.14316 258236.480000
   3537   3553     1   0.14316 258236.480000
   3545   3551     1   0.14233 265014.560000
   3554   3555     1   0.15375 251793.120000
   3554   3568     1   0.15375 251793.120000
   3554   3576     1   0.14316 258236.480000
   3555   3558     1   0.15375 251793.120000
   3555   3567     1   0.14233 265014.560000
   3558   3559     1   0.15375 251793.120000
   3558   3566     1   0.14233 265014.560000
   3559   3560     1   0.15375 251793.120000
   3559   3565     1   0.14233 265014.560000
   3560   3564     1   0.14316 258236.480000
   3560   3576     1   0.14316 258236.480000
   3568   3574     1   0.14233 265014.560000
   3577   3578     1   0.15375 251793.120000
   3577   3591     1   0.15375 251793.120000
   3577   3599     1   0.14316 258236.480000
   3578   3581     1   0.15375 251793.120000
   3578   3590     1   0.14233 265014.560000
   3581   3582     1   0.15375 251793.120000
   3581   3589     1   0.14233 265014.560000
   3582   3583     1   0.15375 251793.120000
   3582   3588     1   0.14233 265014.560000
   3583   3587     1   0.14316 258236.480000
   3583   3599     1   0.14316 258236.480000
   3591   3597     1   0.14233 265014.560000
   3600   3601     1   0.15375 251793.120000
   3600   3614     1   0.15375 251793.120000
   3600   3622     1   0.14316 258236.480000
   3601   3604     1   0.15375 251793.120000
   3601   3613     1   0.14233 265014.560000
   3604   3605     1   0.15375 251793.120000
   3604   3612     1   0.14233 265014.560000
   3605   3606     1   0.15375 251793.120000
   3605   3611     1   0.14233 265014.560000
   3606   3610     1   0.14316 258236.480000
   3606   3622     1   0.14316 258236.480000
   3614   3620     1   0.14233 265014.560000
   3623   3624     1   0.15375 251793.120000
   3623   3637     1   0.15375 251793.120000
   3623   3645     1   0.14316 258236.480000
   3624   3627     1   0.15375 251793.120000
   3624   3636     1   0.14233 265014.560000
   3627   3628     1   0.15375 251793.120000
   3627   3635     1   0.14233 265014.560000
   3628   3629     1   0.15375 251793.120000
   3628   3634     1   0.14233 265014.560000
   3629   3633     1   0.14316 258236.480000
   3629   3645     1   0.14316 258236.480000
   3637   3643     1   0.14233 265014.560000
   3646   3647     1   0.15375 251793.120000
   3646   3660     1   0.15375 251793.120000
   3646   3668     1   0.14316 258236.480000
   3647   3650     1   0.15375 251793.120000
   3647   3659     1   0.14233 265014.560000
   3650   3651     1   0.15375 251793.120000
   3650   3658     1   0.14233 265014.560000
   3651   3652     1   0.15375 251793.120000
   3651   3657     1   0.14233 265014.560000
   3652   3656     1   0.14316 258236.480000
   3652   3668     1   0.14316 258236.480000
   3660   3666     1   0.14233 265014.560000
   3669   3670     1   0.15375 251793.120000
   3669   3683     1   0.15375 251793.120000
   3669   3691     1   0.14316 258236.480000
   3670   3673     1   0.15375 251793.120000
   3670   3682     1   0.14233 265014.560000
   3673   3674     1   0.15375 251793.120000
   3673   3681     1   0.14233 265014.560000
   3674   3675     1   0.15375 251793.120000
   3674   3680     1   0.14233 265014.560000
   3675   3679     1   0.14316 258236.480000
   3675   3691     1   0.14316 258236.480000
   3683   3689     1   0.14233 265014.560000
   3692   3693     1   0.15375 251793.120000
   3692   3706     1   0.15375 251793.120000
   3692   3714     1   0.14316 258236.480000
   3693   3696     1   0.15375 251793.120000
   3693   3705     1   0.14233 265014.560000
   3696   3697     1   0.15375 251793.120000
   3696   3704     1   0.14233 265014.560000
   3697   3698     1   0.15375 251793.120000
   3697   3703     1   0.14233 265014.560000
   3698   3702     1   0.14316 258236.480000
   3698   3714     1   0.14316 258236.480000
   3706   3712     1   0.14233 265014.560000
   3715   3716     1   0.15375 251793.120000
   3715   3729     1   0.15375 251793.120000
   3715   3737     1   0.14316 258236.480000
   3716   3719     1   0.15375 251793.120000
   3716   3728     1   0.14233 265014.560000
   3719   3720     1   0.15375 251793.120000
   3719   3727     1   0.14233 265014.560000
   3720   3721     1   0.15375 251793.120000
   3720   3726     1   0.14233 265014.560000
   3721   3725     1   0.14316 258236.480000
   3721   3737     1   0.14316 258236.480000
   3729   3735     1   0.14233 265014.560000
   3738   3739     1   0.15375 251793.120000
   3738   3752     1   0.15375 251793.120000
   3738   3760     1   0.14316 258236.480000
   3739   3742     1   0.15375 251793.120000
   3739   3751     1   0.14233 265014.560000
   3742   3743     1   0.15375 251793.120000
   3742   3750     1   0.14233 265014.560000
   3743   3744     1   0.15375 251793.120000
   3743   3749     1   0.14233 265014.560000
   3744   3748     1   0.14316 258236.480000
   3744   3760     1   0.14316 258236.480000
   3752   3758     1   0.14233 265014.560000
   3761   3762     1   0.15375 251793.120000
   3761   3775     1   0.15375 251793.120000
   3761   3783     1   0.14316 258236.480000
   3762   3765     1   0.15375 251793.120000
   3762   3774     1   0.14233 265014.560000
   3765   3766     1   0.15375 251793.120000
   3765   3773     1   0.14233 265014.560000
   3766   3767     1   0.15375 251793.120000
   3766   3772     1   0.14233 265014.560000
   3767   3771     1   0.14316 258236.480000
   3767   3783     1   0.14316 258236.480000
   3775   3781     1   0.14233 265014.560000
   3784   3785     1   0.15375 251793.120000
   3784   3798     1   0.15375 251793.120000
   3784   3806     1   0.14316 258236.480000
   3785   3788     1   0.15375 251793.120000
   3785   3797     1   0.14233 265014.560000
   3788   3789     1   0.15375 251793.120000
   3788   3796     1   0.14233 265014.560000
   3789   3790     1   0.15375 251793.120000
   3789   3795     1   0.14233 265014.560000
   3790   3794     1   0.14316 258236.480000
   3790   3806     1   0.14316 258236.480000
   3798   3804     1   0.14233 265014.560000
   3807   3808     1   0.15375 251793.120000
   3807   3821     1   0.15375 251793.120000
   3807   3829     1   0.14316 258236.480000
   3808   3811     1   0.15375 251793.120000
   3808   3820     1   0.14233 265014.560000
   3811   3812     1   0.15375 251793.120000
   3811   3819     1   0.14233 265014.560000
   3812   3813     1   0.15375 251793.120000
   3812   3818     1   0.14233 265014.560000
   3813   3817     1   0.14316 258236.480000
   3813   3829     1   0.14316 258236.480000
   3821   3827     1   0.14233 265014.560000
   3830   3831     1   0.15375 251793.120000
   3830   3844     1   0.15375 251793.120000
   3830   3852     1   0.14316 258236.480000
   3831   3834     1   0.15375 251793.120000
   3831   3843     1   0.14233 265014.560000
   3834   3835     1   0.15375 251793.120000
   3834   3842     1   0.14233 265014.560000
   3835   3836     1   0.15375 251793.120000
   3835   3841     1   0.14233 265014.560000
   3836   3840     1   0.14316 258236.480000
   3836   3852     1   0.14316 258236.480000
   3844   3850     1   0.14233 265014.560000
   3853   3854     1   0.15375 251793.120000
   3853   3867     1   0.15375 251793.120000
   3853   3875     1   0.14316 258236.480000
   3854   3857     1   0.15375 251793.120000
   3854   3866     1   0.14233 265014.560000
   3857   3858     1   0.15375 251793.120000
   3857   3865     1   0.14233 265014.560000
   3858   3859     1   0.15375 251793.120000
   3858   3864     1   0.14233 265014.560000
   3859   3863     1   0.14316 258236.480000
   3859   3875     1   0.14316 258236.480000
   3867   3873     1   0.14233 265014.560000
   3876   3877     1   0.15375 251793.120000
   3876   3890     1   0.15375 251793.120000
   3876   3898     1   0.14316 258236.480000
   3877   3880     1   0.15375 251793.120000
   3877   3889     1   0.14233 265014.560000
   3880   3881     1   0.15375 251793.120000
   3880   3888     1   0.14233 265014.560000
   3881   3882     1   0.15375 251793.120000
   3881   3887     1   0.14233 265014.560000
   3882   3886     1   0.14316 258236.480000
   3882   3898     1   0.14316 258236.480000
   3890   3896     1   0.14233 265014.560000
   3899   3900     1   0.15375 251793.120000
   3899   3913     1   0.15375 251793.120000
   3899   3921     1   0.14316 258236.480000
   3900   3903     1   0.15375 251793.120000
   3900   3912     1   0.14233 265014.560000
   3903   3904     1   0.15375 251793.120000
   3903   3911     1   0.14233 265014.560000
   3904   3905     1   0.15375 251793.120000
   3904   3910     1   0.14233 265014.560000
   3905   3909     1   0.14316 258236.480000
   3905   3921     1   0.14316 258236.480000
   3913   3919     1   0.14233 265014.560000
   3922   3923     1   0.15375 251793.120000
   3922   3936     1   0.15375 251793.120000
   3922   3944     1   0.14316 258236.480000
   3923   3926     1   0.15375 251793.120000
   3923   3935     1   0.14233 265014.560000
   3926   3927     1   0.15375 251793.120000
   3926   3934     1   0.14233 265014.560000
   3927   3928     1   0.15375 251793.120000
   3927   3933     1   0.14233 265014.560000
   3928   3932     1   0.14316 258236.480000
   3928   3944     1   0.14316 258236.480000
   3936   3942     1   0.14233 265014.560000
   3945   3946     1   0.15375 251793.120000
   3945   3959     1   0.15375 251793.120000
   3945   3967     1   0.14316 258236.480000
   3946   3949     1   0.15375 251793.120000
   3946   3958     1   0.14233 265014.560000
   3949   3950     1   0.15375 251793.120000
   3949   3957     1   0.14233 265014.560000
   3950   3951     1   0.15375 251793.120000
   3950   3956     1   0.14233 265014.560000
   3951   3955     1   0.14316 258236.480000
   3951   3967     1   0.14316 258236.480000
   3959   3965     1   0.14233 265014.560000
   3968   3969     1   0.15375 251793.120000
   3968   3982     1   0.15375 251793.120000
   3968   3990     1   0.14316 258236.480000
   3969   3972     1   0.15375 251793.120000
   3969   3981     1   0.14233 265014.560000
   3972   3973     1   0.15375 251793.120000
   3972   3980     1   0.14233 265014.560000
   3973   3974     1   0.15375 251793.120000
   3973   3979     1   0.14233 265014.560000
   3974   3978     1   0.14316 258236.480000
   3974   3990     1   0.14316 258236.480000
   3982   3988     1   0.14233 265014.560000
   3991   3992     1   0.15375 251793.120000
   3991   4005     1   0.15375 251793.120000
   3991   4013     1   0.14316 258236.480000
   3992   3995     1   0.15375 251793.120000
   3992   4004     1   0.14233 265014.560000
   3995   3996     1   0.15375 251793.120000
   3995   4003     1   0.14233 265014.560000
   3996   3997     1   0.15375 251793.120000
   3996   4002     1   0.14233 265014.560000
   3997   4001     1   0.14316 258236.480000
   3997   4013     1   0.14316 258236.480000
   4005   4011     1   0.14233 265014.560000
   4014   4015     1   0.15375 251793.120000
   4014   4028     1   0.15375 251793.120000
   4014   4036     1   0.14316 258236.480000
   4015   4018     1   0.15375 251793.120000
   4015   4027     1   0.14233 265014.560000
   4018   4019     1   0.15375 251793.120000
   4018   4026     1   0.14233 265014.560000
   4019   4020     1   0.15375 251793.120000
   4019   4025     1   0.14233 265014.560000
   4020   4024     1   0.14316 258236.480000
   4020   4036     1   0.14316 258236.480000
   4028   4034     1   0.14233 265014.560000
   4037   4038     1   0.15375 251793.120000
   4037   4051     1   0.15375 251793.120000
   4037   4059     1   0.14316 258236.480000
   4038   4041     1   0.15375 251793.120000
   4038   4050     1   0.14233 265014.560000
   4041   4042     1   0.15375 251793.120000
   4041   4049     1   0.14233 265014.560000
   4042   4043     1   0.15375 251793.120000
   4042   4048     1   0.14233 265014.560000
   4043   4047     1   0.14316 258236.480000
   4043   4059     1   0.14316 258236.480000
   4051   4057     1   0.14233 265014.560000
   4060   4061     1   0.15375 251793.120000
   4060   4074     1   0.15375 251793.120000
   4060   4082     1   0.14316 258236.480000
   4061   4064     1   0.15375 251793.120000
   4061   4073     1   0.14233 265014.560000
   4064   4065     1   0.15375 251793.120000
   4064   4072     1   0.14233 265014.560000
   4065   4066     1   0.15375 251793.120000
   4065   4071     1   0.14233 265014.560000
   4066   4070     1   0.14316 258236.480000
   4066   4082     1   0.14316 258236.480000
   4074   4080     1   0.14233 265014.560000
   4083   4084     1   0.15375 251793.120000
   4083   4097     1   0.15375 251793.120000
   4083   4105     1   0.14316 258236.480000
   4084   4087     1   0.15375 251793.120000
   4084   4096     1   0.14233 265014.560000
   4087   4088     1   0.15375 251793.120000
   4087   4095     1   0.14233 265014.560000
   4088   4089     1   0.15375 251793.120000
   4088   4094     1   0.14233 265014.560000
   4089   4093     1   0.14316 258236.480000
   4089   4105     1   0.14316 258236.480000
   4097   4103     1   0.14233 265014.560000
   4106   4107     1   0.15375 251793.120000
   4106   4120     1   0.15375 251793.120000
   4106   4128     1   0.14316 258236.480000
   4107   4110     1   0.15375 251793.120000
   4107   4119     1   0.14233 265014.560000
   4110   4111     1   0.15375 251793.120000
   4110   4118     1   0.14233 265014.560000
   4111   4112     1   0.15375 251793.120000
   4111   4117     1   0.14233 265014.560000
   4112   4116     1   0.14316 258236.480000
   4112   4128     1   0.14316 258236.480000
   4120   4126     1   0.14233 265014.560000
   4129   4130     1   0.15375 251793.120000
   4129   4143     1   0.15375 251793.120000
   4129   4151     1   0.14316 258236.480000
   4130   4133     1   0.15375 251793.120000
   4130   4142     1   0.14233 265014.560000
   4133   4134     1   0.15375 251793.120000
   4133   4141     1   0.14233 265014.560000
   4134   4135     1   0.15375 251793.120000
   4134   4140     1   0.14233 265014.560000
   4135   4139     1   0.14316 258236.480000
   4135   4151     1   0.14316 258236.480000
   4143   4149     1   0.14233 265014.560000
   4152   4153     1   0.15375 251793.120000
   4152   4166     1   0.15375 251793.120000
   4152   4174     1   0.14316 258236.480000
   4153   4156     1   0.15375 251793.120000
   4153   4165     1   0.14233 265014.560000
   4156   4157     1   0.15375 251793.120000
   4156   4164     1   0.14233 265014.560000
   4157   4158     1   0.15375 251793.120000
   4157   4163     1   0.14233 265014.560000
   4158   4162     1   0.14316 258236.480000
   4158   4174     1   0.14316 258236.480000
   4166   4172     1   0.14233 265014.560000
   4175   4176     1   0.15375 251793.120000
   4175   4189     1   0.15375 251793.120000
   4175   4197     1   0.14316 258236.480000
   4176   4179     1   0.15375 251793.120000
   4176   4188     1   0.14233 265014.560000
   4179   4180     1   0.15375 251793.120000
   4179   4187     1   0.14233 265014.560000
   4180   4181     1   0.15375 251793.120000
   4180   4186     1   0.14233 265014.560000
   4181   4185     1   0.14316 258236.480000
   4181   4197     1   0.14316 258236.480000
   4189   4195     1   0.14233 265014.560000
   4198   4199     1   0.15375 251793.120000
   4198   4212     1   0.15375 251793.120000
   4198   4220     1   0.14316 258236.480000
   4199   4202     1   0.15375 251793.120000
   4199   4211     1   0.14233 265014.560000
   4202   4203     1   0.15375 251793.120000
   4202   4210     1   0.14233 265014.560000
   4203   4204     1   0.15375 251793.120000
   4203   4209     1   0.14233 265014.560000
   4204   4208     1   0.14316 258236.480000
   4204   4220     1   0.14316 258236.480000
   4212   4218     1   0.14233 265014.560000
   4221   4222     1   0.15375 251793.120000
   4221   4235     1   0.15375 251793.120000
   4221   4243     1   0.14316 258236.480000
   4222   4225     1   0.15375 251793.120000
   4222   4234     1   0.14233 265014.560000
   4225   4226     1   0.15375 251793.120000
   4225   4233     1   0.14233 265014.560000
   4226   4227     1   0.15375 251793.120000
   4226   4232     1   0.14233 265014.560000
   4227   4231     1   0.14316 258236.480000
   4227   4243     1   0.14316 258236.480000
   4235   4241     1   0.14233 265014.560000
   4244   4245     1   0.15375 251793.120000
   4244   4258     1   0.15375 251793.120000
   4244   4266     1   0.14316 258236.480000
   4245   4248     1   0.15375 251793.120000
   4245   4257     1   0.14233 265014.560000
   4248   4249     1   0.15375 251793.120000
   4248   4256     1   0.14233 265014.560000
   4249   4250     1   0.15375 251793.120000
   4249   4255     1   0.14233 265014.560000
   4250   4254     1   0.14316 258236.480000
   4250   4266     1   0.14316 258236.480000
   4258   4264     1   0.14233 265014.560000
   4267   4268     1   0.15375 251793.120000
   4267   4281     1   0.15375 251793.120000
   4267   4289     1   0.14316 258236.480000
   4268   4271     1   0.15375 251793.120000
   4268   4280     1   0.14233 265014.560000
   4271   4272     1   0.15375 251793.120000
   4271   4279     1   0.14233 265014.560000
   4272   4273     1   0.15375 251793.120000
   4272   4278     1   0.14233 265014.560000
   4273   4277     1   0.14316 258236.480000
   4273   4289     1   0.14316 258236.480000
   4281   4287     1   0.14233 265014.560000
   4290   4291     1   0.15375 251793.120000
   4290   4304     1   0.15375 251793.120000
   4290   4312     1   0.14316 258236.480000
   4291   4294     1   0.15375 251793.120000
   4291   4303     1   0.14233 265014.560000
   4294   4295     1   0.15375 251793.120000
   4294   4302     1   0.14233 265014.560000
   4295   4296     1   0.15375 251793.120000
   4295   4301     1   0.14233 265014.560000
   4296   4300     1   0.14316 258236.480000
   4296   4312     1   0.14316 258236.480000
   4304   4310     1   0.14233 265014.560000
   4313   4314     1   0.15375 251793.120000
   4313   4327     1   0.15375 251793.120000
   4313   4335     1   0.14316 258236.480000
   4314   4317     1   0.15375 251793.120000
   4314   4326     1   0.14233 265014.560000
   4317   4318     1   0.15375 251793.120000
   4317   4325     1   0.14233 265014.560000
   4318   4319     1   0.15375 251793.120000
   4318   4324     1   0.14233 265014.560000
   4319   4323     1   0.14316 258236.480000
   4319   4335     1   0.14316 258236.480000
   4327   4333     1   0.14233 265014.560000
   4336   4337     1   0.15375 251793.120000
   4336   4350     1   0.15375 251793.120000
   4336   4358     1   0.14316 258236.480000
   4337   4340     1   0.15375 251793.120000
   4337   4349     1   0.14233 265014.560000
   4340   4341     1   0.15375 251793.120000
   4340   4348     1   0.14233 265014.560000
   4341   4342     1   0.15375 251793.120000
   4341   4347     1   0.14233 265014.560000
   4342   4346     1   0.14316 258236.480000
   4342   4358     1   0.14316 258236.480000
   4350   4356     1   0.14233 265014.560000
   4359   4360     1   0.15375 251793.120000
   4359   4373     1   0.15375 251793.120000
   4359   4381     1   0.14316 258236.480000
   4360   4363     1   0.15375 251793.120000
   4360   4372     1   0.14233 265014.560000
   4363   4364     1   0.15375 251793.120000
   4363   4371     1   0.14233 265014.560000
   4364   4365     1   0.15375 251793.120000
   4364   4370     1   0.14233 265014.560000
   4365   4369     1   0.14316 258236.480000
   4365   4381     1   0.14316 258236.480000
   4373   4379     1   0.14233 265014.560000
   4382   4383     1   0.15375 251793.120000
   4382   4396     1   0.15375 251793.120000
   4382   4404     1   0.14316 258236.480000
   4383   4386     1   0.15375 251793.120000
   4383   4395     1   0.14233 265014.560000
   4386   4387     1   0.15375 251793.120000
   4386   4394     1   0.14233 265014.560000
   4387   4388     1   0.15375 251793.120000
   4387   4393     1   0.14233 265014.560000
   4388   4392     1   0.14316 258236.480000
   4388   4404     1   0.14316 258236.480000
   4396   4402     1   0.14233 265014.560000
   4405   4406     1   0.15375 251793.120000
   4405   4419     1   0.15375 251793.120000
   4405   4427     1   0.14316 258236.480000
   4406   4409     1   0.15375 251793.120000
   4406   4418     1   0.14233 265014.560000
   4409   4410     1   0.15375 251793.120000
   4409   4417     1   0.14233 265014.560000
   4410   4411     1   0.15375 251793.120000
   4410   4416     1   0.14233 265014.560000
   4411   4415     1   0.14316 258236.480000
   4411   4427     1   0.14316 258236.480000
   4419   4425     1   0.14233 265014.560000
   4428   4429     1   0.15375 251793.120000
   4428   4442     1   0.15375 251793.120000
   4428   4450     1   0.14316 258236.480000
   4429   4432     1   0.15375 251793.120000
   4429   4441     1   0.14233 265014.560000
   4432   4433     1   0.15375 251793.120000
   4432   4440     1   0.14233 265014.560000
   4433   4434     1   0.15375 251793.120000
   4433   4439     1   0.14233 265014.560000
   4434   4438     1   0.14316 258236.480000
   4434   4450     1   0.14316 258236.480000
   4442   4448     1   0.14233 265014.560000
   4451   4452     1   0.15375 251793.120000
   4451   4465     1   0.15375 251793.120000
   4451   4473     1   0.14316 258236.480000
   4452   4455     1   0.15375 251793.120000
   4452   4464     1   0.14233 265014.560000
   4455   4456     1   0.15375 251793.120000
   4455   4463     1   0.14233 265014.560000
   4456   4457     1   0.15375 251793.120000
   4456   4462     1   0.14233 265014.560000
   4457   4461     1   0.14316 258236.480000
   4457   4473     1   0.14316 258236.480000
   4465   4471     1   0.14233 265014.560000
   4474   4475     1   0.15375 251793.120000
   4474   4488     1   0.15375 251793.120000
   4474   4496     1   0.14316 258236.480000
   4475   4478     1   0.15375 251793.120000
   4475   4487     1   0.14233 265014.560000
   4478   4479     1   0.15375 251793.120000
   4478   4486     1   0.14233 265014.560000
   4479   4480     1   0.15375 251793.120000
   4479   4485     1   0.14233 265014.560000
   4480   4484     1   0.14316 258236.480000
   4480   4496     1   0.14316 258236.480000
   4488   4494     1   0.14233 265014.560000
   4497   4498     1   0.15375 251793.120000
   4497   4511     1   0.15375 251793.120000
   4497   4519     1   0.14316 258236.480000
   4498   4501     1   0.15375 251793.120000
   4498   4510     1   0.14233 265014.560000
   4501   4502     1   0.15375 251793.120000
   4501   4509     1   0.14233 265014.560000
   4502   4503     1   0.15375 251793.120000
   4502   4508     1   0.14233 265014.560000
   4503   4507     1   0.14316 258236.480000
   4503   4519     1   0.14316 258236.480000
   4511   4517     1   0.14233 265014.560000
   4520   4521     1   0.15375 251793.120000
   4520   4534     1   0.15375 251793.120000
   4520   4542     1   0.14316 258236.480000
   4521   4524     1   0.15375 251793.120000
   4521   4533     1   0.14233 265014.560000
   4524   4525     1   0.15375 251793.120000
   4524   4532     1   0.14233 265014.560000
   4525   4526     1   0.15375 251793.120000
   4525   4531     1   0.14233 265014.560000
   4526   4530     1   0.14316 258236.480000
   4526   4542     1   0.14316 258236.480000
   4534   4540     1   0.14233 265014.560000
   4543   4544     1   0.15375 251793.120000
   4543   4557     1   0.15375 251793.120000
   4543   4565     1   0.14316 258236.480000
   4544   4547     1   0.15375 251793.120000
   4544   4556     1   0.14233 265014.560000
   4547   4548     1   0.15375 251793.120000
   4547   4555     1   0.14233 265014.560000
   4548   4549     1   0.15375 251793.120000
   4548   4554     1   0.14233 265014.560000
   4549   4553     1   0.14316 258236.480000
   4549   4565     1   0.14316 258236.480000
   4557   4563     1   0.14233 265014.560000
   4566   4567     1   0.15375 251793.120000
   4566   4580     1   0.15375 251793.120000
   4566   4588     1   0.14316 258236.480000
   4567   4570     1   0.15375 251793.120000
   4567   4579     1   0.14233 265014.560000
   4570   4571     1   0.15375 251793.120000
   4570   4578     1   0.14233 265014.560000
   4571   4572     1   0.15375 251793.120000
   4571   4577     1   0.14233 265014.560000
   4572   4576     1   0.14316 258236.480000
   4572   4588     1   0.14316 258236.480000
   4580   4586     1   0.14233 265014.560000
   4589   4590     1   0.15375 251793.120000
   4589   4603     1   0.15375 251793.120000
   4589   4611     1   0.14316 258236.480000
   4590   4593     1   0.15375 251793.120000
   4590   4602     1   0.14233 265014.560000
   4593   4594     1   0.15375 251793.120000
   4593   4601     1   0.14233 265014.560000
   4594   4595     1   0.15375 251793.120000
   4594   4600     1   0.14233 265014.560000
   4595   4599     1   0.14316 258236.480000
   4595   4611     1   0.14316 258236.480000
   4603   4609     1   0.14233 265014.560000
   4612   4613     1   0.15375 251793.120000
   4612   4626     1   0.15375 251793.120000
   4612   4634     1   0.14316 258236.480000
   4613   4616     1   0.15375 251793.120000
   4613   4625     1   0.14233 265014.560000
   4616   4617     1   0.15375 251793.120000
   4616   4624     1   0.14233 265014.560000
   4617   4618     1   0.15375 251793.120000
   4617   4623     1   0.14233 265014.560000
   4618   4622     1   0.14316 258236.480000
   4618   4634     1   0.14316 258236.480000
   4626   4632     1   0.14233 265014.560000
   4635   4636     1   0.15375 251793.120000
   4635   4649     1   0.15375 251793.120000
   4635   4657     1   0.14316 258236.480000
   4636   4639     1   0.15375 251793.120000
   4636   4648     1   0.14233 265014.560000
   4639   4640     1   0.15375 251793.120000
   4639   4647     1   0.14233 265014.560000
   4640   4641     1   0.15375 251793.120000
   4640   4646     1   0.14233 265014.560000
   4641   4645     1   0.14316 258236.480000
   4641   4657     1   0.14316 258236.480000
   4649   4655     1   0.14233 265014.560000
   4658   4659     1   0.15375 251793.120000
   4658   4672     1   0.15375 251793.120000
   4658   4680     1   0.14316 258236.480000
   4659   4662     1   0.15375 251793.120000
   4659   4671     1   0.14233 265014.560000
   4662   4663     1   0.15375 251793.120000
   4662   4670     1   0.14233 265014.560000
   4663   4664     1   0.15375 251793.120000
   4663   4669     1   0.14233 265014.560000
   4664   4668     1   0.14316 258236.480000
   4664   4680     1   0.14316 258236.480000
   4672   4678     1   0.14233 265014.560000
   4681   4682     1   0.15375 251793.120000
   4681   4695     1   0.15375 251793.120000
   4681   4703     1   0.14316 258236.480000
   4682   4685     1   0.15375 251793.120000
   4682   4694     1   0.14233 265014.560000
   4685   4686     1   0.15375 251793.120000
   4685   4693     1   0.14233 265014.560000
   4686   4687     1   0.15375 251793.120000
   4686   4692     1   0.14233 265014.560000
   4687   4691     1   0.14316 258236.480000
   4687   4703     1   0.14316 258236.480000
   4695   4701     1   0.14233 265014.560000
   4704   4705     1   0.15375 251793.120000
   4704   4718     1   0.15375 251793.120000
   4704   4726     1   0.14316 258236.480000
   4705   4708     1   0.15375 251793.120000
   4705   4717     1   0.14233 265014.560000
   4708   4709     1   0.15375 251793.120000
   4708   4716     1   0.14233 265014.560000
   4709   4710     1   0.15375 251793.120000
   4709   4715     1   0.14233 265014.560000
   4710   4714     1   0.14316 258236.480000
   4710   4726     1   0.14316 258236.480000
   4718   4724     1   0.14233 265014.560000
   4727   4728     1   0.15375 251793.120000
   4727   4741     1   0.15375 251793.120000
   4727   4749     1   0.14316 258236.480000
   4728   4731     1   0.15375 251793.120000
   4728   4740     1   0.14233 265014.560000
   4731   4732     1   0.15375 251793.120000
   4731   4739     1   0.14233 265014.560000
   4732   4733     1   0.15375 251793.120000
   4732   4738     1   0.14233 265014.560000
   4733   4737     1   0.14316 258236.480000
   4733   4749     1   0.14316 258236.480000
   4741   4747     1   0.14233 265014.560000
   4750   4751     1   0.15375 251793.120000
   4750   4764     1   0.15375 251793.120000
   4750   4772     1   0.14316 258236.480000
   4751   4754     1   0.15375 251793.120000
   4751   4763     1   0.14233 265014.560000
   4754   4755     1   0.15375 251793.120000
   4754   4762     1   0.14233 265014.560000
   4755   4756     1   0.15375 251793.120000
   4755   4761     1   0.14233 265014.560000
   4756   4760     1   0.14316 258236.480000
   4756   4772     1   0.14316 258236.480000
   4764   4770     1   0.14233 265014.560000
   4773   4774     1   0.15375 251793.120000
   4773   4787     1   0.15375 251793.120000
   4773   4795     1   0.14316 258236.480000
   4774   4777     1   0.15375 251793.120000
   4774   4786     1   0.14233 265014.560000
   4777   4778     1   0.15375 251793.120000
   4777   4785     1   0.14233 265014.560000
   4778   4779     1   0.15375 251793.120000
   4778   4784     1   0.14233 265014.560000
   4779   4783     1   0.14316 258236.480000
   4779   4795     1   0.14316 258236.480000
   4787   4793     1   0.14233 265014.560000
   4796   4797     1   0.15375 251793.120000
   4796   4810     1   0.15375 251793.120000
   4796   4818     1   0.14316 258236.480000
   4797   4800     1   0.15375 251793.120000
   4797   4809     1   0.14233 265014.560000
   4800   4801     1   0.15375 251793.120000
   4800   4808     1   0.14233 265014.560000
   4801   4802     1   0.15375 251793.120000
   4801   4807     1   0.14233 265014.560000
   4802   4806     1   0.14316 258236.480000
   4802   4818     1   0.14316 258236.480000
   4810   4816     1   0.14233 265014.560000
   4819   4820     1   0.15375 251793.120000
   4819   4833     1   0.15375 251793.120000
   4819   4841     1   0.14316 258236.480000
   4820   4823     1   0.15375 251793.120000
   4820   4832     1   0.14233 265014.560000
   4823   4824     1   0.15375 251793.120000
   4823   4831     1   0.14233 265014.560000
   4824   4825     1   0.15375 251793.120000
   4824   4830     1   0.14233 265014.560000
   4825   4829     1   0.14316 258236.480000
   4825   4841     1   0.14316 258236.480000
   4833   4839     1   0.14233 265014.560000
   4842   4843     1   0.15375 251793.120000
   4842   4856     1   0.15375 251793.120000
   4842   4864     1   0.14316 258236.480000
   4843   4846     1   0.15375 251793.120000
   4843   4855     1   0.14233 265014.560000
   4846   4847     1   0.15375 251793.120000
   4846   4854     1   0.14233 265014.560000
   4847   4848     1   0.15375 251793.120000
   4847   4853     1   0.14233 265014.560000
   4848   4852     1   0.14316 258236.480000
   4848   4864     1   0.14316 258236.480000
   4856   4862     1   0.14233 265014.560000
   4865   4866     1   0.15375 251793.120000
   4865   4879     1   0.15375 251793.120000
   4865   4887     1   0.14316 258236.480000
   4866   4869     1   0.15375 251793.120000
   4866   4878     1   0.14233 265014.560000
   4869   4870     1   0.15375 251793.120000
   4869   4877     1   0.14233 265014.560000
   4870   4871     1   0.15375 251793.120000
   4870   4876     1   0.14233 265014.560000
   4871   4875     1   0.14316 258236.480000
   4871   4887     1   0.14316 258236.480000
   4879   4885     1   0.14233 265014.560000
   4888   4889     1   0.15375 251793.120000
   4888   4902     1   0.15375 251793.120000
   4888   4910     1   0.14316 258236.480000
   4889   4892     1   0.15375 251793.120000
   4889   4901     1   0.14233 265014.560000
   4892   4893     1   0.15375 251793.120000
   4892   4900     1   0.14233 265014.560000
   4893   4894     1   0.15375 251793.120000
   4893   4899     1   0.14233 265014.560000
   4894   4898     1   0.14316 258236.480000
   4894   4910     1   0.14316 258236.480000
   4902   4908     1   0.14233 265014.560000
   4911   4912     1   0.15375 251793.120000
   4911   4925     1   0.15375 251793.120000
   4911   4933     1   0.14316 258236.480000
   4912   4915     1   0.15375 251793.120000
   4912   4924     1   0.14233 265014.560000
   4915   4916     1   0.15375 251793.120000
   4915   4923     1   0.14233 265014.560000
   4916   4917     1   0.15375 251793.120000
   4916   4922     1   0.14233 265014.560000
   4917   4921     1   0.14316 258236.480000
   4917   4933     1   0.14316 258236.480000
   4925   4931     1   0.14233 265014.560000
      2      3     1   0.10969 276646.080000
      2      4     1   0.10969 276646.080000
      5      6     1   0.10969 276646.080000
      5      7     1   0.10969 276646.080000
      8      9     1   0.10969 276646.080000
      8     10     1   0.10969 276646.080000
     11     12     1   0.10969 276646.080000
     11     13     1   0.10969 276646.080000
     14     15     1   0.10969 276646.080000
     14     16     1   0.10969 276646.080000
     17     18     1   0.10969 276646.080000
     17     19     1   0.10969 276646.080000
     20     21     1   0.10969 276646.080000
     20     22     1   0.10969 276646.080000
     23     24     1   0.10969 276646.080000
     23     25     1   0.10969 276646.080000
     26     27     1   0.10969 276646.080000
     26     28     1   0.10969 276646.080000
     30     31     1   0.10969 276646.080000
     30     32     1   0.10969 276646.080000
     33     34     1   0.10969 276646.080000
     33     35     1   0.10969 276646.080000
     36     37     1   0.10969 276646.080000
     36     38     1   0.10969 276646.080000
     39     40     1   0.10969 276646.080000
     39     41     1   0.10969 276646.080000
     42     43     1   0.10969 276646.080000
     42     44     1   0.10969 276646.080000
     45     46     1   0.10969 276646.080000
     45     47     1   0.10969 276646.080000
     48     49     1   0.10969 276646.080000
     48     50     1   0.10969 276646.080000
     51     52     1   0.10969 276646.080000
     51     53     1   0.10969 276646.080000
     54     55     1   0.10969 276646.080000
     54     56     1   0.10969 276646.080000
     59     60     1   0.10969 276646.080000
     59     61     1   0.10969 276646.080000
     62     63     1   0.10969 276646.080000
     62     64     1   0.10969 276646.080000
     65     66     1   0.10969 276646.080000
     65     67     1   0.10969 276646.080000
     68     69     1   0.10969 276646.080000
     68     70     1   0.10969 276646.080000
     71     72     1   0.10969 276646.080000
     71     73     1   0.10969 276646.080000
     74     75     1   0.10969 276646.080000
     74     76     1   0.10969 276646.080000
     77     78     1   0.10969 276646.080000
     77     79     1   0.10969 276646.080000
     80     81     1   0.10969 276646.080000
     80     82     1   0.10969 276646.080000
     83     84     1   0.10969 276646.080000
     83     85     1   0.10969 276646.080000
     88     89     1   0.10969 276646.080000
     88     90     1   0.10969 276646.080000
     91     92     1   0.10969 276646.080000
     91     93     1   0.10969 276646.080000
     94     95     1   0.10969 276646.080000
     94     96     1   0.10969 276646.080000
     97     98     1   0.10969 276646.080000
     97     99     1   0.10969 276646.080000
    100    101     1   0.10969 276646.080000
    100    102     1   0.10969 276646.080000
    103    104     1   0.10969 276646.080000
    103    105     1   0.10969 276646.080000
    106    107     1   0.10969 276646.080000
    106    108     1   0.10969 276646.080000
    109    110     1   0.10969 276646.080000
    109    111     1   0.10969 276646.080000
    112    113     1   0.10969 276646.080000
    112    114     1   0.10969 276646.080000
    117    118     1   0.10969 276646.080000
    117    119     1   0.10969 276646.080000
    120    121     1   0.10969 276646.080000
    120    122     1   0.10969 276646.080000
    123    124     1   0.10969 276646.080000
    123    125     1   0.10969 276646.080000
    126    127     1   0.10969 276646.080000
    126    128     1   0.10969 276646.080000
    129    130     1   0.10969 276646.080000
    129    131     1   0.10969 276646.080000
    132    133     1   0.10969 276646.080000
    132    134     1   0.10969 276646.080000
    135    136     1   0.10969 276646.080000
    135    137     1   0.10969 276646.080000
    138    139     1   0.10969 276646.080000
    138    140     1   0.10969 276646.080000
    141    142     1   0.10969 276646.080000
    141    143     1   0.10969 276646.080000
    146    147     1   0.10969 276646.080000
    146    148     1   0.10969 276646.080000
    149    150     1   0.10969 276646.080000
    149    151     1   0.10969 276646.080000
    152    153     1   0.10969 276646.080000
    152    154     1   0.10969 276646.080000
    155    156     1   0.10969 276646.080000
    155    157     1   0.10969 276646.080000
    158    159     1   0.10969 276646.080000
    158    160     1   0.10969 276646.080000
    161    162     1   0.10969 276646.080000
    161    163     1   0.10969 276646.080000
    164    165     1   0.10969 276646.080000
    164    166     1   0.10969 276646.080000
    167    168     1   0.10969 276646.080000
    167    169     1   0.10969 276646.080000
    170    171     1   0.10969 276646.080000
    170    172     1   0.10969 276646.080000
    175    176     1   0.10969 276646.080000
    175    177     1   0.10969 276646.080000
    178    179     1   0.10969 276646.080000
    178    180     1   0.10969 276646.080000
    181    182     1   0.10969 276646.080000
    181    183     1   0.10969 276646.080000
    184    185     1   0.10969 276646.080000
    184    186     1   0.10969 276646.080000
    187    188     1   0.10969 276646.080000
    187    189     1   0.10969 276646.080000
    190    191     1   0.10969 276646.080000
    190    192     1   0.10969 276646.080000
    193    194     1   0.10969 276646.080000
    193    195     1   0.10969 276646.080000
    196    197     1   0.10969 276646.080000
    196    198     1   0.10969 276646.080000
    199    200     1   0.10969 276646.080000
    199    201     1   0.10969 276646.080000
    204    205     1   0.10969 276646.080000
    204    206     1   0.10969 276646.080000
    207    208     1   0.10969 276646.080000
    207    209     1   0.10969 276646.080000
    210    211     1   0.10969 276646.080000
    210    212     1   0.10969 276646.080000
    213    214     1   0.10969 276646.080000
    213    215     1   0.10969 276646.080000
    216    217     1   0.10969 276646.080000
    216    218     1   0.10969 276646.080000
    219    220     1   0.10969 276646.080000
    219    221     1   0.10969 276646.080000
    222    223     1   0.10969 276646.080000
    222    224     1   0.10969 276646.080000
    225    226     1   0.10969 276646.080000
    225    227     1   0.10969 276646.080000
    228    229     1   0.10969 276646.080000
    228    230     1   0.10969 276646.080000
    233    234     1   0.10969 276646.080000
    233    235     1   0.10969 276646.080000
    236    237     1   0.10969 276646.080000
    236    238     1   0.10969 276646.080000
    239    240     1   0.10969 276646.080000
    239    241     1   0.10969 276646.080000
    242    243     1   0.10969 276646.080000
    242    244     1   0.10969 276646.080000
    245    246     1   0.10969 276646.080000
    245    247     1   0.10969 276646.080000
    248    249     1   0.10969 276646.080000
    248    250     1   0.10969 276646.080000
    251    252     1   0.10969 276646.080000
    251    253     1   0.10969 276646.080000
    254    255     1   0.10969 276646.080000
    254    256     1   0.10969 276646.080000
    257    258     1   0.10969 276646.080000
    257    259     1   0.10969 276646.080000
    262    263     1   0.10969 276646.080000
    262    264     1   0.10969 276646.080000
    265    266     1   0.10969 276646.080000
    265    267     1   0.10969 276646.080000
    268    269     1   0.10969 276646.080000
    268    270     1   0.10969 276646.080000
    271    272     1   0.10969 276646.080000
    271    273     1   0.10969 276646.080000
    274    275     1   0.10969 276646.080000
    274    276     1   0.10969 276646.080000
    277    278     1   0.10969 276646.080000
    277    279     1   0.10969 276646.080000
    280    281     1   0.10969 276646.080000
    280    282     1   0.10969 276646.080000
    283    284     1   0.10969 276646.080000
    283    285     1   0.10969 276646.080000
    286    287     1   0.10969 276646.080000
    286    288     1   0.10969 276646.080000
    291    292     1   0.10969 276646.080000
    291    293     1   0.10969 276646.080000
    294    295     1   0.10969 276646.080000
    294    296     1   0.10969 276646.080000
    297    298     1   0.10969 276646.080000
    297    299     1   0.10969 276646.080000
    300    301     1   0.10969 276646.080000
    300    302     1   0.10969 276646.080000
    303    304     1   0.10969 276646.080000
    303    305     1   0.10969 276646.080000
    306    307     1   0.10969 276646.080000
    306    308     1   0.10969 276646.080000
    309    310     1   0.10969 276646.080000
    309    311     1   0.10969 276646.080000
    312    313     1   0.10969 276646.080000
    312    314     1   0.10969 276646.080000
    315    316     1   0.10969 276646.080000
    315    317     1   0.10969 276646.080000
    320    321     1   0.10969 276646.080000
    320    322     1   0.10969 276646.080000
    323    324     1   0.10969 276646.080000
    323    325     1   0.10969 276646.080000
    326    327     1   0.10969 276646.080000
    326    328     1   0.10969 276646.080000
    329    330     1   0.10969 276646.080000
    329    331     1   0.10969 276646.080000
    332    333     1   0.10969 276646.080000
    332    334     1   0.10969 276646.080000
    335    336     1   0.10969 276646.080000
    335    337     1   0.10969 276646.080000
    338    339     1   0.10969 276646.080000
    338    340     1   0.10969 276646.080000
    341    342     1   0.10969 276646.080000
    341    343     1   0.10969 276646.080000
    344    345     1   0.10969 276646.080000
    344    346     1   0.10969 276646.080000
    349    350     1   0.10969 276646.080000
    349    351     1   0.10969 276646.080000
    352    353     1   0.10969 276646.080000
    352    354     1   0.10969 276646.080000
    355    356     1   0.10969 276646.080000
    355    357     1   0.10969 276646.080000
    358    359     1   0.10969 276646.080000
    358    360     1   0.10969 276646.080000
    361    362     1   0.10969 276646.080000
    361    363     1   0.10969 276646.080000
    364    365     1   0.10969 276646.080000
    364    366     1   0.10969 276646.080000
    367    368     1   0.10969 276646.080000
    367    369     1   0.10969 276646.080000
    370    371     1   0.10969 276646.080000
    370    372     1   0.10969 276646.080000
    373    374     1   0.10969 276646.080000
    373    375     1   0.10969 276646.080000
    378    379     1   0.10969 276646.080000
    378    380     1   0.10969 276646.080000
    381    382     1   0.10969 276646.080000
    381    383     1   0.10969 276646.080000
    384    385     1   0.10969 276646.080000
    384    386     1   0.10969 276646.080000
    387    388     1   0.10969 276646.080000
    387    389     1   0.10969 276646.080000
    390    391     1   0.10969 276646.080000
    390    392     1   0.10969 276646.080000
    393    394     1   0.10969 276646.080000
    393    395     1   0.10969 276646.080000
    396    397     1   0.10969 276646.080000
    396    398     1   0.10969 276646.080000
    399    400     1   0.10969 276646.080000
    399    401     1   0.10969 276646.080000
    402    403     1   0.10969 276646.080000
    402    404     1   0.10969 276646.080000
    407    408     1   0.10969 276646.080000
    407    409     1   0.10969 276646.080000
    410    411     1   0.10969 276646.080000
    410    412     1   0.10969 276646.080000
    413    414     1   0.10969 276646.080000
    413    415     1   0.10969 276646.080000
    416    417     1   0.10969 276646.080000
    416    418     1   0.10969 276646.080000
    419    420     1   0.10969 276646.080000
    419    421     1   0.10969 276646.080000
    422    423     1   0.10969 276646.080000
    422    424     1   0.10969 276646.080000
    425    426     1   0.10969 276646.080000
    425    427     1   0.10969 276646.080000
    428    429     1   0.10969 276646.080000
    428    430     1   0.10969 276646.080000
    431    432     1   0.10969 276646.080000
    431    433     1   0.10969 276646.080000
    436    437     1   0.10969 276646.080000
    436    438     1   0.10969 276646.080000
    439    440     1   0.10969 276646.080000
    439    441     1   0.10969 276646.080000
    442    443     1   0.10969 276646.080000
    442    444     1   0.10969 276646.080000
    445    446     1   0.10969 276646.080000
    445    447     1   0.10969 276646.080000
    448    449     1   0.10969 276646.080000
    448    450     1   0.10969 276646.080000
    451    452     1   0.10969 276646.080000
    451    453     1   0.10969 276646.080000
    454    455     1   0.10969 276646.080000
    454    456     1   0.10969 276646.080000
    457    458     1   0.10969 276646.080000
    457    459     1   0.10969 276646.080000
    460    461     1   0.10969 276646.080000
    460    462     1   0.10969 276646.080000
    465    466     1   0.10969 276646.080000
    465    467     1   0.10969 276646.080000
    468    469     1   0.10969 276646.080000
    468    470     1   0.10969 276646.080000
    471    472     1   0.10969 276646.080000
    471    473     1   0.10969 276646.080000
    474    475     1   0.10969 276646.080000
    474    476     1   0.10969 276646.080000
    477    478     1   0.10969 276646.080000
    477    479     1   0.10969 276646.080000
    480    481     1   0.10969 276646.080000
    480    482     1   0.10969 276646.080000
    483    484     1   0.10969 276646.080000
    483    485     1   0.10969 276646.080000
    486    487     1   0.10969 276646.080000
    486    488     1   0.10969 276646.080000
    489    490     1   0.10969 276646.080000
    489    491     1   0.10969 276646.080000
    494    495     1   0.10969 276646.080000
    494    496     1   0.10969 276646.080000
    497    498     1   0.10969 276646.080000
    497    499     1   0.10969 276646.080000
    500    501     1   0.10969 276646.080000
    500    502     1   0.10969 276646.080000
    503    504     1   0.10969 276646.080000
    503    505     1   0.10969 276646.080000
    506    507     1   0.10969 276646.080000
    506    508     1   0.10969 276646.080000
    509    510     1   0.10969 276646.080000
    509    511     1   0.10969 276646.080000
    512    513     1   0.10969 276646.080000
    512    514     1   0.10969 276646.080000
    515    516     1   0.10969 276646.080000
    515    517     1   0.10969 276646.080000
    518    519     1   0.10969 276646.080000
    518    520     1   0.10969 276646.080000
    523    524     1   0.10969 276646.080000
    523    525     1   0.10969 276646.080000
    526    527     1   0.10969 276646.080000
    526    528     1   0.10969 276646.080000
    529    530     1   0.10969 276646.080000
    529    531     1   0.10969 276646.080000
    532    533     1   0.10969 276646.080000
    532    534     1   0.10969 276646.080000
    535    536     1   0.10969 276646.080000
    535    537     1   0.10969 276646.080000
    538    539     1   0.10969 276646.080000
    538    540     1   0.10969 276646.080000
    541    542     1   0.10969 276646.080000
    541    543     1   0.10969 276646.080000
    544    545     1   0.10969 276646.080000
    544    546     1   0.10969 276646.080000
    547    548     1   0.10969 276646.080000
    547    549     1   0.10969 276646.080000
    552    553     1   0.10969 276646.080000
    552    554     1   0.10969 276646.080000
    555    556     1   0.10969 276646.080000
    555    557     1   0.10969 276646.080000
    558    559     1   0.10969 276646.080000
    558    560     1   0.10969 276646.080000
    561    562     1   0.10969 276646.080000
    561    563     1   0.10969 276646.080000
    564    565     1   0.10969 276646.080000
    564    566     1   0.10969 276646.080000
    567    568     1   0.10969 276646.080000
    567    569     1   0.10969 276646.080000
    570    571     1   0.10969 276646.080000
    570    572     1   0.10969 276646.080000
    573    574     1   0.10969 276646.080000
    573    575     1   0.10969 276646.080000
    576    577     1   0.10969 276646.080000
    576    578     1   0.10969 276646.080000
    581    582     1   0.10969 276646.080000
    581    583     1   0.10969 276646.080000
    584    585     1   0.10969 276646.080000
    584    586     1   0.10969 276646.080000
    587    588     1   0.10969 276646.080000
    587    589     1   0.10969 276646.080000
    590    591     1   0.10969 276646.080000
    590    592     1   0.10969 276646.080000
    593    594     1   0.10969 276646.080000
    593    595     1   0.10969 276646.080000
    596    597     1   0.10969 276646.080000
    596    598     1   0.10969 276646.080000
    599    600     1   0.10969 276646.080000
    599    601     1   0.10969 276646.080000
    602    603     1   0.10969 276646.080000
    602    604     1   0.10969 276646.080000
    605    606     1   0.10969 276646.080000
    605    607     1   0.10969 276646.080000
    610    611     1   0.10969 276646.080000
    610    612     1   0.10969 276646.080000
    613    614     1   0.10969 276646.080000
    613    615     1   0.10969 276646.080000
    616    617     1   0.10969 276646.080000
    616    618     1   0.10969 276646.080000
    619    620     1   0.10969 276646.080000
    619    621     1   0.10969 276646.080000
    622    623     1   0.10969 276646.080000
    622    624     1   0.10969 276646.080000
    625    626     1   0.10969 276646.080000
    625    627     1   0.10969 276646.080000
    628    629     1   0.10969 276646.080000
    628    630     1   0.10969 276646.080000
    631    632     1   0.10969 276646.080000
    631    633     1   0.10969 276646.080000
    634    635     1   0.10969 276646.080000
    634    636     1   0.10969 276646.080000
    639    640     1   0.10969 276646.080000
    639    641     1   0.10969 276646.080000
    642    643     1   0.10969 276646.080000
    642    644     1   0.10969 276646.080000
    645    646     1   0.10969 276646.080000
    645    647     1   0.10969 276646.080000
    648    649     1   0.10969 276646.080000
    648    650     1   0.10969 276646.080000
    651    652     1   0.10969 276646.080000
    651    653     1   0.10969 276646.080000
    654    655     1   0.10969 276646.080000
    654    656     1   0.10969 276646.080000
    657    658     1   0.10969 276646.080000
    657    659     1   0.10969 276646.080000
    660    661     1   0.10969 276646.080000
    660    662     1   0.10969 276646.080000
    663    664     1   0.10969 276646.080000
    663    665     1   0.10969 276646.080000
    668    669     1   0.10969 276646.080000
    668    670     1   0.10969 276646.080000
    671    672     1   0.10969 276646.080000
    671    673     1   0.10969 276646.080000
    674    675     1   0.10969 276646.080000
    674    676     1   0.10969 276646.080000
    677    678     1   0.10969 276646.080000
    677    679     1   0.10969 276646.080000
    680    681     1   0.10969 276646.080000
    680    682     1   0.10969 276646.080000
    683    684     1   0.10969 276646.080000
    683    685     1   0.10969 276646.080000
    686    687     1   0.10969 276646.080000
    686    688     1   0.10969 276646.080000
    689    690     1   0.10969 276646.080000
    689    691     1   0.10969 276646.080000
    692    693     1   0.10969 276646.080000
    692    694     1   0.10969 276646.080000
    697    698     1   0.10969 276646.080000
    697    699     1   0.10969 276646.080000
    700    701     1   0.10969 276646.080000
    700    702     1   0.10969 276646.080000
    703    704     1   0.10969 276646.080000
    703    705     1   0.10969 276646.080000
    706    707     1   0.10969 276646.080000
    706    708     1   0.10969 276646.080000
    709    710     1   0.10969 276646.080000
    709    711     1   0.10969 276646.080000
    712    713     1   0.10969 276646.080000
    712    714     1   0.10969 276646.080000
    715    716     1   0.10969 276646.080000
    715    717     1   0.10969 276646.080000
    718    719     1   0.10969 276646.080000
    718    720     1   0.10969 276646.080000
    721    722     1   0.10969 276646.080000
    721    723     1   0.10969 276646.080000
    726    727     1   0.10969 276646.080000
    726    728     1   0.10969 276646.080000
    729    730     1   0.10969 276646.080000
    729    731     1   0.10969 276646.080000
    732    733     1   0.10969 276646.080000
    732    734     1   0.10969 276646.080000
    735    736     1   0.10969 276646.080000
    735    737     1   0.10969 276646.080000
    738    739     1   0.10969 276646.080000
    738    740     1   0.10969 276646.080000
    741    742     1   0.10969 276646.080000
    741    743     1   0.10969 276646.080000
    744    745     1   0.10969 276646.080000
    744    746     1   0.10969 276646.080000
    747    748     1   0.10969 276646.080000
    747    749     1   0.10969 276646.080000
    750    751     1   0.10969 276646.080000
    750    752     1   0.10969 276646.080000
    755    756     1   0.10969 276646.080000
    755    757     1   0.10969 276646.080000
    758    759     1   0.10969 276646.080000
    758    760     1   0.10969 276646.080000
    761    762     1   0.10969 276646.080000
    761    763     1   0.10969 276646.080000
    764    765     1   0.10969 276646.080000
    764    766     1   0.10969 276646.080000
    767    768     1   0.10969 276646.080000
    767    769     1   0.10969 276646.080000
    770    771     1   0.10969 276646.080000
    770    772     1   0.10969 276646.080000
    773    774     1   0.10969 276646.080000
    773    775     1   0.10969 276646.080000
    776    777     1   0.10969 276646.080000
    776    778     1   0.10969 276646.080000
    779    780     1   0.10969 276646.080000
    779    781     1   0.10969 276646.080000
    784    785     1   0.10969 276646.080000
    784    786     1   0.10969 276646.080000
    787    788     1   0.10969 276646.080000
    787    789     1   0.10969 276646.080000
    790    791     1   0.10969 276646.080000
    790    792     1   0.10969 276646.080000
    793    794     1   0.10969 276646.080000
    793    795     1   0.10969 276646.080000
    796    797     1   0.10969 276646.080000
    796    798     1   0.10969 276646.080000
    799    800     1   0.10969 276646.080000
    799    801     1   0.10969 276646.080000
    802    803     1   0.10969 276646.080000
    802    804     1   0.10969 276646.080000
    805    806     1   0.10969 276646.080000
    805    807     1   0.10969 276646.080000
    808    809     1   0.10969 276646.080000
    808    810     1   0.10969 276646.080000
    813    814     1   0.10969 276646.080000
    813    815     1   0.10969 276646.080000
    816    817     1   0.10969 276646.080000
    816    818     1   0.10969 276646.080000
    819    820     1   0.10969 276646.080000
    819    821     1   0.10969 276646.080000
    822    823     1   0.10969 276646.080000
    822    824     1   0.10969 276646.080000
    825    826     1   0.10969 276646.080000
    825    827     1   0.10969 276646.080000
    828    829     1   0.10969 276646.080000
    828    830     1   0.10969 276646.080000
    831    832     1   0.10969 276646.080000
    831    833     1   0.10969 276646.080000
    834    835     1   0.10969 276646.080000
    834    836     1   0.10969 276646.080000
    837    838     1   0.10969 276646.080000
    837    839     1   0.10969 276646.080000
    842    843     1   0.10969 276646.080000
    842    844     1   0.10969 276646.080000
    845    846     1   0.10969 276646.080000
    845    847     1   0.10969 276646.080000
    848    849     1   0.10969 276646.080000
    848    850     1   0.10969 276646.080000
    851    852     1   0.10969 276646.080000
    851    853     1   0.10969 276646.080000
    854    855     1   0.10969 276646.080000
    854    856     1   0.10969 276646.080000
    857    858     1   0.10969 276646.080000
    857    859     1   0.10969 276646.080000
    860    861     1   0.10969 276646.080000
    860    862     1   0.10969 276646.080000
    863    864     1   0.10969 276646.080000
    863    865     1   0.10969 276646.080000
    866    867     1   0.10969 276646.080000
    866    868     1   0.10969 276646.080000
    871    872     1   0.10969 276646.080000
    871    873     1   0.10969 276646.080000
    874    875     1   0.10969 276646.080000
    874    876     1   0.10969 276646.080000
    877    878     1   0.10969 276646.080000
    877    879     1   0.10969 276646.080000
    880    881     1   0.10969 276646.080000
    880    882     1   0.10969 276646.080000
    883    884     1   0.10969 276646.080000
    883    885     1   0.10969 276646.080000
    886    887     1   0.10969 276646.080000
    886    888     1   0.10969 276646.080000
    889    890     1   0.10969 276646.080000
    889    891     1   0.10969 276646.080000
    892    893     1   0.10969 276646.080000
    892    894     1   0.10969 276646.080000
    895    896     1   0.10969 276646.080000
    895    897     1   0.10969 276646.080000
    900    901     1   0.10969 276646.080000
    900    902     1   0.10969 276646.080000
    903    904     1   0.10969 276646.080000
    903    905     1   0.10969 276646.080000
    906    907     1   0.10969 276646.080000
    906    908     1   0.10969 276646.080000
    909    910     1   0.10969 276646.080000
    909    911     1   0.10969 276646.080000
    912    913     1   0.10969 276646.080000
    912    914     1   0.10969 276646.080000
    915    916     1   0.10969 276646.080000
    915    917     1   0.10969 276646.080000
    918    919     1   0.10969 276646.080000
    918    920     1   0.10969 276646.080000
    921    922     1   0.10969 276646.080000
    921    923     1   0.10969 276646.080000
    924    925     1   0.10969 276646.080000
    924    926     1   0.10969 276646.080000
    929    930     1   0.10969 276646.080000
    929    931     1   0.10969 276646.080000
    932    933     1   0.10969 276646.080000
    932    934     1   0.10969 276646.080000
    935    936     1   0.10969 276646.080000
    935    937     1   0.10969 276646.080000
    938    939     1   0.10969 276646.080000
    938    940     1   0.10969 276646.080000
    941    942     1   0.10969 276646.080000
    941    943     1   0.10969 276646.080000
    944    945     1   0.10969 276646.080000
    944    946     1   0.10969 276646.080000
    947    948     1   0.10969 276646.080000
    947    949     1   0.10969 276646.080000
    950    951     1   0.10969 276646.080000
    950    952     1   0.10969 276646.080000
    953    954     1   0.10969 276646.080000
    953    955     1   0.10969 276646.080000
    958    959     1   0.10969 276646.080000
    958    960     1   0.10969 276646.080000
    961    962     1   0.10969 276646.080000
    961    963     1   0.10969 276646.080000
    964    965     1   0.10969 276646.080000
    964    966     1   0.10969 276646.080000
    967    968     1   0.10969 276646.080000
    967    969     1   0.10969 276646.080000
    970    971     1   0.10969 276646.080000
    970    972     1   0.10969 276646.080000
    973    974     1   0.10969 276646.080000
    973    975     1   0.10969 276646.080000
    976    977     1   0.10969 276646.080000
    976    978     1   0.10969 276646.080000
    979    980     1   0.10969 276646.080000
    979    981     1   0.10969 276646.080000
    982    983     1   0.10969 276646.080000
    982    984     1   0.10969 276646.080000
    987    988     1   0.10969 276646.080000
    987    989     1   0.10969 276646.080000
    990    991     1   0.10969 276646.080000
    990    992     1   0.10969 276646.080000
    993    994     1   0.10969 276646.080000
    993    995     1   0.10969 276646.080000
    996    997     1   0.10969 276646.080000
    996    998     1   0.10969 276646.080000
    999   1000     1   0.10969 276646.080000
    999   1001     1   0.10969 276646.080000
   1002   1003     1   0.10969 276646.080000
   1002   1004     1   0.10969 276646.080000
   1005   1006     1   0.10969 276646.080000
   1005   1007     1   0.10969 276646.080000
   1008   1009     1   0.10969 276646.080000
   1008   1010     1   0.10969 276646.080000
   1011   1012     1   0.10969 276646.080000
   1011   1013     1   0.10969 276646.080000
   1016   1017     1   0.10969 276646.080000
   1016   1018     1   0.10969 276646.080000
   1019   1020     1   0.10969 276646.080000
   1019   1021     1   0.10969 276646.080000
   1022   1023     1   0.10969 276646.080000
   1022   1024     1   0.10969 276646.080000
   1025   1026     1   0.10969 276646.080000
   1025   1027     1   0.10969 276646.080000
   1028   1029     1   0.10969 276646.080000
   1028   1030     1   0.10969 276646.080000
   1031   1032     1   0.10969 276646.080000
   1031   1033     1   0.10969 276646.080000
   1034   1035     1   0.10969 276646.080000
   1034   1036     1   0.10969 276646.080000
   1037   1038     1   0.10969 276646.080000
   1037   1039     1   0.10969 276646.080000
   1040   1041     1   0.10969 276646.080000
   1040   1042     1   0.10969 276646.080000
   1045   1046     1   0.10969 276646.080000
   1045   1047     1   0.10969 276646.080000
   1048   1049     1   0.10969 276646.080000
   1048   1050     1   0.10969 276646.080000
   1051   1052     1   0.10969 276646.080000
   1051   1053     1   0.10969 276646.080000
   1054   1055     1   0.10969 276646.080000
   1054   1056     1   0.10969 276646.080000
   1057   1058     1   0.10969 276646.080000
   1057   1059     1   0.10969 276646.080000
   1060   1061     1   0.10969 276646.080000
   1060   1062     1   0.10969 276646.080000
   1063   1064     1   0.10969 276646.080000
   1063   1065     1   0.10969 276646.080000
   1066   1067     1   0.10969 276646.080000
   1066   1068     1   0.10969 276646.080000
   1069   1070     1   0.10969 276646.080000
   1069   1071     1   0.10969 276646.080000
   1074   1075     1   0.10969 276646.080000
   1074   1076     1   0.10969 276646.080000
   1077   1078     1   0.10969 276646.080000
   1077   1079     1   0.10969 276646.080000
   1080   1081     1   0.10969 276646.080000
   1080   1082     1   0.10969 276646.080000
   1083   1084     1   0.10969 276646.080000
   1083   1085     1   0.10969 276646.080000
   1086   1087     1   0.10969 276646.080000
   1086   1088     1   0.10969 276646.080000
   1089   1090     1   0.10969 276646.080000
   1089   1091     1   0.10969 276646.080000
   1092   1093     1   0.10969 276646.080000
   1092   1094     1   0.10969 276646.080000
   1095   1096     1   0.10969 276646.080000
   1095   1097     1   0.10969 276646.080000
   1098   1099     1   0.10969 276646.080000
   1098   1100     1   0.10969 276646.080000
   1103   1104     1   0.10969 276646.080000
   1103   1105     1   0.10969 276646.080000
   1106   1107     1   0.10969 276646.080000
   1106   1108     1   0.10969 276646.080000
   1109   1110     1   0.10969 276646.080000
   1109   1111     1   0.10969 276646.080000
   1112   1113     1   0.10969 276646.080000
   1112   1114     1   0.10969 276646.080000
   1115   1116     1   0.10969 276646.080000
   1115   1117     1   0.10969 276646.080000
   1118   1119     1   0.10969 276646.080000
   1118   1120     1   0.10969 276646.080000
   1121   1122     1   0.10969 276646.080000
   1121   1123     1   0.10969 276646.080000
   1124   1125     1   0.10969 276646.080000
   1124   1126     1   0.10969 276646.080000
   1127   1128     1   0.10969 276646.080000
   1127   1129     1   0.10969 276646.080000
   1132   1133     1   0.10969 276646.080000
   1132   1134     1   0.10969 276646.080000
   1135   1136     1   0.10969 276646.080000
   1135   1137     1   0.10969 276646.080000
   1138   1139     1   0.10969 276646.080000
   1138   1140     1   0.10969 276646.080000
   1141   1142     1   0.10969 276646.080000
   1141   1143     1   0.10969 276646.080000
   1144   1145     1   0.10969 276646.080000
   1144   1146     1   0.10969 276646.080000
   1147   1148     1   0.10969 276646.080000
   1147   1149     1   0.10969 276646.080000
   1150   1151     1   0.10969 276646.080000
   1150   1152     1   0.10969 276646.080000
   1153   1154     1   0.10969 276646.080000
   1153   1155     1   0.10969 276646.080000
   1156   1157     1   0.10969 276646.080000
   1156   1158     1   0.10969 276646.080000
   1161   1162     1   0.10969 276646.080000
   1161   1163     1   0.10969 276646.080000
   1164   1165     1   0.10969 276646.080000
   1164   1166     1   0.10969 276646.080000
   1167   1168     1   0.10969 276646.080000
   1167   1169     1   0.10969 276646.080000
   1170   1171     1   0.10969 276646.080000
   1170   1172     1   0.10969 276646.080000
   1173   1174     1   0.10969 276646.080000
   1173   1175     1   0.10969 276646.080000
   1176   1177     1   0.10969 276646.080000
   1176   1178     1   0.10969 276646.080000
   1179   1180     1   0.10969 276646.080000
   1179   1181     1   0.10969 276646.080000
   1182   1183     1   0.10969 276646.080000
   1182   1184     1   0.10969 276646.080000
   1185   1186     1   0.10969 276646.080000
   1185   1187     1   0.10969 276646.080000
   1190   1191     1   0.10969 276646.080000
   1190   1192     1   0.10969 276646.080000
   1193   1194     1   0.10969 276646.080000
   1193   1195     1   0.10969 276646.080000
   1196   1197     1   0.10969 276646.080000
   1196   1198     1   0.10969 276646.080000
   1199   1200     1   0.10969 276646.080000
   1199   1201     1   0.10969 276646.080000
   1202   1203     1   0.10969 276646.080000
   1202   1204     1   0.10969 276646.080000
   1205   1206     1   0.10969 276646.080000
   1205   1207     1   0.10969 276646.080000
   1208   1209     1   0.10969 276646.080000
   1208   1210     1   0.10969 276646.080000
   1211   1212     1   0.10969 276646.080000
   1211   1213     1   0.10969 276646.080000
   1214   1215     1   0.10969 276646.080000
   1214   1216     1   0.10969 276646.080000
   1219   1220     1   0.10969 276646.080000
   1219   1221     1   0.10969 276646.080000
   1222   1223     1   0.10969 276646.080000
   1222   1224     1   0.10969 276646.080000
   1225   1226     1   0.10969 276646.080000
   1225   1227     1   0.10969 276646.080000
   1228   1229     1   0.10969 276646.080000
   1228   1230     1   0.10969 276646.080000
   1231   1232     1   0.10969 276646.080000
   1231   1233     1   0.10969 276646.080000
   1234   1235     1   0.10969 276646.080000
   1234   1236     1   0.10969 276646.080000
   1237   1238     1   0.10969 276646.080000
   1237   1239     1   0.10969 276646.080000
   1240   1241     1   0.10969 276646.080000
   1240   1242     1   0.10969 276646.080000
   1243   1244     1   0.10969 276646.080000
   1243   1245     1   0.10969 276646.080000
   1248   1249     1   0.10969 276646.080000
   1248   1250     1   0.10969 276646.080000
   1251   1252     1   0.10969 276646.080000
   1251   1253     1   0.10969 276646.080000
   1254   1255     1   0.10969 276646.080000
   1254   1256     1   0.10969 276646.080000
   1257   1258     1   0.10969 276646.080000
   1257   1259     1   0.10969 276646.080000
   1260   1261     1   0.10969 276646.080000
   1260   1262     1   0.10969 276646.080000
   1263   1264     1   0.10969 276646.080000
   1263   1265     1   0.10969 276646.080000
   1266   1267     1   0.10969 276646.080000
   1266   1268     1   0.10969 276646.080000
   1269   1270     1   0.10969 276646.080000
   1269   1271     1   0.10969 276646.080000
   1272   1273     1   0.10969 276646.080000
   1272   1274     1   0.10969 276646.080000
   1277   1278     1   0.10969 276646.080000
   1277   1279     1   0.10969 276646.080000
   1280   1281     1   0.10969 276646.080000
   1280   1282     1   0.10969 276646.080000
   1283   1284     1   0.10969 276646.080000
   1283   1285     1   0.10969 276646.080000
   1286   1287     1   0.10969 276646.080000
   1286   1288     1   0.10969 276646.080000
   1289   1290     1   0.10969 276646.080000
   1289   1291     1   0.10969 276646.080000
   1292   1293     1   0.10969 276646.080000
   1292   1294     1   0.10969 276646.080000
   1295   1296     1   0.10969 276646.080000
   1295   1297     1   0.10969 276646.080000
   1298   1299     1   0.10969 276646.080000
   1298   1300     1   0.10969 276646.080000
   1301   1302     1   0.10969 276646.080000
   1301   1303     1   0.10969 276646.080000
   1306   1307     1   0.10969 276646.080000
   1306   1308     1   0.10969 276646.080000
   1309   1310     1   0.10969 276646.080000
   1309   1311     1   0.10969 276646.080000
   1312   1313     1   0.10969 276646.080000
   1312   1314     1   0.10969 276646.080000
   1315   1316     1   0.10969 276646.080000
   1315   1317     1   0.10969 276646.080000
   1318   1319     1   0.10969 276646.080000
   1318   1320     1   0.10969 276646.080000
   1321   1322     1   0.10969 276646.080000
   1321   1323     1   0.10969 276646.080000
   1324   1325     1   0.10969 276646.080000
   1324   1326     1   0.10969 276646.080000
   1327   1328     1   0.10969 276646.080000
   1327   1329     1   0.10969 276646.080000
   1330   1331     1   0.10969 276646.080000
   1330   1332     1   0.10969 276646.080000
   1335   1336     1   0.10969 276646.080000
   1335   1337     1   0.10969 276646.080000
   1338   1339     1   0.10969 276646.080000
   1338   1340     1   0.10969 276646.080000
   1341   1342     1   0.10969 276646.080000
   1341   1343     1   0.10969 276646.080000
   1344   1345     1   0.10969 276646.080000
   1344   1346     1   0.10969 276646.080000
   1347   1348     1   0.10969 276646.080000
   1347   1349     1   0.10969 276646.080000
   1350   1351     1   0.10969 276646.080000
   1350   1352     1   0.10969 276646.080000
   1353   1354     1   0.10969 276646.080000
   1353   1355     1   0.10969 276646.080000
   1356   1357     1   0.10969 276646.080000
   1356   1358     1   0.10969 276646.080000
   1359   1360     1   0.10969 276646.080000
   1359   1361     1   0.10969 276646.080000
   1364   1365     1   0.10969 276646.080000
   1364   1366     1   0.10969 276646.080000
   1367   1368     1   0.10969 276646.080000
   1367   1369     1   0.10969 276646.080000
   1370   1371     1   0.10969 276646.080000
   1370   1372     1   0.10969 276646.080000
   1373   1374     1   0.10969 276646.080000
   1373   1375     1   0.10969 276646.080000
   1376   1377     1   0.10969 276646.080000
   1376   1378     1   0.10969 276646.080000
   1379   1380     1   0.10969 276646.080000
   1379   1381     1   0.10969 276646.080000
   1382   1383     1   0.10969 276646.080000
   1382   1384     1   0.10969 276646.080000
   1385   1386     1   0.10969 276646.080000
   1385   1387     1   0.10969 276646.080000
   1388   1389     1   0.10969 276646.080000
   1388   1390     1   0.10969 276646.080000
   1393   1394     1   0.10969 276646.080000
   1393   1395     1   0.10969 276646.080000
   1396   1397     1   0.10969 276646.080000
   1396   1398     1   0.10969 276646.080000
   1399   1400     1   0.10969 276646.080000
   1399   1401     1   0.10969 276646.080000
   1402   1403     1   0.10969 276646.080000
   1402   1404     1   0.10969 276646.080000
   1405   1406     1   0.10969 276646.080000
   1405   1407     1   0.10969 276646.080000
   1408   1409     1   0.10969 276646.080000
   1408   1410     1   0.10969 276646.080000
   1411   1412     1   0.10969 276646.080000
   1411   1413     1   0.10969 276646.080000
   1414   1415     1   0.10969 276646.080000
   1414   1416     1   0.10969 276646.080000
   1417   1418     1   0.10969 276646.080000
   1417   1419     1   0.10969 276646.080000
   1422   1423     1   0.10969 276646.080000
   1422   1424     1   0.10969 276646.080000
   1425   1426     1   0.10969 276646.080000
   1425   1427     1   0.10969 276646.080000
   1428   1429     1   0.10969 276646.080000
   1428   1430     1   0.10969 276646.080000
   1431   1432     1   0.10969 276646.080000
   1431   1433     1   0.10969 276646.080000
   1434   1435     1   0.10969 276646.080000
   1434   1436     1   0.10969 276646.080000
   1437   1438     1   0.10969 276646.080000
   1437   1439     1   0.10969 276646.080000
   1440   1441     1   0.10969 276646.080000
   1440   1442     1   0.10969 276646.080000
   1443   1444     1   0.10969 276646.080000
   1443   1445     1   0.10969 276646.080000
   1446   1447     1   0.10969 276646.080000
   1446   1448     1   0.10969 276646.080000
   1451   1452     1   0.10969 276646.080000
   1451   1453     1   0.10969 276646.080000
   1454   1455     1   0.10969 276646.080000
   1454   1456     1   0.10969 276646.080000
   1457   1458     1   0.10969 276646.080000
   1457   1459     1   0.10969 276646.080000
   1460   1461     1   0.10969 276646.080000
   1460   1462     1   0.10969 276646.080000
   1463   1464     1   0.10969 276646.080000
   1463   1465     1   0.10969 276646.080000
   1466   1467     1   0.10969 276646.080000
   1466   1468     1   0.10969 276646.080000
   1469   1470     1   0.10969 276646.080000
   1469   1471     1   0.10969 276646.080000
   1472   1473     1   0.10969 276646.080000
   1472   1474     1   0.10969 276646.080000
   1475   1476     1   0.10969 276646.080000
   1475   1477     1   0.10969 276646.080000
   1480   1481     1   0.10969 276646.080000
   1480   1482     1   0.10969 276646.080000
   1483   1484     1   0.10969 276646.080000
   1483   1485     1   0.10969 276646.080000
   1486   1487     1   0.10969 276646.080000
   1486   1488     1   0.10969 276646.080000
   1489   1490     1   0.10969 276646.080000
   1489   1491     1   0.10969 276646.080000
   1492   1493     1   0.10969 276646.080000
   1492   1494     1   0.10969 276646.080000
   1495   1496     1   0.10969 276646.080000
   1495   1497     1   0.10969 276646.080000
   1498   1499     1   0.10969 276646.080000
   1498   1500     1   0.10969 276646.080000
   1501   1502     1   0.10969 276646.080000
   1501   1503     1   0.10969 276646.080000
   1504   1505     1   0.10969 276646.080000
   1504   1506     1   0.10969 276646.080000
   1509   1510     1   0.10969 276646.080000
   1509   1511     1   0.10969 276646.080000
   1512   1513     1   0.10969 276646.080000
   1512   1514     1   0.10969 276646.080000
   1515   1516     1   0.10969 276646.080000
   1515   1517     1   0.10969 276646.080000
   1518   1519     1   0.10969 276646.080000
   1518   1520     1   0.10969 276646.080000
   1521   1522     1   0.10969 276646.080000
   1521   1523     1   0.10969 276646.080000
   1524   1525     1   0.10969 276646.080000
   1524   1526     1   0.10969 276646.080000
   1527   1528     1   0.10969 276646.080000
   1527   1529     1   0.10969 276646.080000
   1530   1531     1   0.10969 276646.080000
   1530   1532     1   0.10969 276646.080000
   1533   1534     1   0.10969 276646.080000
   1533   1535     1   0.10969 276646.080000
   1538   1539     1   0.10969 276646.080000
   1538   1540     1   0.10969 276646.080000
   1541   1542     1   0.10969 276646.080000
   1541   1543     1   0.10969 276646.080000
   1544   1545     1   0.10969 276646.080000
   1544   1546     1   0.10969 276646.080000
   1547   1548     1   0.10969 276646.080000
   1547   1549     1   0.10969 276646.080000
   1550   1551     1   0.10969 276646.080000
   1550   1552     1   0.10969 276646.080000
   1553   1554     1   0.10969 276646.080000
   1553   1555     1   0.10969 276646.080000
   1556   1557     1   0.10969 276646.080000
   1556   1558     1   0.10969 276646.080000
   1559   1560     1   0.10969 276646.080000
   1559   1561     1   0.10969 276646.080000
   1562   1563     1   0.10969 276646.080000
   1562   1564     1   0.10969 276646.080000
   1567   1568     1   0.10969 276646.080000
   1567   1569     1   0.10969 276646.080000
   1570   1571     1   0.10969 276646.080000
   1570   1572     1   0.10969 276646.080000
   1573   1574     1   0.10969 276646.080000
   1573   1575     1   0.10969 276646.080000
   1576   1577     1   0.10969 276646.080000
   1576   1578     1   0.10969 276646.080000
   1579   1580     1   0.10969 276646.080000
   1579   1581     1   0.10969 276646.080000
   1582   1583     1   0.10969 276646.080000
   1582   1584     1   0.10969 276646.080000
   1585   1586     1   0.10969 276646.080000
   1585   1587     1   0.10969 276646.080000
   1588   1589     1   0.10969 276646.080000
   1588   1590     1   0.10969 276646.080000
   1591   1592     1   0.10969 276646.080000
   1591   1593     1   0.10969 276646.080000
   1596   1597     1   0.10969 276646.080000
   1596   1598     1   0.10969 276646.080000
   1599   1600     1   0.10969 276646.080000
   1599   1601     1   0.10969 276646.080000
   1602   1603     1   0.10969 276646.080000
   1602   1604     1   0.10969 276646.080000
   1605   1606     1   0.10969 276646.080000
   1605   1607     1   0.10969 276646.080000
   1608   1609     1   0.10969 276646.080000
   1608   1610     1   0.10969 276646.080000
   1611   1612     1   0.10969 276646.080000
   1611   1613     1   0.10969 276646.080000
   1614   1615     1   0.10969 276646.080000
   1614   1616     1   0.10969 276646.080000
   1617   1618     1   0.10969 276646.080000
   1617   1619     1   0.10969 276646.080000
   1620   1621     1   0.10969 276646.080000
   1620   1622     1   0.10969 276646.080000
   1625   1626     1   0.10969 276646.080000
   1625   1627     1   0.10969 276646.080000
   1628   1629     1   0.10969 276646.080000
   1628   1630     1   0.10969 276646.080000
   1631   1632     1   0.10969 276646.080000
   1631   1633     1   0.10969 276646.080000
   1634   1635     1   0.10969 276646.080000
   1634   1636     1   0.10969 276646.080000
   1637   1638     1   0.10969 276646.080000
   1637   1639     1   0.10969 276646.080000
   1640   1641     1   0.10969 276646.080000
   1640   1642     1   0.10969 276646.080000
   1643   1644     1   0.10969 276646.080000
   1643   1645     1   0.10969 276646.080000
   1646   1647     1   0.10969 276646.080000
   1646   1648     1   0.10969 276646.080000
   1649   1650     1   0.10969 276646.080000
   1649   1651     1   0.10969 276646.080000
   1654   1655     1   0.10969 276646.080000
   1654   1656     1   0.10969 276646.080000
   1657   1658     1   0.10969 276646.080000
   1657   1659     1   0.10969 276646.080000
   1660   1661     1   0.10969 276646.080000
   1660   1662     1   0.10969 276646.080000
   1663   1664     1   0.10969 276646.080000
   1663   1665     1   0.10969 276646.080000
   1666   1667     1   0.10969 276646.080000
   1666   1668     1   0.10969 276646.080000
   1669   1670     1   0.10969 276646.080000
   1669   1671     1   0.10969 276646.080000
   1672   1673     1   0.10969 276646.080000
   1672   1674     1   0.10969 276646.080000
   1675   1676     1   0.10969 276646.080000
   1675   1677     1   0.10969 276646.080000
   1678   1679     1   0.10969 276646.080000
   1678   1680     1   0.10969 276646.080000
   1683   1684     1   0.10969 276646.080000
   1683   1685     1   0.10969 276646.080000
   1686   1687     1   0.10969 276646.080000
   1686   1688     1   0.10969 276646.080000
   1689   1690     1   0.10969 276646.080000
   1689   1691     1   0.10969 276646.080000
   1692   1693     1   0.10969 276646.080000
   1692   1694     1   0.10969 276646.080000
   1695   1696     1   0.10969 276646.080000
   1695   1697     1   0.10969 276646.080000
   1698   1699     1   0.10969 276646.080000
   1698   1700     1   0.10969 276646.080000
   1701   1702     1   0.10969 276646.080000
   1701   1703     1   0.10969 276646.080000
   1704   1705     1   0.10969 276646.080000
   1704   1706     1   0.10969 276646.080000
   1707   1708     1   0.10969 276646.080000
   1707   1709     1   0.10969 276646.080000
   1712   1713     1   0.10969 276646.080000
   1712   1714     1   0.10969 276646.080000
   1715   1716     1   0.10969 276646.080000
   1715   1717     1   0.10969 276646.080000
   1718   1719     1   0.10969 276646.080000
   1718   1720     1   0.10969 276646.080000
   1721   1722     1   0.10969 276646.080000
   1721   1723     1   0.10969 276646.080000
   1724   1725     1   0.10969 276646.080000
   1724   1726     1   0.10969 276646.080000
   1727   1728     1   0.10969 276646.080000
   1727   1729     1   0.10969 276646.080000
   1730   1731     1   0.10969 276646.080000
   1730   1732     1   0.10969 276646.080000
   1733   1734     1   0.10969 276646.080000
   1733   1735     1   0.10969 276646.080000
   1736   1737     1   0.10969 276646.080000
   1736   1738     1   0.10969 276646.080000
   1741   1742     1   0.10969 276646.080000
   1741   1743     1   0.10969 276646.080000
   1744   1745     1   0.10969 276646.080000
   1744   1746     1   0.10969 276646.080000
   1747   1748     1   0.10969 276646.080000
   1747   1749     1   0.10969 276646.080000
   1750   1751     1   0.10969 276646.080000
   1750   1752     1   0.10969 276646.080000
   1753   1754     1   0.10969 276646.080000
   1753   1755     1   0.10969 276646.080000
   1756   1757     1   0.10969 276646.080000
   1756   1758     1   0.10969 276646.080000
   1759   1760     1   0.10969 276646.080000
   1759   1761     1   0.10969 276646.080000
   1762   1763     1   0.10969 276646.080000
   1762   1764     1   0.10969 276646.080000
   1765   1766     1   0.10969 276646.080000
   1765   1767     1   0.10969 276646.080000
   1770   1771     1   0.10969 276646.080000
   1770   1772     1   0.10969 276646.080000
   1773   1774     1   0.10969 276646.080000
   1773   1775     1   0.10969 276646.080000
   1776   1777     1   0.10969 276646.080000
   1776   1778     1   0.10969 276646.080000
   1779   1780     1   0.10969 276646.080000
   1779   1781     1   0.10969 276646.080000
   1782   1783     1   0.10969 276646.080000
   1782   1784     1   0.10969 276646.080000
   1785   1786     1   0.10969 276646.080000
   1785   1787     1   0.10969 276646.080000
   1788   1789     1   0.10969 276646.080000
   1788   1790     1   0.10969 276646.080000
   1791   1792     1   0.10969 276646.080000
   1791   1793     1   0.10969 276646.080000
   1794   1795     1   0.10969 276646.080000
   1794   1796     1   0.10969 276646.080000
   1799   1800     1   0.10969 276646.080000
   1799   1801     1   0.10969 276646.080000
   1802   1803     1   0.10969 276646.080000
   1802   1804     1   0.10969 276646.080000
   1805   1806     1   0.10969 276646.080000
   1805   1807     1   0.10969 276646.080000
   1808   1809     1   0.10969 276646.080000
   1808   1810     1   0.10969 276646.080000
   1811   1812     1   0.10969 276646.080000
   1811   1813     1   0.10969 276646.080000
   1814   1815     1   0.10969 276646.080000
   1814   1816     1   0.10969 276646.080000
   1817   1818     1   0.10969 276646.080000
   1817   1819     1   0.10969 276646.080000
   1820   1821     1   0.10969 276646.080000
   1820   1822     1   0.10969 276646.080000
   1823   1824     1   0.10969 276646.080000
   1823   1825     1   0.10969 276646.080000
   1828   1829     1   0.10969 276646.080000
   1828   1830     1   0.10969 276646.080000
   1831   1832     1   0.10969 276646.080000
   1831   1833     1   0.10969 276646.080000
   1834   1835     1   0.10969 276646.080000
   1834   1836     1   0.10969 276646.080000
   1837   1838     1   0.10969 276646.080000
   1837   1839     1   0.10969 276646.080000
   1840   1841     1   0.10969 276646.080000
   1840   1842     1   0.10969 276646.080000
   1843   1844     1   0.10969 276646.080000
   1843   1845     1   0.10969 276646.080000
   1846   1847     1   0.10969 276646.080000
   1846   1848     1   0.10969 276646.080000
   1849   1850     1   0.10969 276646.080000
   1849   1851     1   0.10969 276646.080000
   1852   1853     1   0.10969 276646.080000
   1852   1854     1   0.10969 276646.080000
   1857   1858     1   0.10969 276646.080000
   1857   1859     1   0.10969 276646.080000
   1860   1861     1   0.10969 276646.080000
   1860   1862     1   0.10969 276646.080000
   1863   1864     1   0.10969 276646.080000
   1863   1865     1   0.10969 276646.080000
   1866   1867     1   0.10969 276646.080000
   1866   1868     1   0.10969 276646.080000
   1869   1870     1   0.10969 276646.080000
   1869   1871     1   0.10969 276646.080000
   1872   1873     1   0.10969 276646.080000
   1872   1874     1   0.10969 276646.080000
   1875   1876     1   0.10969 276646.080000
   1875   1877     1   0.10969 276646.080000
   1878   1879     1   0.10969 276646.080000
   1878   1880     1   0.10969 276646.080000
   1881   1882     1   0.10969 276646.080000
   1881   1883     1   0.10969 276646.080000
   1886   1887     1   0.10969 276646.080000
   1886   1888     1   0.10969 276646.080000
   1889   1890     1   0.10969 276646.080000
   1889   1891     1   0.10969 276646.080000
   1892   1893     1   0.10969 276646.080000
   1892   1894     1   0.10969 276646.080000
   1895   1896     1   0.10969 276646.080000
   1895   1897     1   0.10969 276646.080000
   1898   1899     1   0.10969 276646.080000
   1898   1900     1   0.10969 276646.080000
   1901   1902     1   0.10969 276646.080000
   1901   1903     1   0.10969 276646.080000
   1904   1905     1   0.10969 276646.080000
   1904   1906     1   0.10969 276646.080000
   1907   1908     1   0.10969 276646.080000
   1907   1909     1   0.10969 276646.080000
   1910   1911     1   0.10969 276646.080000
   1910   1912     1   0.10969 276646.080000
   1915   1916     1   0.10969 276646.080000
   1915   1917     1   0.10969 276646.080000
   1918   1919     1   0.10969 276646.080000
   1918   1920     1   0.10969 276646.080000
   1921   1922     1   0.10969 276646.080000
   1921   1923     1   0.10969 276646.080000
   1924   1925     1   0.10969 276646.080000
   1924   1926     1   0.10969 276646.080000
   1927   1928     1   0.10969 276646.080000
   1927   1929     1   0.10969 276646.080000
   1930   1931     1   0.10969 276646.080000
   1930   1932     1   0.10969 276646.080000
   1933   1934     1   0.10969 276646.080000
   1933   1935     1   0.10969 276646.080000
   1936   1937     1   0.10969 276646.080000
   1936   1938     1   0.10969 276646.080000
   1939   1940     1   0.10969 276646.080000
   1939   1941     1   0.10969 276646.080000
   1944   1945     1   0.10969 276646.080000
   1944   1946     1   0.10969 276646.080000
   1947   1948     1   0.10969 276646.080000
   1947   1949     1   0.10969 276646.080000
   1950   1951     1   0.10969 276646.080000
   1950   1952     1   0.10969 276646.080000
   1953   1954     1   0.10969 276646.080000
   1953   1955     1   0.10969 276646.080000
   1956   1957     1   0.10969 276646.080000
   1956   1958     1   0.10969 276646.080000
   1959   1960     1   0.10969 276646.080000
   1959   1961     1   0.10969 276646.080000
   1962   1963     1   0.10969 276646.080000
   1962   1964     1   0.10969 276646.080000
   1965   1966     1   0.10969 276646.080000
   1965   1967     1   0.10969 276646.080000
   1968   1969     1   0.10969 276646.080000
   1968   1970     1   0.10969 276646.080000
   1973   1974     1   0.10969 276646.080000
   1973   1975     1   0.10969 276646.080000
   1976   1977     1   0.10969 276646.080000
   1976   1978     1   0.10969 276646.080000
   1979   1980     1   0.10969 276646.080000
   1979   1981     1   0.10969 276646.080000
   1982   1983     1   0.10969 276646.080000
   1982   1984     1   0.10969 276646.080000
   1985   1986     1   0.10969 276646.080000
   1985   1987     1   0.10969 276646.080000
   1988   1989     1   0.10969 276646.080000
   1988   1990     1   0.10969 276646.080000
   1991   1992     1   0.10969 276646.080000
   1991   1993     1   0.10969 276646.080000
   1994   1995     1   0.10969 276646.080000
   1994   1996     1   0.10969 276646.080000
   1997   1998     1   0.10969 276646.080000
   1997   1999     1   0.10969 276646.080000
   2002   2003     1   0.10969 276646.080000
   2002   2004     1   0.10969 276646.080000
   2005   2006     1   0.10969 276646.080000
   2005   2007     1   0.10969 276646.080000
   2008   2009     1   0.10969 276646.080000
   2008   2010     1   0.10969 276646.080000
   2011   2012     1   0.10969 276646.080000
   2011   2013     1   0.10969 276646.080000
   2014   2015     1   0.10969 276646.080000
   2014   2016     1   0.10969 276646.080000
   2017   2018     1   0.10969 276646.080000
   2017   2019     1   0.10969 276646.080000
   2020   2021     1   0.10969 276646.080000
   2020   2022     1   0.10969 276646.080000
   2023   2024     1   0.10969 276646.080000
   2023   2025     1   0.10969 276646.080000
   2026   2027     1   0.10969 276646.080000
   2026   2028     1   0.10969 276646.080000
   2031   2032     1   0.10969 276646.080000
   2031   2033     1   0.10969 276646.080000
   2034   2035     1   0.10969 276646.080000
   2034   2036     1   0.10969 276646.080000
   2037   2038     1   0.10969 276646.080000
   2037   2039     1   0.10969 276646.080000
   2040   2041     1   0.10969 276646.080000
   2040   2042     1   0.10969 276646.080000
   2043   2044     1   0.10969 276646.080000
   2043   2045     1   0.10969 276646.080000
   2046   2047     1   0.10969 276646.080000
   2046   2048     1   0.10969 276646.080000
   2049   2050     1   0.10969 276646.080000
   2049   2051     1   0.10969 276646.080000
   2052   2053     1   0.10969 276646.080000
   2052   2054     1   0.10969 276646.080000
   2055   2056     1   0.10969 276646.080000
   2055   2057     1   0.10969 276646.080000
   2060   2061     1   0.10969 276646.080000
   2060   2062     1   0.10969 276646.080000
   2063   2064     1   0.10969 276646.080000
   2063   2065     1   0.10969 276646.080000
   2066   2067     1   0.10969 276646.080000
   2066   2068     1   0.10969 276646.080000
   2069   2070     1   0.10969 276646.080000
   2069   2071     1   0.10969 276646.080000
   2072   2073     1   0.10969 276646.080000
   2072   2074     1   0.10969 276646.080000
   2075   2076     1   0.10969 276646.080000
   2075   2077     1   0.10969 276646.080000
   2078   2079     1   0.10969 276646.080000
   2078   2080     1   0.10969 276646.080000
   2081   2082     1   0.10969 276646.080000
   2081   2083     1   0.10969 276646.080000
   2084   2085     1   0.10969 276646.080000
   2084   2086     1   0.10969 276646.080000
   2089   2090     1   0.10969 276646.080000
   2089   2091     1   0.10969 276646.080000
   2092   2093     1   0.10969 276646.080000
   2092   2094     1   0.10969 276646.080000
   2095   2096     1   0.10969 276646.080000
   2095   2097     1   0.10969 276646.080000
   2098   2099     1   0.10969 276646.080000
   2098   2100     1   0.10969 276646.080000
   2101   2102     1   0.10969 276646.080000
   2101   2103     1   0.10969 276646.080000
   2104   2105     1   0.10969 276646.080000
   2104   2106     1   0.10969 276646.080000
   2107   2108     1   0.10969 276646.080000
   2107   2109     1   0.10969 276646.080000
   2110   2111     1   0.10969 276646.080000
   2110   2112     1   0.10969 276646.080000
   2113   2114     1   0.10969 276646.080000
   2113   2115     1   0.10969 276646.080000
   2118   2119     1   0.10969 276646.080000
   2118   2120     1   0.10969 276646.080000
   2121   2122     1   0.10969 276646.080000
   2121   2123     1   0.10969 276646.080000
   2124   2125     1   0.10969 276646.080000
   2124   2126     1   0.10969 276646.080000
   2127   2128     1   0.10969 276646.080000
   2127   2129     1   0.10969 276646.080000
   2130   2131     1   0.10969 276646.080000
   2130   2132     1   0.10969 276646.080000
   2133   2134     1   0.10969 276646.080000
   2133   2135     1   0.10969 276646.080000
   2136   2137     1   0.10969 276646.080000
   2136   2138     1   0.10969 276646.080000
   2139   2140     1   0.10969 276646.080000
   2139   2141     1   0.10969 276646.080000
   2142   2143     1   0.10969 276646.080000
   2142   2144     1   0.10969 276646.080000
   2147   2148     1   0.10969 276646.080000
   2147   2149     1   0.10969 276646.080000
   2150   2151     1   0.10969 276646.080000
   2150   2152     1   0.10969 276646.080000
   2153   2154     1   0.10969 276646.080000
   2153   2155     1   0.10969 276646.080000
   2156   2157     1   0.10969 276646.080000
   2156   2158     1   0.10969 276646.080000
   2159   2160     1   0.10969 276646.080000
   2159   2161     1   0.10969 276646.080000
   2162   2163     1   0.10969 276646.080000
   2162   2164     1   0.10969 276646.080000
   2165   2166     1   0.10969 276646.080000
   2165   2167     1   0.10969 276646.080000
   2168   2169     1   0.10969 276646.080000
   2168   2170     1   0.10969 276646.080000
   2171   2172     1   0.10969 276646.080000
   2171   2173     1   0.10969 276646.080000
   2176   2177     1   0.10969 276646.080000
   2176   2178     1   0.10969 276646.080000
   2179   2180     1   0.10969 276646.080000
   2179   2181     1   0.10969 276646.080000
   2182   2183     1   0.10969 276646.080000
   2182   2184     1   0.10969 276646.080000
   2185   2186     1   0.10969 276646.080000
   2185   2187     1   0.10969 276646.080000
   2188   2189     1   0.10969 276646.080000
   2188   2190     1   0.10969 276646.080000
   2191   2192     1   0.10969 276646.080000
   2191   2193     1   0.10969 276646.080000
   2194   2195     1   0.10969 276646.080000
   2194   2196     1   0.10969 276646.080000
   2197   2198     1   0.10969 276646.080000
   2197   2199     1   0.10969 276646.080000
   2200   2201     1   0.10969 276646.080000
   2200   2202     1   0.10969 276646.080000
   2205   2206     1   0.10969 276646.080000
   2205   2207     1   0.10969 276646.080000
   2208   2209     1   0.10969 276646.080000
   2208   2210     1   0.10969 276646.080000
   2211   2212     1   0.10969 276646.080000
   2211   2213     1   0.10969 276646.080000
   2214   2215     1   0.10969 276646.080000
   2214   2216     1   0.10969 276646.080000
   2217   2218     1   0.10969 276646.080000
   2217   2219     1   0.10969 276646.080000
   2220   2221     1   0.10969 276646.080000
   2220   2222     1   0.10969 276646.080000
   2223   2224     1   0.10969 276646.080000
   2223   2225     1   0.10969 276646.080000
   2226   2227     1   0.10969 276646.080000
   2226   2228     1   0.10969 276646.080000
   2229   2230     1   0.10969 276646.080000
   2229   2231     1   0.10969 276646.080000
   2234   2235     1   0.10969 276646.080000
   2234   2236     1   0.10969 276646.080000
   2237   2238     1   0.10969 276646.080000
   2237   2239     1   0.10969 276646.080000
   2240   2241     1   0.10969 276646.080000
   2240   2242     1   0.10969 276646.080000
   2243   2244     1   0.10969 276646.080000
   2243   2245     1   0.10969 276646.080000
   2246   2247     1   0.10969 276646.080000
   2246   2248     1   0.10969 276646.080000
   2249   2250     1   0.10969 276646.080000
   2249   2251     1   0.10969 276646.080000
   2252   2253     1   0.10969 276646.080000
   2252   2254     1   0.10969 276646.080000
   2255   2256     1   0.10969 276646.080000
   2255   2257     1   0.10969 276646.080000
   2258   2259     1   0.10969 276646.080000
   2258   2260     1   0.10969 276646.080000
   2263   2264     1   0.10969 276646.080000
   2263   2265     1   0.10969 276646.080000
   2266   2267     1   0.10969 276646.080000
   2266   2268     1   0.10969 276646.080000
   2269   2270     1   0.10969 276646.080000
   2269   2271     1   0.10969 276646.080000
   2272   2273     1   0.10969 276646.080000
   2272   2274     1   0.10969 276646.080000
   2275   2276     1   0.10969 276646.080000
   2275   2277     1   0.10969 276646.080000
   2278   2279     1   0.10969 276646.080000
   2278   2280     1   0.10969 276646.080000
   2281   2282     1   0.10969 276646.080000
   2281   2283     1   0.10969 276646.080000
   2284   2285     1   0.10969 276646.080000
   2284   2286     1   0.10969 276646.080000
   2287   2288     1   0.10969 276646.080000
   2287   2289     1   0.10969 276646.080000
   2292   2293     1   0.10969 276646.080000
   2292   2294     1   0.10969 276646.080000
   2295   2296     1   0.10969 276646.080000
   2295   2297     1   0.10969 276646.080000
   2298   2299     1   0.10969 276646.080000
   2298   2300     1   0.10969 276646.080000
   2301   2302     1   0.10969 276646.080000
   2301   2303     1   0.10969 276646.080000
   2304   2305     1   0.10969 276646.080000
   2304   2306     1   0.10969 276646.080000
   2307   2308     1   0.10969 276646.080000
   2307   2309     1   0.10969 276646.080000
   2310   2311     1   0.10969 276646.080000
   2310   2312     1   0.10969 276646.080000
   2313   2314     1   0.10969 276646.080000
   2313   2315     1   0.10969 276646.080000
   2316   2317     1   0.10969 276646.080000
   2316   2318     1   0.10969 276646.080000
   2321   2322     1   0.10969 276646.080000
   2321   2323     1   0.10969 276646.080000
   2324   2325     1   0.10969 276646.080000
   2324   2326     1   0.10969 276646.080000
   2327   2328     1   0.10969 276646.080000
   2327   2329     1   0.10969 276646.080000
   2330   2331     1   0.10969 276646.080000
   2330   2332     1   0.10969 276646.080000
   2333   2334     1   0.10969 276646.080000
   2333   2335     1   0.10969 276646.080000
   2336   2337     1   0.10969 276646.080000
   2336   2338     1   0.10969 276646.080000
   2339   2340     1   0.10969 276646.080000
   2339   2341     1   0.10969 276646.080000
   2342   2343     1   0.10969 276646.080000
   2342   2344     1   0.10969 276646.080000
   2345   2346     1   0.10969 276646.080000
   2345   2347     1   0.10969 276646.080000
   2350   2351     1   0.10969 276646.080000
   2350   2352     1   0.10969 276646.080000
   2353   2354     1   0.10969 276646.080000
   2353   2355     1   0.10969 276646.080000
   2356   2357     1   0.10969 276646.080000
   2356   2358     1   0.10969 276646.080000
   2359   2360     1   0.10969 276646.080000
   2359   2361     1   0.10969 276646.080000
   2362   2363     1   0.10969 276646.080000
   2362   2364     1   0.10969 276646.080000
   2365   2366     1   0.10969 276646.080000
   2365   2367     1   0.10969 276646.080000
   2368   2369     1   0.10969 276646.080000
   2368   2370     1   0.10969 276646.080000
   2371   2372     1   0.10969 276646.080000
   2371   2373     1   0.10969 276646.080000
   2374   2375     1   0.10969 276646.080000
   2374   2376     1   0.10969 276646.080000
   2379   2380     1   0.10969 276646.080000
   2379   2381     1   0.10969 276646.080000
   2382   2383     1   0.10969 276646.080000
   2382   2384     1   0.10969 276646.080000
   2385   2386     1   0.10969 276646.080000
   2385   2387     1   0.10969 276646.080000
   2388   2389     1   0.10969 276646.080000
   2388   2390     1   0.10969 276646.080000
   2391   2392     1   0.10969 276646.080000
   2391   2393     1   0.10969 276646.080000
   2394   2395     1   0.10969 276646.080000
   2394   2396     1   0.10969 276646.080000
   2397   2398     1   0.10969 276646.080000
   2397   2399     1   0.10969 276646.080000
   2400   2401     1   0.10969 276646.080000
   2400   2402     1   0.10969 276646.080000
   2403   2404     1   0.10969 276646.080000
   2403   2405     1   0.10969 276646.080000
   2408   2409     1   0.10969 276646.080000
   2408   2410     1   0.10969 276646.080000
   2411   2412     1   0.10969 276646.080000
   2411   2413     1   0.10969 276646.080000
   2414   2415     1   0.10969 276646.080000
   2414   2416     1   0.10969 276646.080000
   2417   2418     1   0.10969 276646.080000
   2417   2419     1   0.10969 276646.080000
   2420   2421     1   0.10969 276646.080000
   2420   2422     1   0.10969 276646.080000
   2423   2424     1   0.10969 276646.080000
   2423   2425     1   0.10969 276646.080000
   2426   2427     1   0.10969 276646.080000
   2426   2428     1   0.10969 276646.080000
   2429   2430     1   0.10969 276646.080000
   2429   2431     1   0.10969 276646.080000
   2432   2433     1   0.10969 276646.080000
   2432   2434     1   0.10969 276646.080000
   2437   2438     1   0.10969 276646.080000
   2437   2439     1   0.10969 276646.080000
   2440   2441     1   0.10969 276646.080000
   2440   2442     1   0.10969 276646.080000
   2443   2444     1   0.10969 276646.080000
   2443   2445     1   0.10969 276646.080000
   2446   2447     1   0.10969 276646.080000
   2446   2448     1   0.10969 276646.080000
   2449   2450     1   0.10969 276646.080000
   2449   2451     1   0.10969 276646.080000
   2452   2453     1   0.10969 276646.080000
   2452   2454     1   0.10969 276646.080000
   2455   2456     1   0.10969 276646.080000
   2455   2457     1   0.10969 276646.080000
   2458   2459     1   0.10969 276646.080000
   2458   2460     1   0.10969 276646.080000
   2461   2462     1   0.10969 276646.080000
   2461   2463     1   0.10969 276646.080000
   2466   2467     1   0.10969 276646.080000
   2466   2468     1   0.10969 276646.080000
   2469   2470     1   0.10969 276646.080000
   2469   2471     1   0.10969 276646.080000
   2472   2473     1   0.10969 276646.080000
   2472   2474     1   0.10969 276646.080000
   2475   2476     1   0.10969 276646.080000
   2475   2477     1   0.10969 276646.080000
   2478   2479     1   0.10969 276646.080000
   2478   2480     1   0.10969 276646.080000
   2481   2482     1   0.10969 276646.080000
   2481   2483     1   0.10969 276646.080000
   2484   2485     1   0.10969 276646.080000
   2484   2486     1   0.10969 276646.080000
   2487   2488     1   0.10969 276646.080000
   2487   2489     1   0.10969 276646.080000
   2490   2491     1   0.10969 276646.080000
   2490   2492     1   0.10969 276646.080000
   2495   2496     1   0.10969 276646.080000
   2495   2497     1   0.10969 276646.080000
   2498   2499     1   0.10969 276646.080000
   2498   2500     1   0.10969 276646.080000
   2501   2502     1   0.10969 276646.080000
   2501   2503     1   0.10969 276646.080000
   2504   2505     1   0.10969 276646.080000
   2504   2506     1   0.10969 276646.080000
   2507   2508     1   0.10969 276646.080000
   2507   2509     1   0.10969 276646.080000
   2510   2511     1   0.10969 276646.080000
   2510   2512     1   0.10969 276646.080000
   2513   2514     1   0.10969 276646.080000
   2513   2515     1   0.10969 276646.080000
   2516   2517     1   0.10969 276646.080000
   2516   2518     1   0.10969 276646.080000
   2519   2520     1   0.10969 276646.080000
   2519   2521     1   0.10969 276646.080000
   2524   2525     1   0.10969 276646.080000
   2524   2526     1   0.10969 276646.080000
   2527   2528     1   0.10969 276646.080000
   2527   2529     1   0.10969 276646.080000
   2530   2531     1   0.10969 276646.080000
   2530   2532     1   0.10969 276646.080000
   2533   2534     1   0.10969 276646.080000
   2533   2535     1   0.10969 276646.080000
   2536   2537     1   0.10969 276646.080000
   2536   2538     1   0.10969 276646.080000
   2539   2540     1   0.10969 276646.080000
   2539   2541     1   0.10969 276646.080000
   2542   2543     1   0.10969 276646.080000
   2542   2544     1   0.10969 276646.080000
   2545   2546     1   0.10969 276646.080000
   2545   2547     1   0.10969 276646.080000
   2548   2549     1   0.10969 276646.080000
   2548   2550     1   0.10969 276646.080000
   2553   2554     1   0.10969 276646.080000
   2553   2555     1   0.10969 276646.080000
   2556   2557     1   0.10969 276646.080000
   2556   2558     1   0.10969 276646.080000
   2559   2560     1   0.10969 276646.080000
   2559   2561     1   0.10969 276646.080000
   2562   2563     1   0.10969 276646.080000
   2562   2564     1   0.10969 276646.080000
   2565   2566     1   0.10969 276646.080000
   2565   2567     1   0.10969 276646.080000
   2568   2569     1   0.10969 276646.080000
   2568   2570     1   0.10969 276646.080000
   2571   2572     1   0.10969 276646.080000
   2571   2573     1   0.10969 276646.080000
   2574   2575     1   0.10969 276646.080000
   2574   2576     1   0.10969 276646.080000
   2577   2578     1   0.10969 276646.080000
   2577   2579     1   0.10969 276646.080000
   2582   2583     1   0.10969 276646.080000
   2582   2584     1   0.10969 276646.080000
   2585   2586     1   0.10969 276646.080000
   2585   2587     1   0.10969 276646.080000
   2588   2589     1   0.10969 276646.080000
   2588   2590     1   0.10969 276646.080000
   2591   2592     1   0.10969 276646.080000
   2591   2593     1   0.10969 276646.080000
   2594   2595     1   0.10969 276646.080000
   2594   2596     1   0.10969 276646.080000
   2597   2598     1   0.10969 276646.080000
   2597   2599     1   0.10969 276646.080000
   2600   2601     1   0.10969 276646.080000
   2600   2602     1   0.10969 276646.080000
   2603   2604     1   0.10969 276646.080000
   2603   2605     1   0.10969 276646.080000
   2606   2607     1   0.10969 276646.080000
   2606   2608     1   0.10969 276646.080000
   2611   2612     1   0.10969 276646.080000
   2611   2613     1   0.10969 276646.080000
   2614   2615     1   0.10969 276646.080000
   2614   2616     1   0.10969 276646.080000
   2617   2618     1   0.10969 276646.080000
   2617   2619     1   0.10969 276646.080000
   2620   2621     1   0.10969 276646.080000
   2620   2622     1   0.10969 276646.080000
   2623   2624     1   0.10969 276646.080000
   2623   2625     1   0.10969 276646.080000
   2626   2627     1   0.10969 276646.080000
   2626   2628     1   0.10969 276646.080000
   2629   2630     1   0.10969 276646.080000
   2629   2631     1   0.10969 276646.080000
   2632   2633     1   0.10969 276646.080000
   2632   2634     1   0.10969 276646.080000
   2635   2636     1   0.10969 276646.080000
   2635   2637     1   0.10969 276646.080000
   2640   2641     1   0.10969 276646.080000
   2640   2642     1   0.10969 276646.080000
   2643   2644     1   0.10969 276646.080000
   2643   2645     1   0.10969 276646.080000
   2646   2647     1   0.10969 276646.080000
   2646   2648     1   0.10969 276646.080000
   2649   2650     1   0.10969 276646.080000
   2649   2651     1   0.10969 276646.080000
   2652   2653     1   0.10969 276646.080000
   2652   2654     1   0.10969 276646.080000
   2655   2656     1   0.10969 276646.080000
   2655   2657     1   0.10969 276646.080000
   2658   2659     1   0.10969 276646.080000
   2658   2660     1   0.10969 276646.080000
   2661   2662     1   0.10969 276646.080000
   2661   2663     1   0.10969 276646.080000
   2664   2665     1   0.10969 276646.080000
   2664   2666     1   0.10969 276646.080000
   2669   2670     1   0.10969 276646.080000
   2669   2671     1   0.10969 276646.080000
   2672   2673     1   0.10969 276646.080000
   2672   2674     1   0.10969 276646.080000
   2675   2676     1   0.10969 276646.080000
   2675   2677     1   0.10969 276646.080000
   2678   2679     1   0.10969 276646.080000
   2678   2680     1   0.10969 276646.080000
   2681   2682     1   0.10969 276646.080000
   2681   2683     1   0.10969 276646.080000
   2684   2685     1   0.10969 276646.080000
   2684   2686     1   0.10969 276646.080000
   2687   2688     1   0.10969 276646.080000
   2687   2689     1   0.10969 276646.080000
   2690   2691     1   0.10969 276646.080000
   2690   2692     1   0.10969 276646.080000
   2693   2694     1   0.10969 276646.080000
   2693   2695     1   0.10969 276646.080000
   2698   2699     1   0.10969 276646.080000
   2698   2700     1   0.10969 276646.080000
   2701   2702     1   0.10969 276646.080000
   2701   2703     1   0.10969 276646.080000
   2704   2705     1   0.10969 276646.080000
   2704   2706     1   0.10969 276646.080000
   2707   2708     1   0.10969 276646.080000
   2707   2709     1   0.10969 276646.080000
   2710   2711     1   0.10969 276646.080000
   2710   2712     1   0.10969 276646.080000
   2713   2714     1   0.10969 276646.080000
   2713   2715     1   0.10969 276646.080000
   2716   2717     1   0.10969 276646.080000
   2716   2718     1   0.10969 276646.080000
   2719   2720     1   0.10969 276646.080000
   2719   2721     1   0.10969 276646.080000
   2722   2723     1   0.10969 276646.080000
   2722   2724     1   0.10969 276646.080000
   2726   2728     1   0.10969 276646.080000
   2727   2729     1   0.10969 276646.080000
   2730   2734     1   0.10969 276646.080000
   2731   2733     1   0.10969 276646.080000
   2732   2735     1   0.10961 277566.560000
   2737   2743     1   0.09730 310787.520000
   2738   2741     1   0.09730 310787.520000
   2739   2742     1   0.09730 310787.520000
   2740   2744     1   0.10969 276646.080000
   2740   2745     1   0.10969 276646.080000
   2746   2747     1   0.09730 310787.520000
   2749   2751     1   0.10969 276646.080000
   2750   2752     1   0.10969 276646.080000
   2753   2757     1   0.10969 276646.080000
   2754   2756     1   0.10969 276646.080000
   2755   2758     1   0.10961 277566.560000
   2760   2766     1   0.09730 310787.520000
   2761   2764     1   0.09730 310787.520000
   2762   2765     1   0.09730 310787.520000
   2763   2767     1   0.10969 276646.080000
   2763   2768     1   0.10969 276646.080000
   2769   2770     1   0.09730 310787.520000
   2772   2774     1   0.10969 276646.080000
   2773   2775     1   0.10969 276646.080000
   2776   2780     1   0.10969 276646.080000
   2777   2779     1   0.10969 276646.080000
   2778   2781     1   0.10961 277566.560000
   2783   2789     1   0.09730 310787.520000
   2784   2787     1   0.09730 310787.520000
   2785   2788     1   0.09730 310787.520000
   2786   2790     1   0.10969 276646.080000
   2786   2791     1   0.10969 276646.080000
   2792   2793     1   0.09730 310787.520000
   2795   2797     1   0.10969 276646.080000
   2796   2798     1   0.10969 276646.080000
   2799   2803     1   0.10969 276646.080000
   2800   2802     1   0.10969 276646.080000
   2801   2804     1   0.10961 277566.560000
   2806   2812     1   0.09730 310787.520000
   2807   2810     1   0.09730 310787.520000
   2808   2811     1   0.09730 310787.520000
   2809   2813     1   0.10969 276646.080000
   2809   2814     1   0.10969 276646.080000
   2815   2816     1   0.09730 310787.520000
   2818   2820     1   0.10969 276646.080000
   2819   2821     1   0.10969 276646.080000
   2822   2826     1   0.10969 276646.080000
   2823   2825     1   0.10969 276646.080000
   2824   2827     1   0.10961 277566.560000
   2829   2835     1   0.09730 310787.520000
   2830   2833     1   0.09730 310787.520000
   2831   2834     1   0.09730 310787.520000
   2832   2836     1   0.10969 276646.080000
   2832   2837     1   0.10969 276646.080000
   2838   2839     1   0.09730 310787.520000
   2841   2843     1   0.10969 276646.080000
   2842   2844     1   0.10969 276646.080000
   2845   2849     1   0.10969 276646.080000
   2846   2848     1   0.10969 276646.080000
   2847   2850     1   0.10961 277566.560000
   2852   2858     1   0.09730 310787.520000
   2853   2856     1   0.09730 310787.520000
   2854   2857     1   0.09730 310787.520000
   2855   2859     1   0.10969 276646.080000
   2855   2860     1   0.10969 276646.080000
   2861   2862     1   0.09730 310787.520000
   2864   2866     1   0.10969 276646.080000
   2865   2867     1   0.10969 276646.080000
   2868   2872     1   0.10969 276646.080000
   2869   2871     1   0.10969 276646.080000
   2870   2873     1   0.10961 277566.560000
   2875   2881     1   0.09730 310787.520000
   2876   2879     1   0.09730 310787.520000
   2877   2880     1   0.09730 310787.520000
   2878   2882     1   0.10969 276646.080000
   2878   2883     1   0.10969 276646.080000
   2884   2885     1   0.09730 310787.520000
   2887   2889     1   0.10969 276646.080000
   2888   2890     1   0.10969 276646.080000
   2891   2895     1   0.10969 276646.080000
   2892   2894     1   0.10969 276646.080000
   2893   2896     1   0.10961 277566.560000
   2898   2904     1   0.09730 310787.520000
   2899   2902     1   0.09730 310787.520000
   2900   2903     1   0.09730 310787.520000
   2901   2905     1   0.10969 276646.080000
   2901   2906     1   0.10969 276646.080000
   2907   2908     1   0.09730 310787.520000
   2910   2912     1   0.10969 276646.080000
   2911   2913     1   0.10969 276646.080000
   2914   2918     1   0.10969 276646.080000
   2915   2917     1   0.10969 276646.080000
   2916   2919     1   0.10961 277566.560000
   2921   2927     1   0.09730 310787.520000
   2922   2925     1   0.09730 310787.520000
   2923   2926     1   0.09730 310787.520000
   2924   2928     1   0.10969 276646.080000
   2924   2929     1   0.10969 276646.080000
   2930   2931     1   0.09730 310787.520000
   2933   2935     1   0.10969 276646.080000
   2934   2936     1   0.10969 276646.080000
   2937   2941     1   0.10969 276646.080000
   2938   2940     1   0.10969 276646.080000
   2939   2942     1   0.10961 277566.560000
   2944   2950     1   0.09730 310787.520000
   2945   2948     1   0.09730 310787.520000
   2946   2949     1   0.09730 310787.520000
   2947   2951     1   0.10969 276646.080000
   2947   2952     1   0.10969 276646.080000
   2953   2954     1   0.09730 310787.520000
   2956   2958     1   0.10969 276646.080000
   2957   2959     1   0.10969 276646.080000
   2960   2964     1   0.10969 276646.080000
   2961   2963     1   0.10969 276646.080000
   2962   2965     1   0.10961 277566.560000
   2967   2973     1   0.09730 310787.520000
   2968   2971     1   0.09730 310787.520000
   2969   2972     1   0.09730 310787.520000
   2970   2974     1   0.10969 276646.080000
   2970   2975     1   0.10969 276646.080000
   2976   2977     1   0.09730 310787.520000
   2979   2981     1   0.10969 276646.080000
   2980   2982     1   0.10969 276646.080000
   2983   2987     1   0.10969 276646.080000
   2984   2986     1   0.10969 276646.080000
   2985   2988     1   0.10961 277566.560000
   2990   2996     1   0.09730 310787.520000
   2991   2994     1   0.09730 310787.520000
   2992   2995     1   0.09730 310787.520000
   2993   2997     1   0.10969 276646.080000
   2993   2998     1   0.10969 276646.080000
   2999   3000     1   0.09730 310787.520000
   3002   3004     1   0.10969 276646.080000
   3003   3005     1   0.10969 276646.080000
   3006   3010     1   0.10969 276646.080000
   3007   3009     1   0.10969 276646.080000
   3008   3011     1   0.10961 277566.560000
   3013   3019     1   0.09730 310787.520000
   3014   3017     1   0.09730 310787.520000
   3015   3018     1   0.09730 310787.520000
   3016   3020     1   0.10969 276646.080000
   3016   3021     1   0.10969 276646.080000
   3022   3023     1   0.09730 310787.520000
   3025   3027     1   0.10969 276646.080000
   3026   3028     1   0.10969 276646.080000
   3029   3033     1   0.10969 276646.080000
   3030   3032     1   0.10969 276646.080000
   3031   3034     1   0.10961 277566.560000
   3036   3042     1   0.09730 310787.520000
   3037   3040     1   0.09730 310787.520000
   3038   3041     1   0.09730 310787.520000
   3039   3043     1   0.10969 276646.080000
   3039   3044     1   0.10969 276646.080000
   3045   3046     1   0.09730 310787.520000
   3048   3050     1   0.10969 276646.080000
   3049   3051     1   0.10969 276646.080000
   3052   3056     1   0.10969 276646.080000
   3053   3055     1   0.10969 276646.080000
   3054   3057     1   0.10961 277566.560000
   3059   3065     1   0.09730 310787.520000
   3060   3063     1   0.09730 310787.520000
   3061   3064     1   0.09730 310787.520000
   3062   3066     1   0.10969 276646.080000
   3062   3067     1   0.10969 276646.080000
   3068   3069     1   0.09730 310787.520000
   3071   3073     1   0.10969 276646.080000
   3072   3074     1   0.10969 276646.080000
   3075   3079     1   0.10969 276646.080000
   3076   3078     1   0.10969 276646.080000
   3077   3080     1   0.10961 277566.560000
   3082   3088     1   0.09730 310787.520000
   3083   3086     1   0.09730 310787.520000
   3084   3087     1   0.09730 310787.520000
   3085   3089     1   0.10969 276646.080000
   3085   3090     1   0.10969 276646.080000
   3091   3092     1   0.09730 310787.520000
   3094   3096     1   0.10969 276646.080000
   3095   3097     1   0.10969 276646.080000
   3098   3102     1   0.10969 276646.080000
   3099   3101     1   0.10969 276646.080000
   3100   3103     1   0.10961 277566.560000
   3105   3111     1   0.09730 310787.520000
   3106   3109     1   0.09730 310787.520000
   3107   3110     1   0.09730 310787.520000
   3108   3112     1   0.10969 276646.080000
   3108   3113     1   0.10969 276646.080000
   3114   3115     1   0.09730 310787.520000
   3117   3119     1   0.10969 276646.080000
   3118   3120     1   0.10969 276646.080000
   3121   3125     1   0.10969 276646.080000
   3122   3124     1   0.10969 276646.080000
   3123   3126     1   0.10961 277566.560000
   3128   3134     1   0.09730 310787.520000
   3129   3132     1   0.09730 310787.520000
   3130   3133     1   0.09730 310787.520000
   3131   3135     1   0.10969 276646.080000
   3131   3136     1   0.10969 276646.080000
   3137   3138     1   0.09730 310787.520000
   3140   3142     1   0.10969 276646.080000
   3141   3143     1   0.10969 276646.080000
   3144   3148     1   0.10969 276646.080000
   3145   3147     1   0.10969 276646.080000
   3146   3149     1   0.10961 277566.560000
   3151   3157     1   0.09730 310787.520000
   3152   3155     1   0.09730 310787.520000
   3153   3156     1   0.09730 310787.520000
   3154   3158     1   0.10969 276646.080000
   3154   3159     1   0.10969 276646.080000
   3160   3161     1   0.09730 310787.520000
   3163   3165     1   0.10969 276646.080000
   3164   3166     1   0.10969 276646.080000
   3167   3171     1   0.10969 276646.080000
   3168   3170     1   0.10969 276646.080000
   3169   3172     1   0.10961 277566.560000
   3174   3180     1   0.09730 310787.520000
   3175   3178     1   0.09730 310787.520000
   3176   3179     1   0.09730 310787.520000
   3177   3181     1   0.10969 276646.080000
   3177   3182     1   0.10969 276646.080000
   3183   3184     1   0.09730 310787.520000
   3186   3188     1   0.10969 276646.080000
   3187   3189     1   0.10969 276646.080000
   3190   3194     1   0.10969 276646.080000
   3191   3193     1   0.10969 276646.080000
   3192   3195     1   0.10961 277566.560000
   3197   3203     1   0.09730 310787.520000
   3198   3201     1   0.09730 310787.520000
   3199   3202     1   0.09730 310787.520000
   3200   3204     1   0.10969 276646.080000
   3200   3205     1   0.10969 276646.080000
   3206   3207     1   0.09730 310787.520000
   3209   3211     1   0.10969 276646.080000
   3210   3212     1   0.10969 276646.080000
   3213   3217     1   0.10969 276646.080000
   3214   3216     1   0.10969 276646.080000
   3215   3218     1   0.10961 277566.560000
   3220   3226     1   0.09730 310787.520000
   3221   3224     1   0.09730 310787.520000
   3222   3225     1   0.09730 310787.520000
   3223   3227     1   0.10969 276646.080000
   3223   3228     1   0.10969 276646.080000
   3229   3230     1   0.09730 310787.520000
   3232   3234     1   0.10969 276646.080000
   3233   3235     1   0.10969 276646.080000
   3236   3240     1   0.10969 276646.080000
   3237   3239     1   0.10969 276646.080000
   3238   3241     1   0.10961 277566.560000
   3243   3249     1   0.09730 310787.520000
   3244   3247     1   0.09730 310787.520000
   3245   3248     1   0.09730 310787.520000
   3246   3250     1   0.10969 276646.080000
   3246   3251     1   0.10969 276646.080000
   3252   3253     1   0.09730 310787.520000
   3255   3257     1   0.10969 276646.080000
   3256   3258     1   0.10969 276646.080000
   3259   3263     1   0.10969 276646.080000
   3260   3262     1   0.10969 276646.080000
   3261   3264     1   0.10961 277566.560000
   3266   3272     1   0.09730 310787.520000
   3267   3270     1   0.09730 310787.520000
   3268   3271     1   0.09730 310787.520000
   3269   3273     1   0.10969 276646.080000
   3269   3274     1   0.10969 276646.080000
   3275   3276     1   0.09730 310787.520000
   3278   3280     1   0.10969 276646.080000
   3279   3281     1   0.10969 276646.080000
   3282   3286     1   0.10969 276646.080000
   3283   3285     1   0.10969 276646.080000
   3284   3287     1   0.10961 277566.560000
   3289   3295     1   0.09730 310787.520000
   3290   3293     1   0.09730 310787.520000
   3291   3294     1   0.09730 310787.520000
   3292   3296     1   0.10969 276646.080000
   3292   3297     1   0.10969 276646.080000
   3298   3299     1   0.09730 310787.520000
   3301   3303     1   0.10969 276646.080000
   3302   3304     1   0.10969 276646.080000
   3305   3309     1   0.10969 276646.080000
   3306   3308     1   0.10969 276646.080000
   3307   3310     1   0.10961 277566.560000
   3312   3318     1   0.09730 310787.520000
   3313   3316     1   0.09730 310787.520000
   3314   3317     1   0.09730 310787.520000
   3315   3319     1   0.10969 276646.080000
   3315   3320     1   0.10969 276646.080000
   3321   3322     1   0.09730 310787.520000
   3324   3326     1   0.10969 276646.080000
   3325   3327     1   0.10969 276646.080000
   3328   3332     1   0.10969 276646.080000
   3329   3331     1   0.10969 276646.080000
   3330   3333     1   0.10961 277566.560000
   3335   3341     1   0.09730 310787.520000
   3336   3339     1   0.09730 310787.520000
   3337   3340     1   0.09730 310787.520000
   3338   3342     1   0.10969 276646.080000
   3338   3343     1   0.10969 276646.080000
   3344   3345     1   0.09730 310787.520000
   3347   3349     1   0.10969 276646.080000
   3348   3350     1   0.10969 276646.080000
   3351   3355     1   0.10969 276646.080000
   3352   3354     1   0.10969 276646.080000
   3353   3356     1   0.10961 277566.560000
   3358   3364     1   0.09730 310787.520000
   3359   3362     1   0.09730 310787.520000
   3360   3363     1   0.09730 310787.520000
   3361   3365     1   0.10969 276646.080000
   3361   3366     1   0.10969 276646.080000
   3367   3368     1   0.09730 310787.520000
   3370   3372     1   0.10969 276646.080000
   3371   3373     1   0.10969 276646.080000
   3374   3378     1   0.10969 276646.080000
   3375   3377     1   0.10969 276646.080000
   3376   3379     1   0.10961 277566.560000
   3381   3387     1   0.09730 310787.520000
   3382   3385     1   0.09730 310787.520000
   3383   3386     1   0.09730 310787.520000
   3384   3388     1   0.10969 276646.080000
   3384   3389     1   0.10969 276646.080000
   3390   3391     1   0.09730 310787.520000
   3393   3395     1   0.10969 276646.080000
   3394   3396     1   0.10969 276646.080000
   3397   3401     1   0.10969 276646.080000
   3398   3400     1   0.10969 276646.080000
   3399   3402     1   0.10961 277566.560000
   3404   3410     1   0.09730 310787.520000
   3405   3408     1   0.09730 310787.520000
   3406   3409     1   0.09730 310787.520000
   3407   3411     1   0.10969 276646.080000
   3407   3412     1   0.10969 276646.080000
   3413   3414     1   0.09730 310787.520000
   3416   3418     1   0.10969 276646.080000
   3417   3419     1   0.10969 276646.080000
   3420   3424     1   0.10969 276646.080000
   3421   3423     1   0.10969 276646.080000
   3422   3425     1   0.10961 277566.560000
   3427   3433     1   0.09730 310787.520000
   3428   3431     1   0.09730 310787.520000
   3429   3432     1   0.09730 310787.520000
   3430   3434     1   0.10969 276646.080000
   3430   3435     1   0.10969 276646.080000
   3436   3437     1   0.09730 310787.520000
   3439   3441     1   0.10969 276646.080000
   3440   3442     1   0.10969 276646.080000
   3443   3447     1   0.10969 276646.080000
   3444   3446     1   0.10969 276646.080000
   3445   3448     1   0.10961 277566.560000
   3450   3456     1   0.09730 310787.520000
   3451   3454     1   0.09730 310787.520000
   3452   3455     1   0.09730 310787.520000
   3453   3457     1   0.10969 276646.080000
   3453   3458     1   0.10969 276646.080000
   3459   3460     1   0.09730 310787.520000
   3462   3464     1   0.10969 276646.080000
   3463   3465     1   0.10969 276646.080000
   3466   3470     1   0.10969 276646.080000
   3467   3469     1   0.10969 276646.080000
   3468   3471     1   0.10961 277566.560000
   3473   3479     1   0.09730 310787.520000
   3474   3477     1   0.09730 310787.520000
   3475   3478     1   0.09730 310787.520000
   3476   3480     1   0.10969 276646.080000
   3476   3481     1   0.10969 276646.080000
   3482   3483     1   0.09730 310787.520000
   3485   3487     1   0.10969 276646.080000
   3486   3488     1   0.10969 276646.080000
   3489   3493     1   0.10969 276646.080000
   3490   3492     1   0.10969 276646.080000
   3491   3494     1   0.10961 277566.560000
   3496   3502     1   0.09730 310787.520000
   3497   3500     1   0.09730 310787.520000
   3498   3501     1   0.09730 310787.520000
   3499   3503     1   0.10969 276646.080000
   3499   3504     1   0.10969 276646.080000
   3505   3506     1   0.09730 310787.520000
   3508   3510     1   0.10969 276646.080000
   3509   3511     1   0.10969 276646.080000
   3512   3516     1   0.10969 276646.080000
   3513   3515     1   0.10969 276646.080000
   3514   3517     1   0.10961 277566.560000
   3519   3525     1   0.09730 310787.520000
   3520   3523     1   0.09730 310787.520000
   3521   3524     1   0.09730 310787.520000
   3522   3526     1   0.10969 276646.080000
   3522   3527     1   0.10969 276646.080000
   3528   3529     1   0.09730 310787.520000
   3531   3533     1   0.10969 276646.080000
   3532   3534     1   0.10969 276646.080000
   3535   3539     1   0.10969 276646.080000
   3536   3538     1   0.10969 276646.080000
   3537   3540     1   0.10961 277566.560000
   3542   3548     1   0.09730 310787.520000
   3543   3546     1   0.09730 310787.520000
   3544   3547     1   0.09730 310787.520000
   3545   3549     1   0.10969 276646.080000
   3545   3550     1   0.10969 276646.080000
   3551   3552     1   0.09730 310787.520000
   3554   3556     1   0.10969 276646.080000
   3555   3557     1   0.10969 276646.080000
   3558   3562     1   0.10969 276646.080000
   3559   3561     1   0.10969 276646.080000
   3560   3563     1   0.10961 277566.560000
   3565   3571     1   0.09730 310787.520000
   3566   3569     1   0.09730 310787.520000
   3567   3570     1   0.09730 310787.520000
   3568   3572     1   0.10969 276646.080000
   3568   3573     1   0.10969 276646.080000
   3574   3575     1   0.09730 310787.520000
   3577   3579     1   0.10969 276646.080000
   3578   3580     1   0.10969 276646.080000
   3581   3585     1   0.10969 276646.080000
   3582   3584     1   0.10969 276646.080000
   3583   3586     1   0.10961 277566.560000
   3588   3594     1   0.09730 310787.520000
   3589   3592     1   0.09730 310787.520000
   3590   3593     1   0.09730 310787.520000
   3591   3595     1   0.10969 276646.080000
   3591   3596     1   0.10969 276646.080000
   3597   3598     1   0.09730 310787.520000
   3600   3602     1   0.10969 276646.080000
   3601   3603     1   0.10969 276646.080000
   3604   3608     1   0.10969 276646.080000
   3605   3607     1   0.10969 276646.080000
   3606   3609     1   0.10961 277566.560000
   3611   3617     1   0.09730 310787.520000
   3612   3615     1   0.09730 310787.520000
   3613   3616     1   0.09730 310787.520000
   3614   3618     1   0.10969 276646.080000
   3614   3619     1   0.10969 276646.080000
   3620   3621     1   0.09730 310787.520000
   3623   3625     1   0.10969 276646.080000
   3624   3626     1   0.10969 276646.080000
   3627   3631     1   0.10969 276646.080000
   3628   3630     1   0.10969 276646.080000
   3629   3632     1   0.10961 277566.560000
   3634   3640     1   0.09730 310787.520000
   3635   3638     1   0.09730 310787.520000
   3636   3639     1   0.09730 310787.520000
   3637   3641     1   0.10969 276646.080000
   3637   3642     1   0.10969 276646.080000
   3643   3644     1   0.09730 310787.520000
   3646   3648     1   0.10969 276646.080000
   3647   3649     1   0.10969 276646.080000
   3650   3654     1   0.10969 276646.080000
   3651   3653     1   0.10969 276646.080000
   3652   3655     1   0.10961 277566.560000
   3657   3663     1   0.09730 310787.520000
   3658   3661     1   0.09730 310787.520000
   3659   3662     1   0.09730 310787.520000
   3660   3664     1   0.10969 276646.080000
   3660   3665     1   0.10969 276646.080000
   3666   3667     1   0.09730 310787.520000
   3669   3671     1   0.10969 276646.080000
   3670   3672     1   0.10969 276646.080000
   3673   3677     1   0.10969 276646.080000
   3674   3676     1   0.10969 276646.080000
   3675   3678     1   0.10961 277566.560000
   3680   3686     1   0.09730 310787.520000
   3681   3684     1   0.09730 310787.520000
   3682   3685     1   0.09730 310787.520000
   3683   3687     1   0.10969 276646.080000
   3683   3688     1   0.10969 276646.080000
   3689   3690     1   0.09730 310787.520000
   3692   3694     1   0.10969 276646.080000
   3693   3695     1   0.10969 276646.080000
   3696   3700     1   0.10969 276646.080000
   3697   3699     1   0.10969 276646.080000
   3698   3701     1   0.10961 277566.560000
   3703   3709     1   0.09730 310787.520000
   3704   3707     1   0.09730 310787.520000
   3705   3708     1   0.09730 310787.520000
   3706   3710     1   0.10969 276646.080000
   3706   3711     1   0.10969 276646.080000
   3712   3713     1   0.09730 310787.520000
   3715   3717     1   0.10969 276646.080000
   3716   3718     1   0.10969 276646.080000
   3719   3723     1   0.10969 276646.080000
   3720   3722     1   0.10969 276646.080000
   3721   3724     1   0.10961 277566.560000
   3726   3732     1   0.09730 310787.520000
   3727   3730     1   0.09730 310787.520000
   3728   3731     1   0.09730 310787.520000
   3729   3733     1   0.10969 276646.080000
   3729   3734     1   0.10969 276646.080000
   3735   3736     1   0.09730 310787.520000
   3738   3740     1   0.10969 276646.080000
   3739   3741     1   0.10969 276646.080000
   3742   3746     1   0.10969 276646.080000
   3743   3745     1   0.10969 276646.080000
   3744   3747     1   0.10961 277566.560000
   3749   3755     1   0.09730 310787.520000
   3750   3753     1   0.09730 310787.520000
   3751   3754     1   0.09730 310787.520000
   3752   3756     1   0.10969 276646.080000
   3752   3757     1   0.10969 276646.080000
   3758   3759     1   0.09730 310787.520000
   3761   3763     1   0.10969 276646.080000
   3762   3764     1   0.10969 276646.080000
   3765   3769     1   0.10969 276646.080000
   3766   3768     1   0.10969 276646.080000
   3767   3770     1   0.10961 277566.560000
   3772   3778     1   0.09730 310787.520000
   3773   3776     1   0.09730 310787.520000
   3774   3777     1   0.09730 310787.520000
   3775   3779     1   0.10969 276646.080000
   3775   3780     1   0.10969 276646.080000
   3781   3782     1   0.09730 310787.520000
   3784   3786     1   0.10969 276646.080000
   3785   3787     1   0.10969 276646.080000
   3788   3792     1   0.10969 276646.080000
   3789   3791     1   0.10969 276646.080000
   3790   3793     1   0.10961 277566.560000
   3795   3801     1   0.09730 310787.520000
   3796   3799     1   0.09730 310787.520000
   3797   3800     1   0.09730 310787.520000
   3798   3802     1   0.10969 276646.080000
   3798   3803     1   0.10969 276646.080000
   3804   3805     1   0.09730 310787.520000
   3807   3809     1   0.10969 276646.080000
   3808   3810     1   0.10969 276646.080000
   3811   3815     1   0.10969 276646.080000
   3812   3814     1   0.10969 276646.080000
   3813   3816     1   0.10961 277566.560000
   3818   3824     1   0.09730 310787.520000
   3819   3822     1   0.09730 310787.520000
   3820   3823     1   0.09730 310787.520000
   3821   3825     1   0.10969 276646.080000
   3821   3826     1   0.10969 276646.080000
   3827   3828     1   0.09730 310787.520000
   3830   3832     1   0.10969 276646.080000
   3831   3833     1   0.10969 276646.080000
   3834   3838     1   0.10969 276646.080000
   3835   3837     1   0.10969 276646.080000
   3836   3839     1   0.10961 277566.560000
   3841   3847     1   0.09730 310787.520000
   3842   3845     1   0.09730 310787.520000
   3843   3846     1   0.09730 310787.520000
   3844   3848     1   0.10969 276646.080000
   3844   3849     1   0.10969 276646.080000
   3850   3851     1   0.09730 310787.520000
   3853   3855     1   0.10969 276646.080000
   3854   3856     1   0.10969 276646.080000
   3857   3861     1   0.10969 276646.080000
   3858   3860     1   0.10969 276646.080000
   3859   3862     1   0.10961 277566.560000
   3864   3870     1   0.09730 310787.520000
   3865   3868     1   0.09730 310787.520000
   3866   3869     1   0.09730 310787.520000
   3867   3871     1   0.10969 276646.080000
   3867   3872     1   0.10969 276646.080000
   3873   3874     1   0.09730 310787.520000
   3876   3878     1   0.10969 276646.080000
   3877   3879     1   0.10969 276646.080000
   3880   3884     1   0.10969 276646.080000
   3881   3883     1   0.10969 276646.080000
   3882   3885     1   0.10961 277566.560000
   3887   3893     1   0.09730 310787.520000
   3888   3891     1   0.09730 310787.520000
   3889   3892     1   0.09730 310787.520000
   3890   3894     1   0.10969 276646.080000
   3890   3895     1   0.10969 276646.080000
   3896   3897     1   0.09730 310787.520000
   3899   3901     1   0.10969 276646.080000
   3900   3902     1   0.10969 276646.080000
   3903   3907     1   0.10969 276646.080000
   3904   3906     1   0.10969 276646.080000
   3905   3908     1   0.10961 277566.560000
   3910   3916     1   0.09730 310787.520000
   3911   3914     1   0.09730 310787.520000
   3912   3915     1   0.09730 310787.520000
   3913   3917     1   0.10969 276646.080000
   3913   3918     1   0.10969 276646.080000
   3919   3920     1   0.09730 310787.520000
   3922   3924     1   0.10969 276646.080000
   3923   3925     1   0.10969 276646.080000
   3926   3930     1   0.10969 276646.080000
   3927   3929     1   0.10969 276646.080000
   3928   3931     1   0.10961 277566.560000
   3933   3939     1   0.09730 310787.520000
   3934   3937     1   0.09730 310787.520000
   3935   3938     1   0.09730 310787.520000
   3936   3940     1   0.10969 276646.080000
   3936   3941     1   0.10969 276646.080000
   3942   3943     1   0.09730 310787.520000
   3945   3947     1   0.10969 276646.080000
   3946   3948     1   0.10969 276646.080000
   3949   3953     1   0.10969 276646.080000
   3950   3952     1   0.10969 276646.080000
   3951   3954     1   0.10961 277566.560000
   3956   3962     1   0.09730 310787.520000
   3957   3960     1   0.09730 310787.520000
   3958   3961     1   0.09730 310787.520000
   3959   3963     1   0.10969 276646.080000
   3959   3964     1   0.10969 276646.080000
   3965   3966     1   0.09730 310787.520000
   3968   3970     1   0.10969 276646.080000
   3969   3971     1   0.10969 276646.080000
   3972   3976     1   0.10969 276646.080000
   3973   3975     1   0.10969 276646.080000
   3974   3977     1   0.10961 277566.560000
   3979   3985     1   0.09730 310787.520000
   3980   3983     1   0.09730 310787.520000
   3981   3984     1   0.09730 310787.520000
   3982   3986     1   0.10969 276646.080000
   3982   3987     1   0.10969 276646.080000
   3988   3989     1   0.09730 310787.520000
   3991   3993     1   0.10969 276646.080000
   3992   3994     1   0.10969 276646.080000
   3995   3999     1   0.10969 276646.080000
   3996   3998     1   0.10969 276646.080000
   3997   4000     1   0.10961 277566.560000
   4002   4008     1   0.09730 310787.520000
   4003   4006     1   0.09730 310787.520000
   4004   4007     1   0.09730 310787.520000
   4005   4009     1   0.10969 276646.080000
   4005   4010     1   0.10969 276646.080000
   4011   4012     1   0.09730 310787.520000
   4014   4016     1   0.10969 276646.080000
   4015   4017     1   0.10969 276646.080000
   4018   4022     1   0.10969 276646.080000
   4019   4021     1   0.10969 276646.080000
   4020   4023     1   0.10961 277566.560000
   4025   4031     1   0.09730 310787.520000
   4026   4029     1   0.09730 310787.520000
   4027   4030     1   0.09730 310787.520000
   4028   4032     1   0.10969 276646.080000
   4028   4033     1   0.10969 276646.080000
   4034   4035     1   0.09730 310787.520000
   4037   4039     1   0.10969 276646.080000
   4038   4040     1   0.10969 276646.080000
   4041   4045     1   0.10969 276646.080000
   4042   4044     1   0.10969 276646.080000
   4043   4046     1   0.10961 277566.560000
   4048   4054     1   0.09730 310787.520000
   4049   4052     1   0.09730 310787.520000
   4050   4053     1   0.09730 310787.520000
   4051   4055     1   0.10969 276646.080000
   4051   4056     1   0.10969 276646.080000
   4057   4058     1   0.09730 310787.520000
   4060   4062     1   0.10969 276646.080000
   4061   4063     1   0.10969 276646.080000
   4064   4068     1   0.10969 276646.080000
   4065   4067     1   0.10969 276646.080000
   4066   4069     1   0.10961 277566.560000
   4071   4077     1   0.09730 310787.520000
   4072   4075     1   0.09730 310787.520000
   4073   4076     1   0.09730 310787.520000
   4074   4078     1   0.10969 276646.080000
   4074   4079     1   0.10969 276646.080000
   4080   4081     1   0.09730 310787.520000
   4083   4085     1   0.10969 276646.080000
   4084   4086     1   0.10969 276646.080000
   4087   4091     1   0.10969 276646.080000
   4088   4090     1   0.10969 276646.080000
   4089   4092     1   0.10961 277566.560000
   4094   4100     1   0.09730 310787.520000
   4095   4098     1   0.09730 310787.520000
   4096   4099     1   0.09730 310787.520000
   4097   4101     1   0.10969 276646.080000
   4097   4102     1   0.10969 276646.080000
   4103   4104     1   0.09730 310787.520000
   4106   4108     1   0.10969 276646.080000
   4107   4109     1   0.10969 276646.080000
   4110   4114     1   0.10969 276646.080000
   4111   4113     1   0.10969 276646.080000
   4112   4115     1   0.10961 277566.560000
   4117   4123     1   0.09730 310787.520000
   4118   4121     1   0.09730 310787.520000
   4119   4122     1   0.09730 310787.520000
   4120   4124     1   0.10969 276646.080000
   4120   4125     1   0.10969 276646.080000
   4126   4127     1   0.09730 310787.520000
   4129   4131     1   0.10969 276646.080000
   4130   4132     1   0.10969 276646.080000
   4133   4137     1   0.10969 276646.080000
   4134   4136     1   0.10969 276646.080000
   4135   4138     1   0.10961 277566.560000
   4140   4146     1   0.09730 310787.520000
   4141   4144     1   0.09730 310787.520000
   4142   4145     1   0.09730 310787.520000
   4143   4147     1   0.10969 276646.080000
   4143   4148     1   0.10969 276646.080000
   4149   4150     1   0.09730 310787.520000
   4152   4154     1   0.10969 276646.080000
   4153   4155     1   0.10969 276646.080000
   4156   4160     1   0.10969 276646.080000
   4157   4159     1   0.10969 276646.080000
   4158   4161     1   0.10961 277566.560000
   4163   4169     1   0.09730 310787.520000
   4164   4167     1   0.09730 310787.520000
   4165   4168     1   0.09730 310787.520000
   4166   4170     1   0.10969 276646.080000
   4166   4171     1   0.10969 276646.080000
   4172   4173     1   0.09730 310787.520000
   4175   4177     1   0.10969 276646.080000
   4176   4178     1   0.10969 276646.080000
   4179   4183     1   0.10969 276646.080000
   4180   4182     1   0.10969 276646.080000
   4181   4184     1   0.10961 277566.560000
   4186   4192     1   0.09730 310787.520000
   4187   4190     1   0.09730 310787.520000
   4188   4191     1   0.09730 310787.520000
   4189   4193     1   0.10969 276646.080000
   4189   4194     1   0.10969 276646.080000
   4195   4196     1   0.09730 310787.520000
   4198   4200     1   0.10969 276646.080000
   4199   4201     1   0.10969 276646.080000
   4202   4206     1   0.10969 276646.080000
   4203   4205     1   0.10969 276646.080000
   4204   4207     1   0.10961 277566.560000
   4209   4215     1   0.09730 310787.520000
   4210   4213     1   0.09730 310787.520000
   4211   4214     1   0.09730 310787.520000
   4212   4216     1   0.10969 276646.080000
   4212   4217     1   0.10969 276646.080000
   4218   4219     1   0.09730 310787.520000
   4221   4223     1   0.10969 276646.080000
   4222   4224     1   0.10969 276646.080000
   4225   4229     1   0.10969 276646.080000
   4226   4228     1   0.10969 276646.080000
   4227   4230     1   0.10961 277566.560000
   4232   4238     1   0.09730 310787.520000
   4233   4236     1   0.09730 310787.520000
   4234   4237     1   0.09730 310787.520000
   4235   4239     1   0.10969 276646.080000
   4235   4240     1   0.10969 276646.080000
   4241   4242     1   0.09730 310787.520000
   4244   4246     1   0.10969 276646.080000
   4245   4247     1   0.10969 276646.080000
   4248   4252     1   0.10969 276646.080000
   4249   4251     1   0.10969 276646.080000
   4250   4253     1   0.10961 277566.560000
   4255   4261     1   0.09730 310787.520000
   4256   4259     1   0.09730 310787.520000
   4257   4260     1   0.09730 310787.520000
   4258   4262     1   0.10969 276646.080000
   4258   4263     1   0.10969 276646.080000
   4264   4265     1   0.09730 310787.520000
   4267   4269     1   0.10969 276646.080000
   4268   4270     1   0.10969 276646.080000
   4271   4275     1   0.10969 276646.080000
   4272   4274     1   0.10969 276646.080000
   4273   4276     1   0.10961 277566.560000
   4278   4284     1   0.09730 310787.520000
   4279   4282     1   0.09730 310787.520000
   4280   4283     1   0.09730 310787.520000
   4281   4285     1   0.10969 276646.080000
   4281   4286     1   0.10969 276646.080000
   4287   4288     1   0.09730 310787.520000
   4290   4292     1   0.10969 276646.080000
   4291   4293     1   0.10969 276646.080000
   4294   4298     1   0.10969 276646.080000
   4295   4297     1   0.10969 276646.080000
   4296   4299     1   0.10961 277566.560000
   4301   4307     1   0.09730 310787.520000
   4302   4305     1   0.09730 310787.520000
   4303   4306     1   0.09730 310787.520000
   4304   4308     1   0.10969 276646.080000
   4304   4309     1   0.10969 276646.080000
   4310   4311     1   0.09730 310787.520000
   4313   4315     1   0.10969 276646.080000
   4314   4316     1   0.10969 276646.080000
   4317   4321     1   0.10969 276646.080000
   4318   4320     1   0.10969 276646.080000
   4319   4322     1   0.10961 277566.560000
   4324   4330     1   0.09730 310787.520000
   4325   4328     1   0.09730 310787.520000
   4326   4329     1   0.09730 310787.520000
   4327   4331     1   0.10969 276646.080000
   4327   4332     1   0.10969 276646.080000
   4333   4334     1   0.09730 310787.520000
   4336   4338     1   0.10969 276646.080000
   4337   4339     1   0.10969 276646.080000
   4340   4344     1   0.10969 276646.080000
   4341   4343     1   0.10969 276646.080000
   4342   4345     1   0.10961 277566.560000
   4347   4353     1   0.09730 310787.520000
   4348   4351     1   0.09730 310787.520000
   4349   4352     1   0.09730 310787.520000
   4350   4354     1   0.10969 276646.080000
   4350   4355     1   0.10969 276646.080000
   4356   4357     1   0.09730 310787.520000
   4359   4361     1   0.10969 276646.080000
   4360   4362     1   0.10969 276646.080000
   4363   4367     1   0.10969 276646.080000
   4364   4366     1   0.10969 276646.080000
   4365   4368     1   0.10961 277566.560000
   4370   4376     1   0.09730 310787.520000
   4371   4374     1   0.09730 310787.520000
   4372   4375     1   0.09730 310787.520000
   4373   4377     1   0.10969 276646.080000
   4373   4378     1   0.10969 276646.080000
   4379   4380     1   0.09730 310787.520000
   4382   4384     1   0.10969 276646.080000
   4383   4385     1   0.10969 276646.080000
   4386   4390     1   0.10969 276646.080000
   4387   4389     1   0.10969 276646.080000
   4388   4391     1   0.10961 277566.560000
   4393   4399     1   0.09730 310787.520000
   4394   4397     1   0.09730 310787.520000
   4395   4398     1   0.09730 310787.520000
   4396   4400     1   0.10969 276646.080000
   4396   4401     1   0.10969 276646.080000
   4402   4403     1   0.09730 310787.520000
   4405   4407     1   0.10969 276646.080000
   4406   4408     1   0.10969 276646.080000
   4409   4413     1   0.10969 276646.080000
   4410   4412     1   0.10969 276646.080000
   4411   4414     1   0.10961 277566.560000
   4416   4422     1   0.09730 310787.520000
   4417   4420     1   0.09730 310787.520000
   4418   4421     1   0.09730 310787.520000
   4419   4423     1   0.10969 276646.080000
   4419   4424     1   0.10969 276646.080000
   4425   4426     1   0.09730 310787.520000
   4428   4430     1   0.10969 276646.080000
   4429   4431     1   0.10969 276646.080000
   4432   4436     1   0.10969 276646.080000
   4433   4435     1   0.10969 276646.080000
   4434   4437     1   0.10961 277566.560000
   4439   4445     1   0.09730 310787.520000
   4440   4443     1   0.09730 310787.520000
   4441   4444     1   0.09730 310787.520000
   4442   4446     1   0.10969 276646.080000
   4442   4447     1   0.10969 276646.080000
   4448   4449     1   0.09730 310787.520000
   4451   4453     1   0.10969 276646.080000
   4452   4454     1   0.10969 276646.080000
   4455   4459     1   0.10969 276646.080000
   4456   4458     1   0.10969 276646.080000
   4457   4460     1   0.10961 277566.560000
   4462   4468     1   0.09730 310787.520000
   4463   4466     1   0.09730 310787.520000
   4464   4467     1   0.09730 310787.520000
   4465   4469     1   0.10969 276646.080000
   4465   4470     1   0.10969 276646.080000
   4471   4472     1   0.09730 310787.520000
   4474   4476     1   0.10969 276646.080000
   4475   4477     1   0.10969 276646.080000
   4478   4482     1   0.10969 276646.080000
   4479   4481     1   0.10969 276646.080000
   4480   4483     1   0.10961 277566.560000
   4485   4491     1   0.09730 310787.520000
   4486   4489     1   0.09730 310787.520000
   4487   4490     1   0.09730 310787.520000
   4488   4492     1   0.10969 276646.080000
   4488   4493     1   0.10969 276646.080000
   4494   4495     1   0.09730 310787.520000
   4497   4499     1   0.10969 276646.080000
   4498   4500     1   0.10969 276646.080000
   4501   4505     1   0.10969 276646.080000
   4502   4504     1   0.10969 276646.080000
   4503   4506     1   0.10961 277566.560000
   4508   4514     1   0.09730 310787.520000
   4509   4512     1   0.09730 310787.520000
   4510   4513     1   0.09730 310787.520000
   4511   4515     1   0.10969 276646.080000
   4511   4516     1   0.10969 276646.080000
   4517   4518     1   0.09730 310787.520000
   4520   4522     1   0.10969 276646.080000
   4521   4523     1   0.10969 276646.080000
   4524   4528     1   0.10969 276646.080000
   4525   4527     1   0.10969 276646.080000
   4526   4529     1   0.10961 277566.560000
   4531   4537     1   0.09730 310787.520000
   4532   4535     1   0.09730 310787.520000
   4533   4536     1   0.09730 310787.520000
   4534   4538     1   0.10969 276646.080000
   4534   4539     1   0.10969 276646.080000
   4540   4541     1   0.09730 310787.520000
   4543   4545     1   0.10969 276646.080000
   4544   4546     1   0.10969 276646.080000
   4547   4551     1   0.10969 276646.080000
   4548   4550     1   0.10969 276646.080000
   4549   4552     1   0.10961 277566.560000
   4554   4560     1   0.09730 310787.520000
   4555   4558     1   0.09730 310787.520000
   4556   4559     1   0.09730 310787.520000
   4557   4561     1   0.10969 276646.080000
   4557   4562     1   0.10969 276646.080000
   4563   4564     1   0.09730 310787.520000
   4566   4568     1   0.10969 276646.080000
   4567   4569     1   0.10969 276646.080000
   4570   4574     1   0.10969 276646.080000
   4571   4573     1   0.10969 276646.080000
   4572   4575     1   0.10961 277566.560000
   4577   4583     1   0.09730 310787.520000
   4578   4581     1   0.09730 310787.520000
   4579   4582     1   0.09730 310787.520000
   4580   4584     1   0.10969 276646.080000
   4580   4585     1   0.10969 276646.080000
   4586   4587     1   0.09730 310787.520000
   4589   4591     1   0.10969 276646.080000
   4590   4592     1   0.10969 276646.080000
   4593   4597     1   0.10969 276646.080000
   4594   4596     1   0.10969 276646.080000
   4595   4598     1   0.10961 277566.560000
   4600   4606     1   0.09730 310787.520000
   4601   4604     1   0.09730 310787.520000
   4602   4605     1   0.09730 310787.520000
   4603   4607     1   0.10969 276646.080000
   4603   4608     1   0.10969 276646.080000
   4609   4610     1   0.09730 310787.520000
   4612   4614     1   0.10969 276646.080000
   4613   4615     1   0.10969 276646.080000
   4616   4620     1   0.10969 276646.080000
   4617   4619     1   0.10969 276646.080000
   4618   4621     1   0.10961 277566.560000
   4623   4629     1   0.09730 310787.520000
   4624   4627     1   0.09730 310787.520000
   4625   4628     1   0.09730 310787.520000
   4626   4630     1   0.10969 276646.080000
   4626   4631     1   0.10969 276646.080000
   4632   4633     1   0.09730 310787.520000
   4635   4637     1   0.10969 276646.080000
   4636   4638     1   0.10969 276646.080000
   4639   4643     1   0.10969 276646.080000
   4640   4642     1   0.10969 276646.080000
   4641   4644     1   0.10961 277566.560000
   4646   4652     1   0.09730 310787.520000
   4647   4650     1   0.09730 310787.520000
   4648   4651     1   0.09730 310787.520000
   4649   4653     1   0.10969 276646.080000
   4649   4654     1   0.10969 276646.080000
   4655   4656     1   0.09730 310787.520000
   4658   4660     1   0.10969 276646.080000
   4659   4661     1   0.10969 276646.080000
   4662   4666     1   0.10969 276646.080000
   4663   4665     1   0.10969 276646.080000
   4664   4667     1   0.10961 277566.560000
   4669   4675     1   0.09730 310787.520000
   4670   4673     1   0.09730 310787.520000
   4671   4674     1   0.09730 310787.520000
   4672   4676     1   0.10969 276646.080000
   4672   4677     1   0.10969 276646.080000
   4678   4679     1   0.09730 310787.520000
   4681   4683     1   0.10969 276646.080000
   4682   4684     1   0.10969 276646.080000
   4685   4689     1   0.10969 276646.080000
   4686   4688     1   0.10969 276646.080000
   4687   4690     1   0.10961 277566.560000
   4692   4698     1   0.09730 310787.520000
   4693   4696     1   0.09730 310787.520000
   4694   4697     1   0.09730 310787.520000
   4695   4699     1   0.10969 276646.080000
   4695   4700     1   0.10969 276646.080000
   4701   4702     1   0.09730 310787.520000
   4704   4706     1   0.10969 276646.080000
   4705   4707     1   0.10969 276646.080000
   4708   4712     1   0.10969 276646.080000
   4709   4711     1   0.10969 276646.080000
   4710   4713     1   0.10961 277566.560000
   4715   4721     1   0.09730 310787.520000
   4716   4719     1   0.09730 310787.520000
   4717   4720     1   0.09730 310787.520000
   4718   4722     1   0.10969 276646.080000
   4718   4723     1   0.10969 276646.080000
   4724   4725     1   0.09730 310787.520000
   4727   4729     1   0.10969 276646.080000
   4728   4730     1   0.10969 276646.080000
   4731   4735     1   0.10969 276646.080000
   4732   4734     1   0.10969 276646.080000
   4733   4736     1   0.10961 277566.560000
   4738   4744     1   0.09730 310787.520000
   4739   4742     1   0.09730 310787.520000
   4740   4743     1   0.09730 310787.520000
   4741   4745     1   0.10969 276646.080000
   4741   4746     1   0.10969 276646.080000
   4747   4748     1   0.09730 310787.520000
   4750   4752     1   0.10969 276646.080000
   4751   4753     1   0.10969 276646.080000
   4754   4758     1   0.10969 276646.080000
   4755   4757     1   0.10969 276646.080000
   4756   4759     1   0.10961 277566.560000
   4761   4767     1   0.09730 310787.520000
   4762   4765     1   0.09730 310787.520000
   4763   4766     1   0.09730 310787.520000
   4764   4768     1   0.10969 276646.080000
   4764   4769     1   0.10969 276646.080000
   4770   4771     1   0.09730 310787.520000
   4773   4775     1   0.10969 276646.080000
   4774   4776     1   0.10969 276646.080000
   4777   4781     1   0.10969 276646.080000
   4778   4780     1   0.10969 276646.080000
   4779   4782     1   0.10961 277566.560000
   4784   4790     1   0.09730 310787.520000
   4785   4788     1   0.09730 310787.520000
   4786   4789     1   0.09730 310787.520000
   4787   4791     1   0.10969 276646.080000
   4787   4792     1   0.10969 276646.080000
   4793   4794     1   0.09730 310787.520000
   4796   4798     1   0.10969 276646.080000
   4797   4799     1   0.10969 276646.080000
   4800   4804     1   0.10969 276646.080000
   4801   4803     1   0.10969 276646.080000
   4802   4805     1   0.10961 277566.560000
   4807   4813     1   0.09730 310787.520000
   4808   4811     1   0.09730 310787.520000
   4809   4812     1   0.09730 310787.520000
   4810   4814     1   0.10969 276646.080000
   4810   4815     1   0.10969 276646.080000
   4816   4817     1   0.09730 310787.520000
   4819   4821     1   0.10969 276646.080000
   4820   4822     1   0.10969 276646.080000
   4823   4827     1   0.10969 276646.080000
   4824   4826     1   0.10969 276646.080000
   4825   4828     1   0.10961 277566.560000
   4830   4836     1   0.09730 310787.520000
   4831   4834     1   0.09730 310787.520000
   4832   4835     1   0.09730 310787.520000
   4833   4837     1   0.10969 276646.080000
   4833   4838     1   0.10969 276646.080000
   4839   4840     1   0.09730 310787.520000
   4842   4844     1   0.10969 276646.080000
   4843   4845     1   0.10969 276646.080000
   4846   4850     1   0.10969 276646.080000
   4847   4849     1   0.10969 276646.080000
   4848   4851     1   0.10961 277566.560000
   4853   4859     1   0.09730 310787.520000
   4854   4857     1   0.09730 310787.520000
   4855   4858     1   0.09730 310787.520000
   4856   4860     1   0.10969 276646.080000
   4856   4861     1   0.10969 276646.080000
   4862   4863     1   0.09730 310787.520000
   4865   4867     1   0.10969 276646.080000
   4866   4868     1   0.10969 276646.080000
   4869   4873     1   0.10969 276646.080000
   4870   4872     1   0.10969 276646.080000
   4871   4874     1   0.10961 277566.560000
   4876   4882     1   0.09730 310787.520000
   4877   4880     1   0.09730 310787.520000
   4878   4881     1   0.09730 310787.520000
   4879   4883     1   0.10969 276646.080000
   4879   4884     1   0.10969 276646.080000
   4885   4886     1   0.09730 310787.520000
   4888   4890     1   0.10969 276646.080000
   4889   4891     1   0.10969 276646.080000
   4892   4896     1   0.10969 276646.080000
   4893   4895     1   0.10969 276646.080000
   4894   4897     1   0.10961 277566.560000
   4899   4905     1   0.09730 310787.520000
   4900   4903     1   0.09730 310787.520000
   4901   4904     1   0.09730 310787.520000
   4902   4906     1   0.10969 276646.080000
   4902   4907     1   0.10969 276646.080000
   4908   4909     1   0.09730 310787.520000
   4911   4913     1   0.10969 276646.080000
   4912   4914     1   0.10969 276646.080000
   4915   4919     1   0.10969 276646.080000
   4916   4918     1   0.10969 276646.080000
   4917   4920     1   0.10961 277566.560000
   4922   4928     1   0.09730 310787.520000
   4923   4926     1   0.09730 310787.520000
   4924   4927     1   0.09730 310787.520000
   4925   4929     1   0.10969 276646.080000
   4925   4930     1   0.10969 276646.080000
   4931   4932     1   0.09730 310787.520000

[ pairs ]
;    ai     aj funct         c0         c1         c2         c3
      1     26     1
      1     20     1
      1     23     1
      2     17     1
      2     11     1
      2    115     1
      5     14     1
      5     11     1
      5     57     1
      8     14     1
      8     17     1
      8     86     1
     11     77     1
     14    106     1
     17     48     1
     20     39     1
     23     68     1
     26     97     1
     29     54     1
     29     51     1
     29     48     1
     30     45     1
     30     39     1
     30    173     1
     33     42     1
     33     39     1
     33    144     1
     36     42     1
     36     45     1
     36     57     1
     42    164     1
     45    135     1
     51    126     1
     54    155     1
     58     83     1
     58     80     1
     58     77     1
     59     74     1
     59     68     1
     59    231     1
     62     71     1
     62     68     1
     62    202     1
     65     71     1
     65     74     1
     65     86     1
     71    222     1
     74    193     1
     80    184     1
     83    213     1
     87    112     1
     87    109     1
     87    106     1
     88    103     1
     88     97     1
     88    289     1
     91    100     1
     91     97     1
     91    260     1
     94    100     1
     94    103     1
     94    115     1
    100    280     1
    103    251     1
    109    242     1
    112    271     1
    116    141     1
    116    138     1
    116    135     1
    117    132     1
    117    126     1
    117    347     1
    120    129     1
    120    126     1
    120    318     1
    123    129     1
    123    132     1
    123    144     1
    129    338     1
    132    309     1
    138    300     1
    141    329     1
    145    170     1
    145    167     1
    145    164     1
    146    161     1
    146    155     1
    146    405     1
    149    158     1
    149    155     1
    149    376     1
    152    158     1
    152    161     1
    152    173     1
    158    396     1
    161    367     1
    167    358     1
    170    387     1
    174    199     1
    174    196     1
    174    193     1
    175    190     1
    175    184     1
    175    463     1
    178    187     1
    178    184     1
    178    434     1
    181    187     1
    181    190     1
    181    202     1
    187    454     1
    190    425     1
    196    416     1
    199    445     1
    203    228     1
    203    225     1
    203    222     1
    204    219     1
    204    213     1
    204    521     1
    207    216     1
    207    213     1
    207    492     1
    210    216     1
    210    219     1
    210    231     1
    216    512     1
    219    483     1
    225    474     1
    228    503     1
    232    257     1
    232    254     1
    232    251     1
    233    248     1
    233    242     1
    233    579     1
    236    245     1
    236    242     1
    236    550     1
    239    245     1
    239    248     1
    239    260     1
    245    570     1
    248    541     1
    254    532     1
    257    561     1
    261    286     1
    261    283     1
    261    280     1
    262    277     1
    262    271     1
    262    637     1
    265    274     1
    265    271     1
    265    608     1
    268    274     1
    268    277     1
    268    289     1
    274    628     1
    277    599     1
    283    590     1
    286    619     1
    290    315     1
    290    312     1
    290    309     1
    291    306     1
    291    300     1
    291    695     1
    294    303     1
    294    300     1
    294    666     1
    297    303     1
    297    306     1
    297    318     1
    303    686     1
    306    657     1
    312    648     1
    315    677     1
    319    344     1
    319    341     1
    319    338     1
    320    335     1
    320    329     1
    320    753     1
    323    332     1
    323    329     1
    323    724     1
    326    332     1
    326    335     1
    326    347     1
    332    744     1
    335    715     1
    341    706     1
    344    735     1
    348    373     1
    348    370     1
    348    367     1
    349    364     1
    349    358     1
    349    811     1
    352    361     1
    352    358     1
    352    782     1
    355    361     1
    355    364     1
    355    376     1
    361    802     1
    364    773     1
    370    764     1
    373    793     1
    377    402     1
    377    399     1
    377    396     1
    378    393     1
    378    387     1
    378    869     1
    381    390     1
    381    387     1
    381    840     1
    384    390     1
    384    393     1
    384    405     1
    390    860     1
    393    831     1
    399    822     1
    402    851     1
    406    431     1
    406    428     1
    406    425     1
    407    422     1
    407    416     1
    407    927     1
    410    419     1
    410    416     1
    410    898     1
    413    419     1
    413    422     1
    413    434     1
    419    918     1
    422    889     1
    428    880     1
    431    909     1
    435    460     1
    435    457     1
    435    454     1
    436    451     1
    436    445     1
    436    985     1
    439    448     1
    439    445     1
    439    956     1
    442    448     1
    442    451     1
    442    463     1
    448    976     1
    451    947     1
    457    938     1
    460    967     1
    464    489     1
    464    486     1
    464    483     1
    465    480     1
    465    474     1
    465   1043     1
    468    477     1
    468    474     1
    468   1014     1
    471    477     1
    471    480     1
    471    492     1
    477   1034     1
    480   1005     1
    486    996     1
    489   1025     1
    493    518     1
    493    515     1
    493    512     1
    494    509     1
    494    503     1
    494   1101     1
    497    506     1
    497    503     1
    497   1072     1
    500    506     1
    500    509     1
    500    521     1
    506   1092     1
    509   1063     1
    515   1054     1
    518   1083     1
    522    547     1
    522    544     1
    522    541     1
    523    538     1
    523    532     1
    523   1159     1
    526    535     1
    526    532     1
    526   1130     1
    529    535     1
    529    538     1
    529    550     1
    535   1150     1
    538   1121     1
    544   1112     1
    547   1141     1
    551    576     1
    551    573     1
    551    570     1
    552    567     1
    552    561     1
    552   1217     1
    555    564     1
    555    561     1
    555   1188     1
    558    564     1
    558    567     1
    558    579     1
    564   1208     1
    567   1179     1
    573   1170     1
    576   1199     1
    580    605     1
    580    602     1
    580    599     1
    581    596     1
    581    590     1
    581   1275     1
    584    593     1
    584    590     1
    584   1246     1
    587    593     1
    587    596     1
    587    608     1
    593   1266     1
    596   1237     1
    602   1228     1
    605   1257     1
    609    634     1
    609    631     1
    609    628     1
    610    625     1
    610    619     1
    610   1333     1
    613    622     1
    613    619     1
    613   1304     1
    616    622     1
    616    625     1
    616    637     1
    622   1324     1
    625   1295     1
    631   1286     1
    634   1315     1
    638    663     1
    638    660     1
    638    657     1
    639    654     1
    639    648     1
    639   1391     1
    642    651     1
    642    648     1
    642   1362     1
    645    651     1
    645    654     1
    645    666     1
    651   1382     1
    654   1353     1
    660   1344     1
    663   1373     1
    667    692     1
    667    689     1
    667    686     1
    668    683     1
    668    677     1
    668   1449     1
    671    680     1
    671    677     1
    671   1420     1
    674    680     1
    674    683     1
    674    695     1
    680   1440     1
    683   1411     1
    689   1402     1
    692   1431     1
    696    721     1
    696    718     1
    696    715     1
    697    712     1
    697    706     1
    697   1507     1
    700    709     1
    700    706     1
    700   1478     1
    703    709     1
    703    712     1
    703    724     1
    709   1498     1
    712   1469     1
    718   1460     1
    721   1489     1
    725    750     1
    725    747     1
    725    744     1
    726    741     1
    726    735     1
    726   1565     1
    729    738     1
    729    735     1
    729   1536     1
    732    738     1
    732    741     1
    732    753     1
    738   1556     1
    741   1527     1
    747   1518     1
    750   1547     1
    754    779     1
    754    776     1
    754    773     1
    755    770     1
    755    764     1
    755   1623     1
    758    767     1
    758    764     1
    758   1594     1
    761    767     1
    761    770     1
    761    782     1
    767   1614     1
    770   1585     1
    776   1576     1
    779   1605     1
    783    808     1
    783    805     1
    783    802     1
    784    799     1
    784    793     1
    784   1681     1
    787    796     1
    787    793     1
    787   1652     1
    790    796     1
    790    799     1
    790    811     1
    796   1672     1
    799   1643     1
    805   1634     1
    808   1663     1
    812    837     1
    812    834     1
    812    831     1
    813    828     1
    813    822     1
    813   1739     1
    816    825     1
    816    822     1
    816   1710     1
    819    825     1
    819    828     1
    819    840     1
    825   1730     1
    828   1701     1
    834   1692     1
    837   1721     1
    841    866     1
    841    863     1
    841    860     1
    842    857     1
    842    851     1
    842   1797     1
    845    854     1
    845    851     1
    845   1768     1
    848    854     1
    848    857     1
    848    869     1
    854   1788     1
    857   1759     1
    863   1750     1
    866   1779     1
    870    895     1
    870    892     1
    870    889     1
    871    886     1
    871    880     1
    871   1855     1
    874    883     1
    874    880     1
    874   1826     1
    877    883     1
    877    886     1
    877    898     1
    883   1846     1
    886   1817     1
    892   1808     1
    895   1837     1
    899    924     1
    899    921     1
    899    918     1
    900    915     1
    900    909     1
    900   1913     1
    903    912     1
    903    909     1
    903   1884     1
    906    912     1
    906    915     1
    906    927     1
    912   1904     1
    915   1875     1
    921   1866     1
    924   1895     1
    928    953     1
    928    950     1
    928    947     1
    929    944     1
    929    938     1
    929   1971     1
    932    941     1
    932    938     1
    932   1942     1
    935    941     1
    935    944     1
    935    956     1
    941   1962     1
    944   1933     1
    950   1924     1
    953   1953     1
    957    982     1
    957    979     1
    957    976     1
    958    973     1
    958    967     1
    958   2029     1
    961    970     1
    961    967     1
    961   2000     1
    964    970     1
    964    973     1
    964    985     1
    970   2020     1
    973   1991     1
    979   1982     1
    982   2011     1
    986   1011     1
    986   1008     1
    986   1005     1
    987   1002     1
    987    996     1
    987   2087     1
    990    999     1
    990    996     1
    990   2058     1
    993    999     1
    993   1002     1
    993   1014     1
    999   2078     1
   1002   2049     1
   1008   2040     1
   1011   2069     1
   1015   1040     1
   1015   1037     1
   1015   1034     1
   1016   1031     1
   1016   1025     1
   1016   2145     1
   1019   1028     1
   1019   1025     1
   1019   2116     1
   1022   1028     1
   1022   1031     1
   1022   1043     1
   1028   2136     1
   1031   2107     1
   1037   2098     1
   1040   2127     1
   1044   1069     1
   1044   1066     1
   1044   1063     1
   1045   1060     1
   1045   1054     1
   1045   2203     1
   1048   1057     1
   1048   1054     1
   1048   2174     1
   1051   1057     1
   1051   1060     1
   1051   1072     1
   1057   2194     1
   1060   2165     1
   1066   2156     1
   1069   2185     1
   1073   1098     1
   1073   1095     1
   1073   1092     1
   1074   1089     1
   1074   1083     1
   1074   2261     1
   1077   1086     1
   1077   1083     1
   1077   2232     1
   1080   1086     1
   1080   1089     1
   1080   1101     1
   1086   2252     1
   1089   2223     1
   1095   2214     1
   1098   2243     1
   1102   1127     1
   1102   1124     1
   1102   1121     1
   1103   1118     1
   1103   1112     1
   1103   2319     1
   1106   1115     1
   1106   1112     1
   1106   2290     1
   1109   1115     1
   1109   1118     1
   1109   1130     1
   1115   2310     1
   1118   2281     1
   1124   2272     1
   1127   2301     1
   1131   1156     1
   1131   1153     1
   1131   1150     1
   1132   1147     1
   1132   1141     1
   1132   2377     1
   1135   1144     1
   1135   1141     1
   1135   2348     1
   1138   1144     1
   1138   1147     1
   1138   1159     1
   1144   2368     1
   1147   2339     1
   1153   2330     1
   1156   2359     1
   1160   1185     1
   1160   1182     1
   1160   1179     1
   1161   1176     1
   1161   1170     1
   1161   2435     1
   1164   1173     1
   1164   1170     1
   1164   2406     1
   1167   1173     1
   1167   1176     1
   1167   1188     1
   1173   2426     1
   1176   2397     1
   1182   2388     1
   1185   2417     1
   1189   1214     1
   1189   1211     1
   1189   1208     1
   1190   1205     1
   1190   1199     1
   1190   2493     1
   1193   1202     1
   1193   1199     1
   1193   2464     1
   1196   1202     1
   1196   1205     1
   1196   1217     1
   1202   2484     1
   1205   2455     1
   1211   2446     1
   1214   2475     1
   1218   1243     1
   1218   1240     1
   1218   1237     1
   1219   1234     1
   1219   1228     1
   1219   2551     1
   1222   1231     1
   1222   1228     1
   1222   2522     1
   1225   1231     1
   1225   1234     1
   1225   1246     1
   1231   2542     1
   1234   2513     1
   1240   2504     1
   1243   2533     1
   1247   1272     1
   1247   1269     1
   1247   1266     1
   1248   1263     1
   1248   1257     1
   1248   2609     1
   1251   1260     1
   1251   1257     1
   1251   2580     1
   1254   1260     1
   1254   1263     1
   1254   1275     1
   1260   2600     1
   1263   2571     1
   1269   2562     1
   1272   2591     1
   1276   1301     1
   1276   1298     1
   1276   1295     1
   1277   1292     1
   1277   1286     1
   1277   2667     1
   1280   1289     1
   1280   1286     1
   1280   2638     1
   1283   1289     1
   1283   1292     1
   1283   1304     1
   1289   2658     1
   1292   2629     1
   1298   2620     1
   1301   2649     1
   1305   1330     1
   1305   1327     1
   1305   1324     1
   1306   1321     1
   1306   1315     1
   1306   2725     1
   1309   1318     1
   1309   1315     1
   1309   2696     1
   1312   1318     1
   1312   1321     1
   1312   1333     1
   1318   2716     1
   1321   2687     1
   1327   2678     1
   1330   2707     1
   1334   1359     1
   1334   1356     1
   1334   1353     1
   1335   1350     1
   1335   1344     1
   1335   2759     1
   1338   1347     1
   1338   1344     1
   1338   2736     1
   1341   1347     1
   1341   1350     1
   1341   1362     1
   1347   2755     1
   1350   2732     1
   1356   2731     1
   1356   2748     1
   1359   2771     1
   1359   2754     1
   1363   1388     1
   1363   1385     1
   1363   1382     1
   1364   1379     1
   1364   1373     1
   1364   2805     1
   1367   1376     1
   1367   1373     1
   1367   2782     1
   1370   1376     1
   1370   1379     1
   1370   1391     1
   1376   2801     1
   1379   2778     1
   1385   2777     1
   1385   2794     1
   1388   2817     1
   1388   2800     1
   1392   1417     1
   1392   1414     1
   1392   1411     1
   1393   1408     1
   1393   1402     1
   1393   2851     1
   1396   1405     1
   1396   1402     1
   1396   2828     1
   1399   1405     1
   1399   1408     1
   1399   1420     1
   1405   2847     1
   1408   2824     1
   1414   2823     1
   1414   2840     1
   1417   2863     1
   1417   2846     1
   1421   1446     1
   1421   1443     1
   1421   1440     1
   1422   1437     1
   1422   1431     1
   1422   2897     1
   1425   1434     1
   1425   1431     1
   1425   2874     1
   1428   1434     1
   1428   1437     1
   1428   1449     1
   1434   2893     1
   1437   2870     1
   1443   2869     1
   1443   2886     1
   1446   2909     1
   1446   2892     1
   1450   1475     1
   1450   1472     1
   1450   1469     1
   1451   1466     1
   1451   1460     1
   1451   2943     1
   1454   1463     1
   1454   1460     1
   1454   2920     1
   1457   1463     1
   1457   1466     1
   1457   1478     1
   1463   2939     1
   1466   2916     1
   1472   2915     1
   1472   2932     1
   1475   2955     1
   1475   2938     1
   1479   1504     1
   1479   1501     1
   1479   1498     1
   1480   1495     1
   1480   1489     1
   1480   2989     1
   1483   1492     1
   1483   1489     1
   1483   2966     1
   1486   1492     1
   1486   1495     1
   1486   1507     1
   1492   2985     1
   1495   2962     1
   1501   2961     1
   1501   2978     1
   1504   3001     1
   1504   2984     1
   1508   1533     1
   1508   1530     1
   1508   1527     1
   1509   1524     1
   1509   1518     1
   1509   3035     1
   1512   1521     1
   1512   1518     1
   1512   3012     1
   1515   1521     1
   1515   1524     1
   1515   1536     1
   1521   3031     1
   1524   3008     1
   1530   3007     1
   1530   3024     1
   1533   3047     1
   1533   3030     1
   1537   1562     1
   1537   1559     1
   1537   1556     1
   1538   1553     1
   1538   1547     1
   1538   3081     1
   1541   1550     1
   1541   1547     1
   1541   3058     1
   1544   1550     1
   1544   1553     1
   1544   1565     1
   1550   3077     1
   1553   3054     1
   1559   3053     1
   1559   3070     1
   1562   3093     1
   1562   3076     1
   1566   1591     1
   1566   1588     1
   1566   1585     1
   1567   1582     1
   1567   1576     1
   1567   3127     1
   1570   1579     1
   1570   1576     1
   1570   3104     1
   1573   1579     1
   1573   1582     1
   1573   1594     1
   1579   3123     1
   1582   3100     1
   1588   3099     1
   1588   3116     1
   1591   3139     1
   1591   3122     1
   1595   1620     1
   1595   1617     1
   1595   1614     1
   1596   1611     1
   1596   1605     1
   1596   3173     1
   1599   1608     1
   1599   1605     1
   1599   3150     1
   1602   1608     1
   1602   1611     1
   1602   1623     1
   1608   3169     1
   1611   3146     1
   1617   3145     1
   1617   3162     1
   1620   3185     1
   1620   3168     1
   1624   1649     1
   1624   1646     1
   1624   1643     1
   1625   1640     1
   1625   1634     1
   1625   3219     1
   1628   1637     1
   1628   1634     1
   1628   3196     1
   1631   1637     1
   1631   1640     1
   1631   1652     1
   1637   3215     1
   1640   3192     1
   1646   3191     1
   1646   3208     1
   1649   3231     1
   1649   3214     1
   1653   1678     1
   1653   1675     1
   1653   1672     1
   1654   1669     1
   1654   1663     1
   1654   3265     1
   1657   1666     1
   1657   1663     1
   1657   3242     1
   1660   1666     1
   1660   1669     1
   1660   1681     1
   1666   3261     1
   1669   3238     1
   1675   3237     1
   1675   3254     1
   1678   3277     1
   1678   3260     1
   1682   1707     1
   1682   1704     1
   1682   1701     1
   1683   1698     1
   1683   1692     1
   1683   3311     1
   1686   1695     1
   1686   1692     1
   1686   3288     1
   1689   1695     1
   1689   1698     1
   1689   1710     1
   1695   3307     1
   1698   3284     1
   1704   3283     1
   1704   3300     1
   1707   3323     1
   1707   3306     1
   1711   1736     1
   1711   1733     1
   1711   1730     1
   1712   1727     1
   1712   1721     1
   1712   3357     1
   1715   1724     1
   1715   1721     1
   1715   3334     1
   1718   1724     1
   1718   1727     1
   1718   1739     1
   1724   3353     1
   1727   3330     1
   1733   3329     1
   1733   3346     1
   1736   3369     1
   1736   3352     1
   1740   1765     1
   1740   1762     1
   1740   1759     1
   1741   1756     1
   1741   1750     1
   1741   3403     1
   1744   1753     1
   1744   1750     1
   1744   3380     1
   1747   1753     1
   1747   1756     1
   1747   1768     1
   1753   3399     1
   1756   3376     1
   1762   3375     1
   1762   3392     1
   1765   3415     1
   1765   3398     1
   1769   1794     1
   1769   1791     1
   1769   1788     1
   1770   1785     1
   1770   1779     1
   1770   3449     1
   1773   1782     1
   1773   1779     1
   1773   3426     1
   1776   1782     1
   1776   1785     1
   1776   1797     1
   1782   3445     1
   1785   3422     1
   1791   3421     1
   1791   3438     1
   1794   3461     1
   1794   3444     1
   1798   1823     1
   1798   1820     1
   1798   1817     1
   1799   1814     1
   1799   1808     1
   1799   3495     1
   1802   1811     1
   1802   1808     1
   1802   3472     1
   1805   1811     1
   1805   1814     1
   1805   1826     1
   1811   3491     1
   1814   3468     1
   1820   3467     1
   1820   3484     1
   1823   3507     1
   1823   3490     1
   1827   1852     1
   1827   1849     1
   1827   1846     1
   1828   1843     1
   1828   1837     1
   1828   3541     1
   1831   1840     1
   1831   1837     1
   1831   3518     1
   1834   1840     1
   1834   1843     1
   1834   1855     1
   1840   3537     1
   1843   3514     1
   1849   3513     1
   1849   3530     1
   1852   3553     1
   1852   3536     1
   1856   1881     1
   1856   1878     1
   1856   1875     1
   1857   1872     1
   1857   1866     1
   1857   3587     1
   1860   1869     1
   1860   1866     1
   1860   3564     1
   1863   1869     1
   1863   1872     1
   1863   1884     1
   1869   3583     1
   1872   3560     1
   1878   3559     1
   1878   3576     1
   1881   3599     1
   1881   3582     1
   1885   1910     1
   1885   1907     1
   1885   1904     1
   1886   1901     1
   1886   1895     1
   1886   3633     1
   1889   1898     1
   1889   1895     1
   1889   3610     1
   1892   1898     1
   1892   1901     1
   1892   1913     1
   1898   3629     1
   1901   3606     1
   1907   3605     1
   1907   3622     1
   1910   3645     1
   1910   3628     1
   1914   1939     1
   1914   1936     1
   1914   1933     1
   1915   1930     1
   1915   1924     1
   1915   3679     1
   1918   1927     1
   1918   1924     1
   1918   3656     1
   1921   1927     1
   1921   1930     1
   1921   1942     1
   1927   3675     1
   1930   3652     1
   1936   3651     1
   1936   3668     1
   1939   3691     1
   1939   3674     1
   1943   1968     1
   1943   1965     1
   1943   1962     1
   1944   1959     1
   1944   1953     1
   1944   3725     1
   1947   1956     1
   1947   1953     1
   1947   3702     1
   1950   1956     1
   1950   1959     1
   1950   1971     1
   1956   3721     1
   1959   3698     1
   1965   3697     1
   1965   3714     1
   1968   3737     1
   1968   3720     1
   1972   1997     1
   1972   1994     1
   1972   1991     1
   1973   1988     1
   1973   1982     1
   1973   3771     1
   1976   1985     1
   1976   1982     1
   1976   3748     1
   1979   1985     1
   1979   1988     1
   1979   2000     1
   1985   3767     1
   1988   3744     1
   1994   3743     1
   1994   3760     1
   1997   3783     1
   1997   3766     1
   2001   2026     1
   2001   2023     1
   2001   2020     1
   2002   2017     1
   2002   2011     1
   2002   3817     1
   2005   2014     1
   2005   2011     1
   2005   3794     1
   2008   2014     1
   2008   2017     1
   2008   2029     1
   2014   3813     1
   2017   3790     1
   2023   3789     1
   2023   3806     1
   2026   3829     1
   2026   3812     1
   2030   2055     1
   2030   2052     1
   2030   2049     1
   2031   2046     1
   2031   2040     1
   2031   3863     1
   2034   2043     1
   2034   2040     1
   2034   3840     1
   2037   2043     1
   2037   2046     1
   2037   2058     1
   2043   3859     1
   2046   3836     1
   2052   3835     1
   2052   3852     1
   2055   3875     1
   2055   3858     1
   2059   2084     1
   2059   2081     1
   2059   2078     1
   2060   2075     1
   2060   2069     1
   2060   3909     1
   2063   2072     1
   2063   2069     1
   2063   3886     1
   2066   2072     1
   2066   2075     1
   2066   2087     1
   2072   3905     1
   2075   3882     1
   2081   3881     1
   2081   3898     1
   2084   3921     1
   2084   3904     1
   2088   2113     1
   2088   2110     1
   2088   2107     1
   2089   2104     1
   2089   2098     1
   2089   3955     1
   2092   2101     1
   2092   2098     1
   2092   3932     1
   2095   2101     1
   2095   2104     1
   2095   2116     1
   2101   3951     1
   2104   3928     1
   2110   3927     1
   2110   3944     1
   2113   3967     1
   2113   3950     1
   2117   2142     1
   2117   2139     1
   2117   2136     1
   2118   2133     1
   2118   2127     1
   2118   4001     1
   2121   2130     1
   2121   2127     1
   2121   3978     1
   2124   2130     1
   2124   2133     1
   2124   2145     1
   2130   3997     1
   2133   3974     1
   2139   3973     1
   2139   3990     1
   2142   4013     1
   2142   3996     1
   2146   2171     1
   2146   2168     1
   2146   2165     1
   2147   2162     1
   2147   2156     1
   2147   4047     1
   2150   2159     1
   2150   2156     1
   2150   4024     1
   2153   2159     1
   2153   2162     1
   2153   2174     1
   2159   4043     1
   2162   4020     1
   2168   4019     1
   2168   4036     1
   2171   4059     1
   2171   4042     1
   2175   2200     1
   2175   2197     1
   2175   2194     1
   2176   2191     1
   2176   2185     1
   2176   4093     1
   2179   2188     1
   2179   2185     1
   2179   4070     1
   2182   2188     1
   2182   2191     1
   2182   2203     1
   2188   4089     1
   2191   4066     1
   2197   4065     1
   2197   4082     1
   2200   4105     1
   2200   4088     1
   2204   2229     1
   2204   2226     1
   2204   2223     1
   2205   2220     1
   2205   2214     1
   2205   4139     1
   2208   2217     1
   2208   2214     1
   2208   4116     1
   2211   2217     1
   2211   2220     1
   2211   2232     1
   2217   4135     1
   2220   4112     1
   2226   4111     1
   2226   4128     1
   2229   4151     1
   2229   4134     1
   2233   2258     1
   2233   2255     1
   2233   2252     1
   2234   2249     1
   2234   2243     1
   2234   4185     1
   2237   2246     1
   2237   2243     1
   2237   4162     1
   2240   2246     1
   2240   2249     1
   2240   2261     1
   2246   4181     1
   2249   4158     1
   2255   4157     1
   2255   4174     1
   2258   4197     1
   2258   4180     1
   2262   2287     1
   2262   2284     1
   2262   2281     1
   2263   2278     1
   2263   2272     1
   2263   4231     1
   2266   2275     1
   2266   2272     1
   2266   4208     1
   2269   2275     1
   2269   2278     1
   2269   2290     1
   2275   4227     1
   2278   4204     1
   2284   4203     1
   2284   4220     1
   2287   4243     1
   2287   4226     1
   2291   2316     1
   2291   2313     1
   2291   2310     1
   2292   2307     1
   2292   2301     1
   2292   4277     1
   2295   2304     1
   2295   2301     1
   2295   4254     1
   2298   2304     1
   2298   2307     1
   2298   2319     1
   2304   4273     1
   2307   4250     1
   2313   4249     1
   2313   4266     1
   2316   4289     1
   2316   4272     1
   2320   2345     1
   2320   2342     1
   2320   2339     1
   2321   2336     1
   2321   2330     1
   2321   4323     1
   2324   2333     1
   2324   2330     1
   2324   4300     1
   2327   2333     1
   2327   2336     1
   2327   2348     1
   2333   4319     1
   2336   4296     1
   2342   4295     1
   2342   4312     1
   2345   4335     1
   2345   4318     1
   2349   2374     1
   2349   2371     1
   2349   2368     1
   2350   2365     1
   2350   2359     1
   2350   4369     1
   2353   2362     1
   2353   2359     1
   2353   4346     1
   2356   2362     1
   2356   2365     1
   2356   2377     1
   2362   4365     1
   2365   4342     1
   2371   4341     1
   2371   4358     1
   2374   4381     1
   2374   4364     1
   2378   2403     1
   2378   2400     1
   2378   2397     1
   2379   2394     1
   2379   2388     1
   2379   4415     1
   2382   2391     1
   2382   2388     1
   2382   4392     1
   2385   2391     1
   2385   2394     1
   2385   2406     1
   2391   4411     1
   2394   4388     1
   2400   4387     1
   2400   4404     1
   2403   4427     1
   2403   4410     1
   2407   2432     1
   2407   2429     1
   2407   2426     1
   2408   2423     1
   2408   2417     1
   2408   4461     1
   2411   2420     1
   2411   2417     1
   2411   4438     1
   2414   2420     1
   2414   2423     1
   2414   2435     1
   2420   4457     1
   2423   4434     1
   2429   4433     1
   2429   4450     1
   2432   4473     1
   2432   4456     1
   2436   2461     1
   2436   2458     1
   2436   2455     1
   2437   2452     1
   2437   2446     1
   2437   4507     1
   2440   2449     1
   2440   2446     1
   2440   4484     1
   2443   2449     1
   2443   2452     1
   2443   2464     1
   2449   4503     1
   2452   4480     1
   2458   4479     1
   2458   4496     1
   2461   4519     1
   2461   4502     1
   2465   2490     1
   2465   2487     1
   2465   2484     1
   2466   2481     1
   2466   2475     1
   2466   4553     1
   2469   2478     1
   2469   2475     1
   2469   4530     1
   2472   2478     1
   2472   2481     1
   2472   2493     1
   2478   4549     1
   2481   4526     1
   2487   4525     1
   2487   4542     1
   2490   4565     1
   2490   4548     1
   2494   2519     1
   2494   2516     1
   2494   2513     1
   2495   2510     1
   2495   2504     1
   2495   4599     1
   2498   2507     1
   2498   2504     1
   2498   4576     1
   2501   2507     1
   2501   2510     1
   2501   2522     1
   2507   4595     1
   2510   4572     1
   2516   4571     1
   2516   4588     1
   2519   4611     1
   2519   4594     1
   2523   2548     1
   2523   2545     1
   2523   2542     1
   2524   2539     1
   2524   2533     1
   2524   4645     1
   2527   2536     1
   2527   2533     1
   2527   4622     1
   2530   2536     1
   2530   2539     1
   2530   2551     1
   2536   4641     1
   2539   4618     1
   2545   4617     1
   2545   4634     1
   2548   4657     1
   2548   4640     1
   2552   2577     1
   2552   2574     1
   2552   2571     1
   2553   2568     1
   2553   2562     1
   2553   4691     1
   2556   2565     1
   2556   2562     1
   2556   4668     1
   2559   2565     1
   2559   2568     1
   2559   2580     1
   2565   4687     1
   2568   4664     1
   2574   4663     1
   2574   4680     1
   2577   4703     1
   2577   4686     1
   2581   2606     1
   2581   2603     1
   2581   2600     1
   2582   2597     1
   2582   2591     1
   2582   4737     1
   2585   2594     1
   2585   2591     1
   2585   4714     1
   2588   2594     1
   2588   2597     1
   2588   2609     1
   2594   4733     1
   2597   4710     1
   2603   4709     1
   2603   4726     1
   2606   4749     1
   2606   4732     1
   2610   2635     1
   2610   2632     1
   2610   2629     1
   2611   2626     1
   2611   2620     1
   2611   4783     1
   2614   2623     1
   2614   2620     1
   2614   4760     1
   2617   2623     1
   2617   2626     1
   2617   2638     1
   2623   4779     1
   2626   4756     1
   2632   4755     1
   2632   4772     1
   2635   4795     1
   2635   4778     1
   2639   2664     1
   2639   2661     1
   2639   2658     1
   2640   2655     1
   2640   2649     1
   2640   4829     1
   2643   2652     1
   2643   2649     1
   2643   4806     1
   2646   2652     1
   2646   2655     1
   2646   2667     1
   2652   4825     1
   2655   4802     1
   2661   4801     1
   2661   4818     1
   2664   4841     1
   2664   4824     1
   2668   2693     1
   2668   2690     1
   2668   2687     1
   2669   2684     1
   2669   2678     1
   2669   4875     1
   2672   2681     1
   2672   2678     1
   2672   4852     1
   2675   2681     1
   2675   2684     1
   2675   2696     1
   2681   4871     1
   2684   4848     1
   2690   4847     1
   2690   4864     1
   2693   4887     1
   2693   4870     1
   2697   2722     1
   2697   2719     1
   2697   2716     1
   2698   2713     1
   2698   2707     1
   2698   4921     1
   2701   2710     1
   2701   2707     1
   2701   4898     1
   2704   2710     1
   2704   2713     1
   2704   2725     1
   2710   4917     1
   2713   4894     1
   2719   4893     1
   2719   4910     1
   2722   4933     1
   2722   4916     1
   2726   2731     1
   2726   2738     1
   2726   2736     1
   2727   2746     1
   2727   2732     1
   2727   2737     1
   2730   2740     1
   2730   2748     1
   2730   2736     1
   2731   2739     1
   2732   2738     1
   2732   2740     1
   2736   2737     1
   2737   2738     1
   2737   2748     1
   2738   2739     1
   2739   2740     1
   2739   2748     1
   2746   2748     1
   2749   2754     1
   2749   2761     1
   2749   2759     1
   2750   2755     1
   2750   2760     1
   2750   2769     1
   2753   2759     1
   2753   2771     1
   2753   2763     1
   2754   2762     1
   2755   2763     1
   2755   2761     1
   2759   2760     1
   2760   2771     1
   2760   2761     1
   2761   2762     1
   2762   2763     1
   2762   2771     1
   2769   2771     1
   2772   2777     1
   2772   2784     1
   2772   2782     1
   2773   2792     1
   2773   2778     1
   2773   2783     1
   2776   2786     1
   2776   2794     1
   2776   2782     1
   2777   2785     1
   2778   2784     1
   2778   2786     1
   2782   2783     1
   2783   2784     1
   2783   2794     1
   2784   2785     1
   2785   2786     1
   2785   2794     1
   2792   2794     1
   2795   2800     1
   2795   2807     1
   2795   2805     1
   2796   2801     1
   2796   2806     1
   2796   2815     1
   2799   2805     1
   2799   2817     1
   2799   2809     1
   2800   2808     1
   2801   2809     1
   2801   2807     1
   2805   2806     1
   2806   2817     1
   2806   2807     1
   2807   2808     1
   2808   2809     1
   2808   2817     1
   2815   2817     1
   2818   2823     1
   2818   2830     1
   2818   2828     1
   2819   2838     1
   2819   2824     1
   2819   2829     1
   2822   2832     1
   2822   2840     1
   2822   2828     1
   2823   2831     1
   2824   2830     1
   2824   2832     1
   2828   2829     1
   2829   2830     1
   2829   2840     1
   2830   2831     1
   2831   2832     1
   2831   2840     1
   2838   2840     1
   2841   2846     1
   2841   2853     1
   2841   2851     1
   2842   2847     1
   2842   2852     1
   2842   2861     1
   2845   2851     1
   2845   2863     1
   2845   2855     1
   2846   2854     1
   2847   2855     1
   2847   2853     1
   2851   2852     1
   2852   2863     1
   2852   2853     1
   2853   2854     1
   2854   2855     1
   2854   2863     1
   2861   2863     1
   2864   2869     1
   2864   2876     1
   2864   2874     1
   2865   2884     1
   2865   2870     1
   2865   2875     1
   2868   2878     1
   2868   2886     1
   2868   2874     1
   2869   2877     1
   2870   2876     1
   2870   2878     1
   2874   2875     1
   2875   2876     1
   2875   2886     1
   2876   2877     1
   2877   2878     1
   2877   2886     1
   2884   2886     1
   2887   2892     1
   2887   2899     1
   2887   2897     1
   2888   2893     1
   2888   2898     1
   2888   2907     1
   2891   2897     1
   2891   2909     1
   2891   2901     1
   2892   2900     1
   2893   2901     1
   2893   2899     1
   2897   2898     1
   2898   2909     1
   2898   2899     1
   2899   2900     1
   2900   2901     1
   2900   2909     1
   2907   2909     1
   2910   2915     1
   2910   2922     1
   2910   2920     1
   2911   2930     1
   2911   2916     1
   2911   2921     1
   2914   2924     1
   2914   2932     1
   2914   2920     1
   2915   2923     1
   2916   2922     1
   2916   2924     1
   2920   2921     1
   2921   2922     1
   2921   2932     1
   2922   2923     1
   2923   2924     1
   2923   2932     1
   2930   2932     1
   2933   2938     1
   2933   2945     1
   2933   2943     1
   2934   2939     1
   2934   2944     1
   2934   2953     1
   2937   2943     1
   2937   2955     1
   2937   2947     1
   2938   2946     1
   2939   2947     1
   2939   2945     1
   2943   2944     1
   2944   2955     1
   2944   2945     1
   2945   2946     1
   2946   2947     1
   2946   2955     1
   2953   2955     1
   2956   2961     1
   2956   2968     1
   2956   2966     1
   2957   2976     1
   2957   2962     1
   2957   2967     1
   2960   2970     1
   2960   2978     1
   2960   2966     1
   2961   2969     1
   2962   2968     1
   2962   2970     1
   2966   2967     1
   2967   2968     1
   2967   2978     1
   2968   2969     1
   2969   2970     1
   2969   2978     1
   2976   2978     1
   2979   2984     1
   2979   2991     1
   2979   2989     1
   2980   2985     1
   2980   2990     1
   2980   2999     1
   2983   2989     1
   2983   3001     1
   2983   2993     1
   2984   2992     1
   2985   2993     1
   2985   2991     1
   2989   2990     1
   2990   3001     1
   2990   2991     1
   2991   2992     1
   2992   2993     1
   2992   3001     1
   2999   3001     1
   3002   3007     1
   3002   3014     1
   3002   3012     1
   3003   3022     1
   3003   3008     1
   3003   3013     1
   3006   3016     1
   3006   3024     1
   3006   3012     1
   3007   3015     1
   3008   3014     1
   3008   3016     1
   3012   3013     1
   3013   3014     1
   3013   3024     1
   3014   3015     1
   3015   3016     1
   3015   3024     1
   3022   3024     1
   3025   3030     1
   3025   3037     1
   3025   3035     1
   3026   3031     1
   3026   3036     1
   3026   3045     1
   3029   3035     1
   3029   3047     1
   3029   3039     1
   3030   3038     1
   3031   3039     1
   3031   3037     1
   3035   3036     1
   3036   3047     1
   3036   3037     1
   3037   3038     1
   3038   3039     1
   3038   3047     1
   3045   3047     1
   3048   3053     1
   3048   3060     1
   3048   3058     1
   3049   3068     1
   3049   3054     1
   3049   3059     1
   3052   3062     1
   3052   3070     1
   3052   3058     1
   3053   3061     1
   3054   3060     1
   3054   3062     1
   3058   3059     1
   3059   3060     1
   3059   3070     1
   3060   3061     1
   3061   3062     1
   3061   3070     1
   3068   3070     1
   3071   3076     1
   3071   3083     1
   3071   3081     1
   3072   3077     1
   3072   3082     1
   3072   3091     1
   3075   3081     1
   3075   3093     1
   3075   3085     1
   3076   3084     1
   3077   3085     1
   3077   3083     1
   3081   3082     1
   3082   3093     1
   3082   3083     1
   3083   3084     1
   3084   3085     1
   3084   3093     1
   3091   3093     1
   3094   3099     1
   3094   3106     1
   3094   3104     1
   3095   3114     1
   3095   3100     1
   3095   3105     1
   3098   3108     1
   3098   3116     1
   3098   3104     1
   3099   3107     1
   3100   3106     1
   3100   3108     1
   3104   3105     1
   3105   3106     1
   3105   3116     1
   3106   3107     1
   3107   3108     1
   3107   3116     1
   3114   3116     1
   3117   3122     1
   3117   3129     1
   3117   3127     1
   3118   3123     1
   3118   3128     1
   3118   3137     1
   3121   3127     1
   3121   3139     1
   3121   3131     1
   3122   3130     1
   3123   3131     1
   3123   3129     1
   3127   3128     1
   3128   3139     1
   3128   3129     1
   3129   3130     1
   3130   3131     1
   3130   3139     1
   3137   3139     1
   3140   3145     1
   3140   3152     1
   3140   3150     1
   3141   3160     1
   3141   3146     1
   3141   3151     1
   3144   3154     1
   3144   3162     1
   3144   3150     1
   3145   3153     1
   3146   3152     1
   3146   3154     1
   3150   3151     1
   3151   3152     1
   3151   3162     1
   3152   3153     1
   3153   3154     1
   3153   3162     1
   3160   3162     1
   3163   3168     1
   3163   3175     1
   3163   3173     1
   3164   3169     1
   3164   3174     1
   3164   3183     1
   3167   3173     1
   3167   3185     1
   3167   3177     1
   3168   3176     1
   3169   3177     1
   3169   3175     1
   3173   3174     1
   3174   3185     1
   3174   3175     1
   3175   3176     1
   3176   3177     1
   3176   3185     1
   3183   3185     1
   3186   3191     1
   3186   3198     1
   3186   3196     1
   3187   3206     1
   3187   3192     1
   3187   3197     1
   3190   3200     1
   3190   3208     1
   3190   3196     1
   3191   3199     1
   3192   3198     1
   3192   3200     1
   3196   3197     1
   3197   3198     1
   3197   3208     1
   3198   3199     1
   3199   3200     1
   3199   3208     1
   3206   3208     1
   3209   3214     1
   3209   3221     1
   3209   3219     1
   3210   3215     1
   3210   3220     1
   3210   3229     1
   3213   3219     1
   3213   3231     1
   3213   3223     1
   3214   3222     1
   3215   3223     1
   3215   3221     1
   3219   3220     1
   3220   3231     1
   3220   3221     1
   3221   3222     1
   3222   3223     1
   3222   3231     1
   3229   3231     1
   3232   3237     1
   3232   3244     1
   3232   3242     1
   3233   3252     1
   3233   3238     1
   3233   3243     1
   3236   3246     1
   3236   3254     1
   3236   3242     1
   3237   3245     1
   3238   3244     1
   3238   3246     1
   3242   3243     1
   3243   3244     1
   3243   3254     1
   3244   3245     1
   3245   3246     1
   3245   3254     1
   3252   3254     1
   3255   3260     1
   3255   3267     1
   3255   3265     1
   3256   3261     1
   3256   3266     1
   3256   3275     1
   3259   3265     1
   3259   3277     1
   3259   3269     1
   3260   3268     1
   3261   3269     1
   3261   3267     1
   3265   3266     1
   3266   3277     1
   3266   3267     1
   3267   3268     1
   3268   3269     1
   3268   3277     1
   3275   3277     1
   3278   3283     1
   3278   3290     1
   3278   3288     1
   3279   3298     1
   3279   3284     1
   3279   3289     1
   3282   3292     1
   3282   3300     1
   3282   3288     1
   3283   3291     1
   3284   3290     1
   3284   3292     1
   3288   3289     1
   3289   3290     1
   3289   3300     1
   3290   3291     1
   3291   3292     1
   3291   3300     1
   3298   3300     1
   3301   3306     1
   3301   3313     1
   3301   3311     1
   3302   3307     1
   3302   3312     1
   3302   3321     1
   3305   3311     1
   3305   3323     1
   3305   3315     1
   3306   3314     1
   3307   3315     1
   3307   3313     1
   3311   3312     1
   3312   3323     1
   3312   3313     1
   3313   3314     1
   3314   3315     1
   3314   3323     1
   3321   3323     1
   3324   3329     1
   3324   3336     1
   3324   3334     1
   3325   3344     1
   3325   3330     1
   3325   3335     1
   3328   3338     1
   3328   3346     1
   3328   3334     1
   3329   3337     1
   3330   3336     1
   3330   3338     1
   3334   3335     1
   3335   3336     1
   3335   3346     1
   3336   3337     1
   3337   3338     1
   3337   3346     1
   3344   3346     1
   3347   3352     1
   3347   3359     1
   3347   3357     1
   3348   3353     1
   3348   3358     1
   3348   3367     1
   3351   3357     1
   3351   3369     1
   3351   3361     1
   3352   3360     1
   3353   3361     1
   3353   3359     1
   3357   3358     1
   3358   3369     1
   3358   3359     1
   3359   3360     1
   3360   3361     1
   3360   3369     1
   3367   3369     1
   3370   3375     1
   3370   3382     1
   3370   3380     1
   3371   3390     1
   3371   3376     1
   3371   3381     1
   3374   3384     1
   3374   3392     1
   3374   3380     1
   3375   3383     1
   3376   3382     1
   3376   3384     1
   3380   3381     1
   3381   3382     1
   3381   3392     1
   3382   3383     1
   3383   3384     1
   3383   3392     1
   3390   3392     1
   3393   3398     1
   3393   3405     1
   3393   3403     1
   3394   3399     1
   3394   3404     1
   3394   3413     1
   3397   3403     1
   3397   3415     1
   3397   3407     1
   3398   3406     1
   3399   3407     1
   3399   3405     1
   3403   3404     1
   3404   3415     1
   3404   3405     1
   3405   3406     1
   3406   3407     1
   3406   3415     1
   3413   3415     1
   3416   3421     1
   3416   3428     1
   3416   3426     1
   3417   3436     1
   3417   3422     1
   3417   3427     1
   3420   3430     1
   3420   3438     1
   3420   3426     1
   3421   3429     1
   3422   3428     1
   3422   3430     1
   3426   3427     1
   3427   3428     1
   3427   3438     1
   3428   3429     1
   3429   3430     1
   3429   3438     1
   3436   3438     1
   3439   3444     1
   3439   3451     1
   3439   3449     1
   3440   3445     1
   3440   3450     1
   3440   3459     1
   3443   3449     1
   3443   3461     1
   3443   3453     1
   3444   3452     1
   3445   3453     1
   3445   3451     1
   3449   3450     1
   3450   3461     1
   3450   3451     1
   3451   3452     1
   3452   3453     1
   3452   3461     1
   3459   3461     1
   3462   3467     1
   3462   3474     1
   3462   3472     1
   3463   3482     1
   3463   3468     1
   3463   3473     1
   3466   3476     1
   3466   3484     1
   3466   3472     1
   3467   3475     1
   3468   3474     1
   3468   3476     1
   3472   3473     1
   3473   3474     1
   3473   3484     1
   3474   3475     1
   3475   3476     1
   3475   3484     1
   3482   3484     1
   3485   3490     1
   3485   3497     1
   3485   3495     1
   3486   3491     1
   3486   3496     1
   3486   3505     1
   3489   3495     1
   3489   3507     1
   3489   3499     1
   3490   3498     1
   3491   3499     1
   3491   3497     1
   3495   3496     1
   3496   3507     1
   3496   3497     1
   3497   3498     1
   3498   3499     1
   3498   3507     1
   3505   3507     1
   3508   3513     1
   3508   3520     1
   3508   3518     1
   3509   3528     1
   3509   3514     1
   3509   3519     1
   3512   3522     1
   3512   3530     1
   3512   3518     1
   3513   3521     1
   3514   3520     1
   3514   3522     1
   3518   3519     1
   3519   3520     1
   3519   3530     1
   3520   3521     1
   3521   3522     1
   3521   3530     1
   3528   3530     1
   3531   3536     1
   3531   3543     1
   3531   3541     1
   3532   3537     1
   3532   3542     1
   3532   3551     1
   3535   3541     1
   3535   3553     1
   3535   3545     1
   3536   3544     1
   3537   3545     1
   3537   3543     1
   3541   3542     1
   3542   3553     1
   3542   3543     1
   3543   3544     1
   3544   3545     1
   3544   3553     1
   3551   3553     1
   3554   3559     1
   3554   3566     1
   3554   3564     1
   3555   3574     1
   3555   3560     1
   3555   3565     1
   3558   3568     1
   3558   3576     1
   3558   3564     1
   3559   3567     1
   3560   3566     1
   3560   3568     1
   3564   3565     1
   3565   3566     1
   3565   3576     1
   3566   3567     1
   3567   3568     1
   3567   3576     1
   3574   3576     1
   3577   3582     1
   3577   3589     1
   3577   3587     1
   3578   3583     1
   3578   3588     1
   3578   3597     1
   3581   3587     1
   3581   3599     1
   3581   3591     1
   3582   3590     1
   3583   3591     1
   3583   3589     1
   3587   3588     1
   3588   3599     1
   3588   3589     1
   3589   3590     1
   3590   3591     1
   3590   3599     1
   3597   3599     1
   3600   3605     1
   3600   3612     1
   3600   3610     1
   3601   3620     1
   3601   3606     1
   3601   3611     1
   3604   3614     1
   3604   3622     1
   3604   3610     1
   3605   3613     1
   3606   3612     1
   3606   3614     1
   3610   3611     1
   3611   3612     1
   3611   3622     1
   3612   3613     1
   3613   3614     1
   3613   3622     1
   3620   3622     1
   3623   3628     1
   3623   3635     1
   3623   3633     1
   3624   3629     1
   3624   3634     1
   3624   3643     1
   3627   3633     1
   3627   3645     1
   3627   3637     1
   3628   3636     1
   3629   3637     1
   3629   3635     1
   3633   3634     1
   3634   3645     1
   3634   3635     1
   3635   3636     1
   3636   3637     1
   3636   3645     1
   3643   3645     1
   3646   3651     1
   3646   3658     1
   3646   3656     1
   3647   3666     1
   3647   3652     1
   3647   3657     1
   3650   3660     1
   3650   3668     1
   3650   3656     1
   3651   3659     1
   3652   3658     1
   3652   3660     1
   3656   3657     1
   3657   3658     1
   3657   3668     1
   3658   3659     1
   3659   3660     1
   3659   3668     1
   3666   3668     1
   3669   3674     1
   3669   3681     1
   3669   3679     1
   3670   3675     1
   3670   3680     1
   3670   3689     1
   3673   3679     1
   3673   3691     1
   3673   3683     1
   3674   3682     1
   3675   3683     1
   3675   3681     1
   3679   3680     1
   3680   3691     1
   3680   3681     1
   3681   3682     1
   3682   3683     1
   3682   3691     1
   3689   3691     1
   3692   3697     1
   3692   3704     1
   3692   3702     1
   3693   3712     1
   3693   3698     1
   3693   3703     1
   3696   3706     1
   3696   3714     1
   3696   3702     1
   3697   3705     1
   3698   3704     1
   3698   3706     1
   3702   3703     1
   3703   3704     1
   3703   3714     1
   3704   3705     1
   3705   3706     1
   3705   3714     1
   3712   3714     1
   3715   3720     1
   3715   3727     1
   3715   3725     1
   3716   3721     1
   3716   3726     1
   3716   3735     1
   3719   3725     1
   3719   3737     1
   3719   3729     1
   3720   3728     1
   3721   3729     1
   3721   3727     1
   3725   3726     1
   3726   3737     1
   3726   3727     1
   3727   3728     1
   3728   3729     1
   3728   3737     1
   3735   3737     1
   3738   3743     1
   3738   3750     1
   3738   3748     1
   3739   3758     1
   3739   3744     1
   3739   3749     1
   3742   3752     1
   3742   3760     1
   3742   3748     1
   3743   3751     1
   3744   3750     1
   3744   3752     1
   3748   3749     1
   3749   3750     1
   3749   3760     1
   3750   3751     1
   3751   3752     1
   3751   3760     1
   3758   3760     1
   3761   3766     1
   3761   3773     1
   3761   3771     1
   3762   3767     1
   3762   3772     1
   3762   3781     1
   3765   3771     1
   3765   3783     1
   3765   3775     1
   3766   3774     1
   3767   3775     1
   3767   3773     1
   3771   3772     1
   3772   3783     1
   3772   3773     1
   3773   3774     1
   3774   3775     1
   3774   3783     1
   3781   3783     1
   3784   3789     1
   3784   3796     1
   3784   3794     1
   3785   3804     1
   3785   3790     1
   3785   3795     1
   3788   3798     1
   3788   3806     1
   3788   3794     1
   3789   3797     1
   3790   3796     1
   3790   3798     1
   3794   3795     1
   3795   3796     1
   3795   3806     1
   3796   3797     1
   3797   3798     1
   3797   3806     1
   3804   3806     1
   3807   3812     1
   3807   3819     1
   3807   3817     1
   3808   3813     1
   3808   3818     1
   3808   3827     1
   3811   3817     1
   3811   3829     1
   3811   3821     1
   3812   3820     1
   3813   3821     1
   3813   3819     1
   3817   3818     1
   3818   3829     1
   3818   3819     1
   3819   3820     1
   3820   3821     1
   3820   3829     1
   3827   3829     1
   3830   3835     1
   3830   3842     1
   3830   3840     1
   3831   3850     1
   3831   3836     1
   3831   3841     1
   3834   3844     1
   3834   3852     1
   3834   3840     1
   3835   3843     1
   3836   3842     1
   3836   3844     1
   3840   3841     1
   3841   3842     1
   3841   3852     1
   3842   3843     1
   3843   3844     1
   3843   3852     1
   3850   3852     1
   3853   3858     1
   3853   3865     1
   3853   3863     1
   3854   3859     1
   3854   3864     1
   3854   3873     1
   3857   3863     1
   3857   3875     1
   3857   3867     1
   3858   3866     1
   3859   3867     1
   3859   3865     1
   3863   3864     1
   3864   3875     1
   3864   3865     1
   3865   3866     1
   3866   3867     1
   3866   3875     1
   3873   3875     1
   3876   3881     1
   3876   3888     1
   3876   3886     1
   3877   3896     1
   3877   3882     1
   3877   3887     1
   3880   3890     1
   3880   3898     1
   3880   3886     1
   3881   3889     1
   3882   3888     1
   3882   3890     1
   3886   3887     1
   3887   3888     1
   3887   3898     1
   3888   3889     1
   3889   3890     1
   3889   3898     1
   3896   3898     1
   3899   3904     1
   3899   3911     1
   3899   3909     1
   3900   3905     1
   3900   3910     1
   3900   3919     1
   3903   3909     1
   3903   3921     1
   3903   3913     1
   3904   3912     1
   3905   3913     1
   3905   3911     1
   3909   3910     1
   3910   3921     1
   3910   3911     1
   3911   3912     1
   3912   3913     1
   3912   3921     1
   3919   3921     1
   3922   3927     1
   3922   3934     1
   3922   3932     1
   3923   3942     1
   3923   3928     1
   3923   3933     1
   3926   3936     1
   3926   3944     1
   3926   3932     1
   3927   3935     1
   3928   3934     1
   3928   3936     1
   3932   3933     1
   3933   3934     1
   3933   3944     1
   3934   3935     1
   3935   3936     1
   3935   3944     1
   3942   3944     1
   3945   3950     1
   3945   3957     1
   3945   3955     1
   3946   3951     1
   3946   3956     1
   3946   3965     1
   3949   3955     1
   3949   3967     1
   3949   3959     1
   3950   3958     1
   3951   3959     1
   3951   3957     1
   3955   3956     1
   3956   3967     1
   3956   3957     1
   3957   3958     1
   3958   3959     1
   3958   3967     1
   3965   3967     1
   3968   3973     1
   3968   3980     1
   3968   3978     1
   3969   3988     1
   3969   3974     1
   3969   3979     1
   3972   3982     1
   3972   3990     1
   3972   3978     1
   3973   3981     1
   3974   3980     1
   3974   3982     1
   3978   3979     1
   3979   3980     1
   3979   3990     1
   3980   3981     1
   3981   3982     1
   3981   3990     1
   3988   3990     1
   3991   3996     1
   3991   4003     1
   3991   4001     1
   3992   3997     1
   3992   4002     1
   3992   4011     1
   3995   4001     1
   3995   4013     1
   3995   4005     1
   3996   4004     1
   3997   4005     1
   3997   4003     1
   4001   4002     1
   4002   4013     1
   4002   4003     1
   4003   4004     1
   4004   4005     1
   4004   4013     1
   4011   4013     1
   4014   4019     1
   4014   4026     1
   4014   4024     1
   4015   4034     1
   4015   4020     1
   4015   4025     1
   4018   4028     1
   4018   4036     1
   4018   4024     1
   4019   4027     1
   4020   4026     1
   4020   4028     1
   4024   4025     1
   4025   4026     1
   4025   4036     1
   4026   4027     1
   4027   4028     1
   4027   4036     1
   4034   4036     1
   4037   4042     1
   4037   4049     1
   4037   4047     1
   4038   4043     1
   4038   4048     1
   4038   4057     1
   4041   4047     1
   4041   4059     1
   4041   4051     1
   4042   4050     1
   4043   4051     1
   4043   4049     1
   4047   4048     1
   4048   4059     1
   4048   4049     1
   4049   4050     1
   4050   4051     1
   4050   4059     1
   4057   4059     1
   4060   4065     1
   4060   4072     1
   4060   4070     1
   4061   4080     1
   4061   4066     1
   4061   4071     1
   4064   4074     1
   4064   4082     1
   4064   4070     1
   4065   4073     1
   4066   4072     1
   4066   4074     1
   4070   4071     1
   4071   4072     1
   4071   4082     1
   4072   4073     1
   4073   4074     1
   4073   4082     1
   4080   4082     1
   4083   4088     1
   4083   4095     1
   4083   4093     1
   4084   4089     1
   4084   4094     1
   4084   4103     1
   4087   4093     1
   4087   4105     1
   4087   4097     1
   4088   4096     1
   4089   4097     1
   4089   4095     1
   4093   4094     1
   4094   4105     1
   4094   4095     1
   4095   4096     1
   4096   4097     1
   4096   4105     1
   4103   4105     1
   4106   4111     1
   4106   4118     1
   4106   4116     1
   4107   4126     1
   4107   4112     1
   4107   4117     1
   4110   4120     1
   4110   4128     1
   4110   4116     1
   4111   4119     1
   4112   4118     1
   4112   4120     1
   4116   4117     1
   4117   4118     1
   4117   4128     1
   4118   4119     1
   4119   4120     1
   4119   4128     1
   4126   4128     1
   4129   4134     1
   4129   4141     1
   4129   4139     1
   4130   4135     1
   4130   4140     1
   4130   4149     1
   4133   4139     1
   4133   4151     1
   4133   4143     1
   4134   4142     1
   4135   4143     1
   4135   4141     1
   4139   4140     1
   4140   4151     1
   4140   4141     1
   4141   4142     1
   4142   4143     1
   4142   4151     1
   4149   4151     1
   4152   4157     1
   4152   4164     1
   4152   4162     1
   4153   4172     1
   4153   4158     1
   4153   4163     1
   4156   4166     1
   4156   4174     1
   4156   4162     1
   4157   4165     1
   4158   4164     1
   4158   4166     1
   4162   4163     1
   4163   4164     1
   4163   4174     1
   4164   4165     1
   4165   4166     1
   4165   4174     1
   4172   4174     1
   4175   4180     1
   4175   4187     1
   4175   4185     1
   4176   4181     1
   4176   4186     1
   4176   4195     1
   4179   4185     1
   4179   4197     1
   4179   4189     1
   4180   4188     1
   4181   4189     1
   4181   4187     1
   4185   4186     1
   4186   4197     1
   4186   4187     1
   4187   4188     1
   4188   4189     1
   4188   4197     1
   4195   4197     1
   4198   4203     1
   4198   4210     1
   4198   4208     1
   4199   4218     1
   4199   4204     1
   4199   4209     1
   4202   4212     1
   4202   4220     1
   4202   4208     1
   4203   4211     1
   4204   4210     1
   4204   4212     1
   4208   4209     1
   4209   4210     1
   4209   4220     1
   4210   4211     1
   4211   4212     1
   4211   4220     1
   4218   4220     1
   4221   4226     1
   4221   4233     1
   4221   4231     1
   4222   4227     1
   4222   4232     1
   4222   4241     1
   4225   4231     1
   4225   4243     1
   4225   4235     1
   4226   4234     1
   4227   4235     1
   4227   4233     1
   4231   4232     1
   4232   4243     1
   4232   4233     1
   4233   4234     1
   4234   4235     1
   4234   4243     1
   4241   4243     1
   4244   4249     1
   4244   4256     1
   4244   4254     1
   4245   4264     1
   4245   4250     1
   4245   4255     1
   4248   4258     1
   4248   4266     1
   4248   4254     1
   4249   4257     1
   4250   4256     1
   4250   4258     1
   4254   4255     1
   4255   4256     1
   4255   4266     1
   4256   4257     1
   4257   4258     1
   4257   4266     1
   4264   4266     1
   4267   4272     1
   4267   4279     1
   4267   4277     1
   4268   4273     1
   4268   4278     1
   4268   4287     1
   4271   4277     1
   4271   4289     1
   4271   4281     1
   4272   4280     1
   4273   4281     1
   4273   4279     1
   4277   4278     1
   4278   4289     1
   4278   4279     1
   4279   4280     1
   4280   4281     1
   4280   4289     1
   4287   4289     1
   4290   4295     1
   4290   4302     1
   4290   4300     1
   4291   4310     1
   4291   4296     1
   4291   4301     1
   4294   4304     1
   4294   4312     1
   4294   4300     1
   4295   4303     1
   4296   4302     1
   4296   4304     1
   4300   4301     1
   4301   4302     1
   4301   4312     1
   4302   4303     1
   4303   4304     1
   4303   4312     1
   4310   4312     1
   4313   4318     1
   4313   4325     1
   4313   4323     1
   4314   4319     1
   4314   4324     1
   4314   4333     1
   4317   4323     1
   4317   4335     1
   4317   4327     1
   4318   4326     1
   4319   4327     1
   4319   4325     1
   4323   4324     1
   4324   4335     1
   4324   4325     1
   4325   4326     1
   4326   4327     1
   4326   4335     1
   4333   4335     1
   4336   4341     1
   4336   4348     1
   4336   4346     1
   4337   4356     1
   4337   4342     1
   4337   4347     1
   4340   4350     1
   4340   4358     1
   4340   4346     1
   4341   4349     1
   4342   4348     1
   4342   4350     1
   4346   4347     1
   4347   4348     1
   4347   4358     1
   4348   4349     1
   4349   4350     1
   4349   4358     1
   4356   4358     1
   4359   4364     1
   4359   4371     1
   4359   4369     1
   4360   4365     1
   4360   4370     1
   4360   4379     1
   4363   4369     1
   4363   4381     1
   4363   4373     1
   4364   4372     1
   4365   4373     1
   4365   4371     1
   4369   4370     1
   4370   4381     1
   4370   4371     1
   4371   4372     1
   4372   4373     1
   4372   4381     1
   4379   4381     1
   4382   4387     1
   4382   4394     1
   4382   4392     1
   4383   4402     1
   4383   4388     1
   4383   4393     1
   4386   4396     1
   4386   4404     1
   4386   4392     1
   4387   4395     1
   4388   4394     1
   4388   4396     1
   4392   4393     1
   4393   4394     1
   4393   4404     1
   4394   4395     1
   4395   4396     1
   4395   4404     1
   4402   4404     1
   4405   4410     1
   4405   4417     1
   4405   4415     1
   4406   4411     1
   4406   4416     1
   4406   4425     1
   4409   4415     1
   4409   4427     1
   4409   4419     1
   4410   4418     1
   4411   4419     1
   4411   4417     1
   4415   4416     1
   4416   4427     1
   4416   4417     1
   4417   4418     1
   4418   4419     1
   4418   4427     1
   4425   4427     1
   4428   4433     1
   4428   4440     1
   4428   4438     1
   4429   4448     1
   4429   4434     1
   4429   4439     1
   4432   4442     1
   4432   4450     1
   4432   4438     1
   4433   4441     1
   4434   4440     1
   4434   4442     1
   4438   4439     1
   4439   4440     1
   4439   4450     1
   4440   4441     1
   4441   4442     1
   4441   4450     1
   4448   4450     1
   4451   4456     1
   4451   4463     1
   4451   4461     1
   4452   4457     1
   4452   4462     1
   4452   4471     1
   4455   4461     1
   4455   4473     1
   4455   4465     1
   4456   4464     1
   4457   4465     1
   4457   4463     1
   4461   4462     1
   4462   4473     1
   4462   4463     1
   4463   4464     1
   4464   4465     1
   4464   4473     1
   4471   4473     1
   4474   4479     1
   4474   4486     1
   4474   4484     1
   4475   4494     1
   4475   4480     1
   4475   4485     1
   4478   4488     1
   4478   4496     1
   4478   4484     1
   4479   4487     1
   4480   4486     1
   4480   4488     1
   4484   4485     1
   4485   4486     1
   4485   4496     1
   4486   4487     1
   4487   4488     1
   4487   4496     1
   4494   4496     1
   4497   4502     1
   4497   4509     1
   4497   4507     1
   4498   4503     1
   4498   4508     1
   4498   4517     1
   4501   4507     1
   4501   4519     1
   4501   4511     1
   4502   4510     1
   4503   4511     1
   4503   4509     1
   4507   4508     1
   4508   4519     1
   4508   4509     1
   4509   4510     1
   4510   4511     1
   4510   4519     1
   4517   4519     1
   4520   4525     1
   4520   4532     1
   4520   4530     1
   4521   4540     1
   4521   4526     1
   4521   4531     1
   4524   4534     1
   4524   4542     1
   4524   4530     1
   4525   4533     1
   4526   4532     1
   4526   4534     1
   4530   4531     1
   4531   4532     1
   4531   4542     1
   4532   4533     1
   4533   4534     1
   4533   4542     1
   4540   4542     1
   4543   4548     1
   4543   4555     1
   4543   4553     1
   4544   4549     1
   4544   4554     1
   4544   4563     1
   4547   4553     1
   4547   4565     1
   4547   4557     1
   4548   4556     1
   4549   4557     1
   4549   4555     1
   4553   4554     1
   4554   4565     1
   4554   4555     1
   4555   4556     1
   4556   4557     1
   4556   4565     1
   4563   4565     1
   4566   4571     1
   4566   4578     1
   4566   4576     1
   4567   4586     1
   4567   4572     1
   4567   4577     1
   4570   4580     1
   4570   4588     1
   4570   4576     1
   4571   4579     1
   4572   4578     1
   4572   4580     1
   4576   4577     1
   4577   4578     1
   4577   4588     1
   4578   4579     1
   4579   4580     1
   4579   4588     1
   4586   4588     1
   4589   4594     1
   4589   4601     1
   4589   4599     1
   4590   4595     1
   4590   4600     1
   4590   4609     1
   4593   4599     1
   4593   4611     1
   4593   4603     1
   4594   4602     1
   4595   4603     1
   4595   4601     1
   4599   4600     1
   4600   4611     1
   4600   4601     1
   4601   4602     1
   4602   4603     1
   4602   4611     1
   4609   4611     1
   4612   4617     1
   4612   4624     1
   4612   4622     1
   4613   4632     1
   4613   4618     1
   4613   4623     1
   4616   4626     1
   4616   4634     1
   4616   4622     1
   4617   4625     1
   4618   4624     1
   4618   4626     1
   4622   4623     1
   4623   4624     1
   4623   4634     1
   4624   4625     1
   4625   4626     1
   4625   4634     1
   4632   4634     1
   4635   4640     1
   4635   4647     1
   4635   4645     1
   4636   4641     1
   4636   4646     1
   4636   4655     1
   4639   4645     1
   4639   4657     1
   4639   4649     1
   4640   4648     1
   4641   4649     1
   4641   4647     1
   4645   4646     1
   4646   4657     1
   4646   4647     1
   4647   4648     1
   4648   4649     1
   4648   4657     1
   4655   4657     1
   4658   4663     1
   4658   4670     1
   4658   4668     1
   4659   4678     1
   4659   4664     1
   4659   4669     1
   4662   4672     1
   4662   4680     1
   4662   4668     1
   4663   4671     1
   4664   4670     1
   4664   4672     1
   4668   4669     1
   4669   4670     1
   4669   4680     1
   4670   4671     1
   4671   4672     1
   4671   4680     1
   4678   4680     1
   4681   4686     1
   4681   4693     1
   4681   4691     1
   4682   4687     1
   4682   4692     1
   4682   4701     1
   4685   4691     1
   4685   4703     1
   4685   4695     1
   4686   4694     1
   4687   4695     1
   4687   4693     1
   4691   4692     1
   4692   4703     1
   4692   4693     1
   4693   4694     1
   4694   4695     1
   4694   4703     1
   4701   4703     1
   4704   4709     1
   4704   4716     1
   4704   4714     1
   4705   4724     1
   4705   4710     1
   4705   4715     1
   4708   4718     1
   4708   4726     1
   4708   4714     1
   4709   4717     1
   4710   4716     1
   4710   4718     1
   4714   4715     1
   4715   4716     1
   4715   4726     1
   4716   4717     1
   4717   4718     1
   4717   4726     1
   4724   4726     1
   4727   4732     1
   4727   4739     1
   4727   4737     1
   4728   4733     1
   4728   4738     1
   4728   4747     1
   4731   4737     1
   4731   4749     1
   4731   4741     1
   4732   4740     1
   4733   4741     1
   4733   4739     1
   4737   4738     1
   4738   4749     1
   4738   4739     1
   4739   4740     1
   4740   4741     1
   4740   4749     1
   4747   4749     1
   4750   4755     1
   4750   4762     1
   4750   4760     1
   4751   4770     1
   4751   4756     1
   4751   4761     1
   4754   4764     1
   4754   4772     1
   4754   4760     1
   4755   4763     1
   4756   4762     1
   4756   4764     1
   4760   4761     1
   4761   4762     1
   4761   4772     1
   4762   4763     1
   4763   4764     1
   4763   4772     1
   4770   4772     1
   4773   4778     1
   4773   4785     1
   4773   4783     1
   4774   4779     1
   4774   4784     1
   4774   4793     1
   4777   4783     1
   4777   4795     1
   4777   4787     1
   4778   4786     1
   4779   4787     1
   4779   4785     1
   4783   4784     1
   4784   4795     1
   4784   4785     1
   4785   4786     1
   4786   4787     1
   4786   4795     1
   4793   4795     1
   4796   4801     1
   4796   4808     1
   4796   4806     1
   4797   4816     1
   4797   4802     1
   4797   4807     1
   4800   4810     1
   4800   4818     1
   4800   4806     1
   4801   4809     1
   4802   4808     1
   4802   4810     1
   4806   4807     1
   4807   4808     1
   4807   4818     1
   4808   4809     1
   4809   4810     1
   4809   4818     1
   4816   4818     1
   4819   4824     1
   4819   4831     1
   4819   4829     1
   4820   4825     1
   4820   4830     1
   4820   4839     1
   4823   4829     1
   4823   4841     1
   4823   4833     1
   4824   4832     1
   4825   4833     1
   4825   4831     1
   4829   4830     1
   4830   4841     1
   4830   4831     1
   4831   4832     1
   4832   4833     1
   4832   4841     1
   4839   4841     1
   4842   4847     1
   4842   4854     1
   4842   4852     1
   4843   4862     1
   4843   4848     1
   4843   4853     1
   4846   4856     1
   4846   4864     1
   4846   4852     1
   4847   4855     1
   4848   4854     1
   4848   4856     1
   4852   4853     1
   4853   4854     1
   4853   4864     1
   4854   4855     1
   4855   4856     1
   4855   4864     1
   4862   4864     1
   4865   4870     1
   4865   4877     1
   4865   4875     1
   4866   4871     1
   4866   4876     1
   4866   4885     1
   4869   4875     1
   4869   4887     1
   4869   4879     1
   4870   4878     1
   4871   4879     1
   4871   4877     1
   4875   4876     1
   4876   4887     1
   4876   4877     1
   4877   4878     1
   4878   4879     1
   4878   4887     1
   4885   4887     1
   4888   4893     1
   4888   4900     1
   4888   4898     1
   4889   4908     1
   4889   4894     1
   4889   4899     1
   4892   4902     1
   4892   4910     1
   4892   4898     1
   4893   4901     1
   4894   4900     1
   4894   4902     1
   4898   4899     1
   4899   4900     1
   4899   4910     1
   4900   4901     1
   4901   4902     1
   4901   4910     1
   4908   4910     1
   4911   4916     1
   4911   4923     1
   4911   4921     1
   4912   4917     1
   4912   4922     1
   4912   4931     1
   4915   4921     1
   4915   4933     1
   4915   4925     1
   4916   4924     1
   4917   4925     1
   4917   4923     1
   4921   4922     1
   4922   4933     1
   4922   4923     1
   4923   4924     1
   4924   4925     1
   4924   4933     1
   4931   4933     1
      1     15     1
      1     16     1
      1     18     1
      1     19     1
      1     12     1
      1     13     1
      2      6     1
      2      7     1
      2      9     1
      2     10     1
      2     27     1
      2     28     1
      5      3     1
      8      3     1
      3     26     1
      3     15     1
      3     16     1
      5      4     1
      8      4     1
      4     26     1
      4     15     1
      4     16     1
      5      9     1
      5     10     1
      5     21     1
      5     22     1
      8      6     1
      6     20     1
      6     18     1
      6     19     1
      8      7     1
      7     20     1
      7     18     1
      7     19     1
      8     24     1
      8     25     1
      9     23     1
      9     12     1
      9     13     1
     10     23     1
     10     12     1
     10     13     1
     12     86     1
     12     24     1
     12     25     1
     13     86     1
     13     24     1
     13     25     1
     15    115     1
     15     27     1
     15     28     1
     16    115     1
     16     27     1
     16     28     1
     18     57     1
     18     21     1
     18     22     1
     19     57     1
     19     21     1
     19     22     1
     20     49     1
     20     50     1
     21     48     1
     22     48     1
     23     78     1
     23     79     1
     24     77     1
     25     77     1
     26    107     1
     26    108     1
     27    106     1
     28    106     1
     29     43     1
     29     44     1
     29     46     1
     29     47     1
     29     40     1
     29     41     1
     30     34     1
     30     35     1
     30     37     1
     30     38     1
     30     55     1
     30     56     1
     31     33     1
     31     36     1
     31     54     1
     31     43     1
     31     44     1
     32     33     1
     32     36     1
     32     54     1
     32     43     1
     32     44     1
     33     37     1
     33     38     1
     33     52     1
     33     53     1
     34     36     1
     34     51     1
     34     46     1
     34     47     1
     35     36     1
     35     51     1
     35     46     1
     35     47     1
     36     49     1
     36     50     1
     37     48     1
     37     40     1
     37     41     1
     38     48     1
     38     40     1
     38     41     1
     40     57     1
     40     49     1
     40     50     1
     41     57     1
     41     49     1
     41     50     1
     43    173     1
     43     55     1
     43     56     1
     44    173     1
     44     55     1
     44     56     1
     46    144     1
     46     52     1
     46     53     1
     47    144     1
     47     52     1
     47     53     1
     51    136     1
     51    137     1
     52    135     1
     53    135     1
     54    165     1
     54    166     1
     55    164     1
     56    164     1
     58     72     1
     58     73     1
     58     75     1
     58     76     1
     58     69     1
     58     70     1
     59     63     1
     59     64     1
     59     66     1
     59     67     1
     59     84     1
     59     85     1
     60     62     1
     60     65     1
     60     83     1
     60     72     1
     60     73     1
     61     62     1
     61     65     1
     61     83     1
     61     72     1
     61     73     1
     62     66     1
     62     67     1
     62     81     1
     62     82     1
     63     65     1
     63     80     1
     63     75     1
     63     76     1
     64     65     1
     64     80     1
     64     75     1
     64     76     1
     65     78     1
     65     79     1
     66     77     1
     66     69     1
     66     70     1
     67     77     1
     67     69     1
     67     70     1
     69     86     1
     69     78     1
     69     79     1
     70     86     1
     70     78     1
     70     79     1
     72    231     1
     72     84     1
     72     85     1
     73    231     1
     73     84     1
     73     85     1
     75    202     1
     75     81     1
     75     82     1
     76    202     1
     76     81     1
     76     82     1
     80    194     1
     80    195     1
     81    193     1
     82    193     1
     83    223     1
     83    224     1
     84    222     1
     85    222     1
     87    101     1
     87    102     1
     87    104     1
     87    105     1
     87     98     1
     87     99     1
     88     92     1
     88     93     1
     88     95     1
     88     96     1
     88    113     1
     88    114     1
     89     91     1
     89     94     1
     89    112     1
     89    101     1
     89    102     1
     90     91     1
     90     94     1
     90    112     1
     90    101     1
     90    102     1
     91     95     1
     91     96     1
     91    110     1
     91    111     1
     92     94     1
     92    109     1
     92    104     1
     92    105     1
     93     94     1
     93    109     1
     93    104     1
     93    105     1
     94    107     1
     94    108     1
     95    106     1
     95     98     1
     95     99     1
     96    106     1
     96     98     1
     96     99     1
     98    115     1
     98    107     1
     98    108     1
     99    115     1
     99    107     1
     99    108     1
    101    289     1
    101    113     1
    101    114     1
    102    289     1
    102    113     1
    102    114     1
    104    260     1
    104    110     1
    104    111     1
    105    260     1
    105    110     1
    105    111     1
    109    252     1
    109    253     1
    110    251     1
    111    251     1
    112    281     1
    112    282     1
    113    280     1
    114    280     1
    116    130     1
    116    131     1
    116    133     1
    116    134     1
    116    127     1
    116    128     1
    117    121     1
    117    122     1
    117    124     1
    117    125     1
    117    142     1
    117    143     1
    118    120     1
    118    123     1
    118    141     1
    118    130     1
    118    131     1
    119    120     1
    119    123     1
    119    141     1
    119    130     1
    119    131     1
    120    124     1
    120    125     1
    120    139     1
    120    140     1
    121    123     1
    121    138     1
    121    133     1
    121    134     1
    122    123     1
    122    138     1
    122    133     1
    122    134     1
    123    136     1
    123    137     1
    124    135     1
    124    127     1
    124    128     1
    125    135     1
    125    127     1
    125    128     1
    127    144     1
    127    136     1
    127    137     1
    128    144     1
    128    136     1
    128    137     1
    130    347     1
    130    142     1
    130    143     1
    131    347     1
    131    142     1
    131    143     1
    133    318     1
    133    139     1
    133    140     1
    134    318     1
    134    139     1
    134    140     1
    138    310     1
    138    311     1
    139    309     1
    140    309     1
    141    339     1
    141    340     1
    142    338     1
    143    338     1
    145    159     1
    145    160     1
    145    162     1
    145    163     1
    145    156     1
    145    157     1
    146    150     1
    146    151     1
    146    153     1
    146    154     1
    146    171     1
    146    172     1
    147    149     1
    147    152     1
    147    170     1
    147    159     1
    147    160     1
    148    149     1
    148    152     1
    148    170     1
    148    159     1
    148    160     1
    149    153     1
    149    154     1
    149    168     1
    149    169     1
    150    152     1
    150    167     1
    150    162     1
    150    163     1
    151    152     1
    151    167     1
    151    162     1
    151    163     1
    152    165     1
    152    166     1
    153    164     1
    153    156     1
    153    157     1
    154    164     1
    154    156     1
    154    157     1
    156    173     1
    156    165     1
    156    166     1
    157    173     1
    157    165     1
    157    166     1
    159    405     1
    159    171     1
    159    172     1
    160    405     1
    160    171     1
    160    172     1
    162    376     1
    162    168     1
    162    169     1
    163    376     1
    163    168     1
    163    169     1
    167    368     1
    167    369     1
    168    367     1
    169    367     1
    170    397     1
    170    398     1
    171    396     1
    172    396     1
    174    188     1
    174    189     1
    174    191     1
    174    192     1
    174    185     1
    174    186     1
    175    179     1
    175    180     1
    175    182     1
    175    183     1
    175    200     1
    175    201     1
    176    178     1
    176    181     1
    176    199     1
    176    188     1
    176    189     1
    177    178     1
    177    181     1
    177    199     1
    177    188     1
    177    189     1
    178    182     1
    178    183     1
    178    197     1
    178    198     1
    179    181     1
    179    196     1
    179    191     1
    179    192     1
    180    181     1
    180    196     1
    180    191     1
    180    192     1
    181    194     1
    181    195     1
    182    193     1
    182    185     1
    182    186     1
    183    193     1
    183    185     1
    183    186     1
    185    202     1
    185    194     1
    185    195     1
    186    202     1
    186    194     1
    186    195     1
    188    463     1
    188    200     1
    188    201     1
    189    463     1
    189    200     1
    189    201     1
    191    434     1
    191    197     1
    191    198     1
    192    434     1
    192    197     1
    192    198     1
    196    426     1
    196    427     1
    197    425     1
    198    425     1
    199    455     1
    199    456     1
    200    454     1
    201    454     1
    203    217     1
    203    218     1
    203    220     1
    203    221     1
    203    214     1
    203    215     1
    204    208     1
    204    209     1
    204    211     1
    204    212     1
    204    229     1
    204    230     1
    205    207     1
    205    210     1
    205    228     1
    205    217     1
    205    218     1
    206    207     1
    206    210     1
    206    228     1
    206    217     1
    206    218     1
    207    211     1
    207    212     1
    207    226     1
    207    227     1
    208    210     1
    208    225     1
    208    220     1
    208    221     1
    209    210     1
    209    225     1
    209    220     1
    209    221     1
    210    223     1
    210    224     1
    211    222     1
    211    214     1
    211    215     1
    212    222     1
    212    214     1
    212    215     1
    214    231     1
    214    223     1
    214    224     1
    215    231     1
    215    223     1
    215    224     1
    217    521     1
    217    229     1
    217    230     1
    218    521     1
    218    229     1
    218    230     1
    220    492     1
    220    226     1
    220    227     1
    221    492     1
    221    226     1
    221    227     1
    225    484     1
    225    485     1
    226    483     1
    227    483     1
    228    513     1
    228    514     1
    229    512     1
    230    512     1
    232    246     1
    232    247     1
    232    249     1
    232    250     1
    232    243     1
    232    244     1
    233    237     1
    233    238     1
    233    240     1
    233    241     1
    233    258     1
    233    259     1
    234    236     1
    234    239     1
    234    257     1
    234    246     1
    234    247     1
    235    236     1
    235    239     1
    235    257     1
    235    246     1
    235    247     1
    236    240     1
    236    241     1
    236    255     1
    236    256     1
    237    239     1
    237    254     1
    237    249     1
    237    250     1
    238    239     1
    238    254     1
    238    249     1
    238    250     1
    239    252     1
    239    253     1
    240    251     1
    240    243     1
    240    244     1
    241    251     1
    241    243     1
    241    244     1
    243    260     1
    243    252     1
    243    253     1
    244    260     1
    244    252     1
    244    253     1
    246    579     1
    246    258     1
    246    259     1
    247    579     1
    247    258     1
    247    259     1
    249    550     1
    249    255     1
    249    256     1
    250    550     1
    250    255     1
    250    256     1
    254    542     1
    254    543     1
    255    541     1
    256    541     1
    257    571     1
    257    572     1
    258    570     1
    259    570     1
    261    275     1
    261    276     1
    261    278     1
    261    279     1
    261    272     1
    261    273     1
    262    266     1
    262    267     1
    262    269     1
    262    270     1
    262    287     1
    262    288     1
    263    265     1
    263    268     1
    263    286     1
    263    275     1
    263    276     1
    264    265     1
    264    268     1
    264    286     1
    264    275     1
    264    276     1
    265    269     1
    265    270     1
    265    284     1
    265    285     1
    266    268     1
    266    283     1
    266    278     1
    266    279     1
    267    268     1
    267    283     1
    267    278     1
    267    279     1
    268    281     1
    268    282     1
    269    280     1
    269    272     1
    269    273     1
    270    280     1
    270    272     1
    270    273     1
    272    289     1
    272    281     1
    272    282     1
    273    289     1
    273    281     1
    273    282     1
    275    637     1
    275    287     1
    275    288     1
    276    637     1
    276    287     1
    276    288     1
    278    608     1
    278    284     1
    278    285     1
    279    608     1
    279    284     1
    279    285     1
    283    600     1
    283    601     1
    284    599     1
    285    599     1
    286    629     1
    286    630     1
    287    628     1
    288    628     1
    290    304     1
    290    305     1
    290    307     1
    290    308     1
    290    301     1
    290    302     1
    291    295     1
    291    296     1
    291    298     1
    291    299     1
    291    316     1
    291    317     1
    292    294     1
    292    297     1
    292    315     1
    292    304     1
    292    305     1
    293    294     1
    293    297     1
    293    315     1
    293    304     1
    293    305     1
    294    298     1
    294    299     1
    294    313     1
    294    314     1
    295    297     1
    295    312     1
    295    307     1
    295    308     1
    296    297     1
    296    312     1
    296    307     1
    296    308     1
    297    310     1
    297    311     1
    298    309     1
    298    301     1
    298    302     1
    299    309     1
    299    301     1
    299    302     1
    301    318     1
    301    310     1
    301    311     1
    302    318     1
    302    310     1
    302    311     1
    304    695     1
    304    316     1
    304    317     1
    305    695     1
    305    316     1
    305    317     1
    307    666     1
    307    313     1
    307    314     1
    308    666     1
    308    313     1
    308    314     1
    312    658     1
    312    659     1
    313    657     1
    314    657     1
    315    687     1
    315    688     1
    316    686     1
    317    686     1
    319    333     1
    319    334     1
    319    336     1
    319    337     1
    319    330     1
    319    331     1
    320    324     1
    320    325     1
    320    327     1
    320    328     1
    320    345     1
    320    346     1
    321    323     1
    321    326     1
    321    344     1
    321    333     1
    321    334     1
    322    323     1
    322    326     1
    322    344     1
    322    333     1
    322    334     1
    323    327     1
    323    328     1
    323    342     1
    323    343     1
    324    326     1
    324    341     1
    324    336     1
    324    337     1
    325    326     1
    325    341     1
    325    336     1
    325    337     1
    326    339     1
    326    340     1
    327    338     1
    327    330     1
    327    331     1
    328    338     1
    328    330     1
    328    331     1
    330    347     1
    330    339     1
    330    340     1
    331    347     1
    331    339     1
    331    340     1
    333    753     1
    333    345     1
    333    346     1
    334    753     1
    334    345     1
    334    346     1
    336    724     1
    336    342     1
    336    343     1
    337    724     1
    337    342     1
    337    343     1
    341    716     1
    341    717     1
    342    715     1
    343    715     1
    344    745     1
    344    746     1
    345    744     1
    346    744     1
    348    362     1
    348    363     1
    348    365     1
    348    366     1
    348    359     1
    348    360     1
    349    353     1
    349    354     1
    349    356     1
    349    357     1
    349    374     1
    349    375     1
    350    352     1
    350    355     1
    350    373     1
    350    362     1
    350    363     1
    351    352     1
    351    355     1
    351    373     1
    351    362     1
    351    363     1
    352    356     1
    352    357     1
    352    371     1
    352    372     1
    353    355     1
    353    370     1
    353    365     1
    353    366     1
    354    355     1
    354    370     1
    354    365     1
    354    366     1
    355    368     1
    355    369     1
    356    367     1
    356    359     1
    356    360     1
    357    367     1
    357    359     1
    357    360     1
    359    376     1
    359    368     1
    359    369     1
    360    376     1
    360    368     1
    360    369     1
    362    811     1
    362    374     1
    362    375     1
    363    811     1
    363    374     1
    363    375     1
    365    782     1
    365    371     1
    365    372     1
    366    782     1
    366    371     1
    366    372     1
    370    774     1
    370    775     1
    371    773     1
    372    773     1
    373    803     1
    373    804     1
    374    802     1
    375    802     1
    377    391     1
    377    392     1
    377    394     1
    377    395     1
    377    388     1
    377    389     1
    378    382     1
    378    383     1
    378    385     1
    378    386     1
    378    403     1
    378    404     1
    379    381     1
    379    384     1
    379    402     1
    379    391     1
    379    392     1
    380    381     1
    380    384     1
    380    402     1
    380    391     1
    380    392     1
    381    385     1
    381    386     1
    381    400     1
    381    401     1
    382    384     1
    382    399     1
    382    394     1
    382    395     1
    383    384     1
    383    399     1
    383    394     1
    383    395     1
    384    397     1
    384    398     1
    385    396     1
    385    388     1
    385    389     1
    386    396     1
    386    388     1
    386    389     1
    388    405     1
    388    397     1
    388    398     1
    389    405     1
    389    397     1
    389    398     1
    391    869     1
    391    403     1
    391    404     1
    392    869     1
    392    403     1
    392    404     1
    394    840     1
    394    400     1
    394    401     1
    395    840     1
    395    400     1
    395    401     1
    399    832     1
    399    833     1
    400    831     1
    401    831     1
    402    861     1
    402    862     1
    403    860     1
    404    860     1
    406    420     1
    406    421     1
    406    423     1
    406    424     1
    406    417     1
    406    418     1
    407    411     1
    407    412     1
    407    414     1
    407    415     1
    407    432     1
    407    433     1
    408    410     1
    408    413     1
    408    431     1
    408    420     1
    408    421     1
    409    410     1
    409    413     1
    409    431     1
    409    420     1
    409    421     1
    410    414     1
    410    415     1
    410    429     1
    410    430     1
    411    413     1
    411    428     1
    411    423     1
    411    424     1
    412    413     1
    412    428     1
    412    423     1
    412    424     1
    413    426     1
    413    427     1
    414    425     1
    414    417     1
    414    418     1
    415    425     1
    415    417     1
    415    418     1
    417    434     1
    417    426     1
    417    427     1
    418    434     1
    418    426     1
    418    427     1
    420    927     1
    420    432     1
    420    433     1
    421    927     1
    421    432     1
    421    433     1
    423    898     1
    423    429     1
    423    430     1
    424    898     1
    424    429     1
    424    430     1
    428    890     1
    428    891     1
    429    889     1
    430    889     1
    431    919     1
    431    920     1
    432    918     1
    433    918     1
    435    449     1
    435    450     1
    435    452     1
    435    453     1
    435    446     1
    435    447     1
    436    440     1
    436    441     1
    436    443     1
    436    444     1
    436    461     1
    436    462     1
    437    439     1
    437    442     1
    437    460     1
    437    449     1
    437    450     1
    438    439     1
    438    442     1
    438    460     1
    438    449     1
    438    450     1
    439    443     1
    439    444     1
    439    458     1
    439    459     1
    440    442     1
    440    457     1
    440    452     1
    440    453     1
    441    442     1
    441    457     1
    441    452     1
    441    453     1
    442    455     1
    442    456     1
    443    454     1
    443    446     1
    443    447     1
    444    454     1
    444    446     1
    444    447     1
    446    463     1
    446    455     1
    446    456     1
    447    463     1
    447    455     1
    447    456     1
    449    985     1
    449    461     1
    449    462     1
    450    985     1
    450    461     1
    450    462     1
    452    956     1
    452    458     1
    452    459     1
    453    956     1
    453    458     1
    453    459     1
    457    948     1
    457    949     1
    458    947     1
    459    947     1
    460    977     1
    460    978     1
    461    976     1
    462    976     1
    464    478     1
    464    479     1
    464    481     1
    464    482     1
    464    475     1
    464    476     1
    465    469     1
    465    470     1
    465    472     1
    465    473     1
    465    490     1
    465    491     1
    466    468     1
    466    471     1
    466    489     1
    466    478     1
    466    479     1
    467    468     1
    467    471     1
    467    489     1
    467    478     1
    467    479     1
    468    472     1
    468    473     1
    468    487     1
    468    488     1
    469    471     1
    469    486     1
    469    481     1
    469    482     1
    470    471     1
    470    486     1
    470    481     1
    470    482     1
    471    484     1
    471    485     1
    472    483     1
    472    475     1
    472    476     1
    473    483     1
    473    475     1
    473    476     1
    475    492     1
    475    484     1
    475    485     1
    476    492     1
    476    484     1
    476    485     1
    478   1043     1
    478    490     1
    478    491     1
    479   1043     1
    479    490     1
    479    491     1
    481   1014     1
    481    487     1
    481    488     1
    482   1014     1
    482    487     1
    482    488     1
    486   1006     1
    486   1007     1
    487   1005     1
    488   1005     1
    489   1035     1
    489   1036     1
    490   1034     1
    491   1034     1
    493    507     1
    493    508     1
    493    510     1
    493    511     1
    493    504     1
    493    505     1
    494    498     1
    494    499     1
    494    501     1
    494    502     1
    494    519     1
    494    520     1
    495    497     1
    495    500     1
    495    518     1
    495    507     1
    495    508     1
    496    497     1
    496    500     1
    496    518     1
    496    507     1
    496    508     1
    497    501     1
    497    502     1
    497    516     1
    497    517     1
    498    500     1
    498    515     1
    498    510     1
    498    511     1
    499    500     1
    499    515     1
    499    510     1
    499    511     1
    500    513     1
    500    514     1
    501    512     1
    501    504     1
    501    505     1
    502    512     1
    502    504     1
    502    505     1
    504    521     1
    504    513     1
    504    514     1
    505    521     1
    505    513     1
    505    514     1
    507   1101     1
    507    519     1
    507    520     1
    508   1101     1
    508    519     1
    508    520     1
    510   1072     1
    510    516     1
    510    517     1
    511   1072     1
    511    516     1
    511    517     1
    515   1064     1
    515   1065     1
    516   1063     1
    517   1063     1
    518   1093     1
    518   1094     1
    519   1092     1
    520   1092     1
    522    536     1
    522    537     1
    522    539     1
    522    540     1
    522    533     1
    522    534     1
    523    527     1
    523    528     1
    523    530     1
    523    531     1
    523    548     1
    523    549     1
    524    526     1
    524    529     1
    524    547     1
    524    536     1
    524    537     1
    525    526     1
    525    529     1
    525    547     1
    525    536     1
    525    537     1
    526    530     1
    526    531     1
    526    545     1
    526    546     1
    527    529     1
    527    544     1
    527    539     1
    527    540     1
    528    529     1
    528    544     1
    528    539     1
    528    540     1
    529    542     1
    529    543     1
    530    541     1
    530    533     1
    530    534     1
    531    541     1
    531    533     1
    531    534     1
    533    550     1
    533    542     1
    533    543     1
    534    550     1
    534    542     1
    534    543     1
    536   1159     1
    536    548     1
    536    549     1
    537   1159     1
    537    548     1
    537    549     1
    539   1130     1
    539    545     1
    539    546     1
    540   1130     1
    540    545     1
    540    546     1
    544   1122     1
    544   1123     1
    545   1121     1
    546   1121     1
    547   1151     1
    547   1152     1
    548   1150     1
    549   1150     1
    551    565     1
    551    566     1
    551    568     1
    551    569     1
    551    562     1
    551    563     1
    552    556     1
    552    557     1
    552    559     1
    552    560     1
    552    577     1
    552    578     1
    553    555     1
    553    558     1
    553    576     1
    553    565     1
    553    566     1
    554    555     1
    554    558     1
    554    576     1
    554    565     1
    554    566     1
    555    559     1
    555    560     1
    555    574     1
    555    575     1
    556    558     1
    556    573     1
    556    568     1
    556    569     1
    557    558     1
    557    573     1
    557    568     1
    557    569     1
    558    571     1
    558    572     1
    559    570     1
    559    562     1
    559    563     1
    560    570     1
    560    562     1
    560    563     1
    562    579     1
    562    571     1
    562    572     1
    563    579     1
    563    571     1
    563    572     1
    565   1217     1
    565    577     1
    565    578     1
    566   1217     1
    566    577     1
    566    578     1
    568   1188     1
    568    574     1
    568    575     1
    569   1188     1
    569    574     1
    569    575     1
    573   1180     1
    573   1181     1
    574   1179     1
    575   1179     1
    576   1209     1
    576   1210     1
    577   1208     1
    578   1208     1
    580    594     1
    580    595     1
    580    597     1
    580    598     1
    580    591     1
    580    592     1
    581    585     1
    581    586     1
    581    588     1
    581    589     1
    581    606     1
    581    607     1
    582    584     1
    582    587     1
    582    605     1
    582    594     1
    582    595     1
    583    584     1
    583    587     1
    583    605     1
    583    594     1
    583    595     1
    584    588     1
    584    589     1
    584    603     1
    584    604     1
    585    587     1
    585    602     1
    585    597     1
    585    598     1
    586    587     1
    586    602     1
    586    597     1
    586    598     1
    587    600     1
    587    601     1
    588    599     1
    588    591     1
    588    592     1
    589    599     1
    589    591     1
    589    592     1
    591    608     1
    591    600     1
    591    601     1
    592    608     1
    592    600     1
    592    601     1
    594   1275     1
    594    606     1
    594    607     1
    595   1275     1
    595    606     1
    595    607     1
    597   1246     1
    597    603     1
    597    604     1
    598   1246     1
    598    603     1
    598    604     1
    602   1238     1
    602   1239     1
    603   1237     1
    604   1237     1
    605   1267     1
    605   1268     1
    606   1266     1
    607   1266     1
    609    623     1
    609    624     1
    609    626     1
    609    627     1
    609    620     1
    609    621     1
    610    614     1
    610    615     1
    610    617     1
    610    618     1
    610    635     1
    610    636     1
    611    613     1
    611    616     1
    611    634     1
    611    623     1
    611    624     1
    612    613     1
    612    616     1
    612    634     1
    612    623     1
    612    624     1
    613    617     1
    613    618     1
    613    632     1
    613    633     1
    614    616     1
    614    631     1
    614    626     1
    614    627     1
    615    616     1
    615    631     1
    615    626     1
    615    627     1
    616    629     1
    616    630     1
    617    628     1
    617    620     1
    617    621     1
    618    628     1
    618    620     1
    618    621     1
    620    637     1
    620    629     1
    620    630     1
    621    637     1
    621    629     1
    621    630     1
    623   1333     1
    623    635     1
    623    636     1
    624   1333     1
    624    635     1
    624    636     1
    626   1304     1
    626    632     1
    626    633     1
    627   1304     1
    627    632     1
    627    633     1
    631   1296     1
    631   1297     1
    632   1295     1
    633   1295     1
    634   1325     1
    634   1326     1
    635   1324     1
    636   1324     1
    638    652     1
    638    653     1
    638    655     1
    638    656     1
    638    649     1
    638    650     1
    639    643     1
    639    644     1
    639    646     1
    639    647     1
    639    664     1
    639    665     1
    640    642     1
    640    645     1
    640    663     1
    640    652     1
    640    653     1
    641    642     1
    641    645     1
    641    663     1
    641    652     1
    641    653     1
    642    646     1
    642    647     1
    642    661     1
    642    662     1
    643    645     1
    643    660     1
    643    655     1
    643    656     1
    644    645     1
    644    660     1
    644    655     1
    644    656     1
    645    658     1
    645    659     1
    646    657     1
    646    649     1
    646    650     1
    647    657     1
    647    649     1
    647    650     1
    649    666     1
    649    658     1
    649    659     1
    650    666     1
    650    658     1
    650    659     1
    652   1391     1
    652    664     1
    652    665     1
    653   1391     1
    653    664     1
    653    665     1
    655   1362     1
    655    661     1
    655    662     1
    656   1362     1
    656    661     1
    656    662     1
    660   1354     1
    660   1355     1
    661   1353     1
    662   1353     1
    663   1383     1
    663   1384     1
    664   1382     1
    665   1382     1
    667    681     1
    667    682     1
    667    684     1
    667    685     1
    667    678     1
    667    679     1
    668    672     1
    668    673     1
    668    675     1
    668    676     1
    668    693     1
    668    694     1
    669    671     1
    669    674     1
    669    692     1
    669    681     1
    669    682     1
    670    671     1
    670    674     1
    670    692     1
    670    681     1
    670    682     1
    671    675     1
    671    676     1
    671    690     1
    671    691     1
    672    674     1
    672    689     1
    672    684     1
    672    685     1
    673    674     1
    673    689     1
    673    684     1
    673    685     1
    674    687     1
    674    688     1
    675    686     1
    675    678     1
    675    679     1
    676    686     1
    676    678     1
    676    679     1
    678    695     1
    678    687     1
    678    688     1
    679    695     1
    679    687     1
    679    688     1
    681   1449     1
    681    693     1
    681    694     1
    682   1449     1
    682    693     1
    682    694     1
    684   1420     1
    684    690     1
    684    691     1
    685   1420     1
    685    690     1
    685    691     1
    689   1412     1
    689   1413     1
    690   1411     1
    691   1411     1
    692   1441     1
    692   1442     1
    693   1440     1
    694   1440     1
    696    710     1
    696    711     1
    696    713     1
    696    714     1
    696    707     1
    696    708     1
    697    701     1
    697    702     1
    697    704     1
    697    705     1
    697    722     1
    697    723     1
    698    700     1
    698    703     1
    698    721     1
    698    710     1
    698    711     1
    699    700     1
    699    703     1
    699    721     1
    699    710     1
    699    711     1
    700    704     1
    700    705     1
    700    719     1
    700    720     1
    701    703     1
    701    718     1
    701    713     1
    701    714     1
    702    703     1
    702    718     1
    702    713     1
    702    714     1
    703    716     1
    703    717     1
    704    715     1
    704    707     1
    704    708     1
    705    715     1
    705    707     1
    705    708     1
    707    724     1
    707    716     1
    707    717     1
    708    724     1
    708    716     1
    708    717     1
    710   1507     1
    710    722     1
    710    723     1
    711   1507     1
    711    722     1
    711    723     1
    713   1478     1
    713    719     1
    713    720     1
    714   1478     1
    714    719     1
    714    720     1
    718   1470     1
    718   1471     1
    719   1469     1
    720   1469     1
    721   1499     1
    721   1500     1
    722   1498     1
    723   1498     1
    725    739     1
    725    740     1
    725    742     1
    725    743     1
    725    736     1
    725    737     1
    726    730     1
    726    731     1
    726    733     1
    726    734     1
    726    751     1
    726    752     1
    727    729     1
    727    732     1
    727    750     1
    727    739     1
    727    740     1
    728    729     1
    728    732     1
    728    750     1
    728    739     1
    728    740     1
    729    733     1
    729    734     1
    729    748     1
    729    749     1
    730    732     1
    730    747     1
    730    742     1
    730    743     1
    731    732     1
    731    747     1
    731    742     1
    731    743     1
    732    745     1
    732    746     1
    733    744     1
    733    736     1
    733    737     1
    734    744     1
    734    736     1
    734    737     1
    736    753     1
    736    745     1
    736    746     1
    737    753     1
    737    745     1
    737    746     1
    739   1565     1
    739    751     1
    739    752     1
    740   1565     1
    740    751     1
    740    752     1
    742   1536     1
    742    748     1
    742    749     1
    743   1536     1
    743    748     1
    743    749     1
    747   1528     1
    747   1529     1
    748   1527     1
    749   1527     1
    750   1557     1
    750   1558     1
    751   1556     1
    752   1556     1
    754    768     1
    754    769     1
    754    771     1
    754    772     1
    754    765     1
    754    766     1
    755    759     1
    755    760     1
    755    762     1
    755    763     1
    755    780     1
    755    781     1
    756    758     1
    756    761     1
    756    779     1
    756    768     1
    756    769     1
    757    758     1
    757    761     1
    757    779     1
    757    768     1
    757    769     1
    758    762     1
    758    763     1
    758    777     1
    758    778     1
    759    761     1
    759    776     1
    759    771     1
    759    772     1
    760    761     1
    760    776     1
    760    771     1
    760    772     1
    761    774     1
    761    775     1
    762    773     1
    762    765     1
    762    766     1
    763    773     1
    763    765     1
    763    766     1
    765    782     1
    765    774     1
    765    775     1
    766    782     1
    766    774     1
    766    775     1
    768   1623     1
    768    780     1
    768    781     1
    769   1623     1
    769    780     1
    769    781     1
    771   1594     1
    771    777     1
    771    778     1
    772   1594     1
    772    777     1
    772    778     1
    776   1586     1
    776   1587     1
    777   1585     1
    778   1585     1
    779   1615     1
    779   1616     1
    780   1614     1
    781   1614     1
    783    797     1
    783    798     1
    783    800     1
    783    801     1
    783    794     1
    783    795     1
    784    788     1
    784    789     1
    784    791     1
    784    792     1
    784    809     1
    784    810     1
    785    787     1
    785    790     1
    785    808     1
    785    797     1
    785    798     1
    786    787     1
    786    790     1
    786    808     1
    786    797     1
    786    798     1
    787    791     1
    787    792     1
    787    806     1
    787    807     1
    788    790     1
    788    805     1
    788    800     1
    788    801     1
    789    790     1
    789    805     1
    789    800     1
    789    801     1
    790    803     1
    790    804     1
    791    802     1
    791    794     1
    791    795     1
    792    802     1
    792    794     1
    792    795     1
    794    811     1
    794    803     1
    794    804     1
    795    811     1
    795    803     1
    795    804     1
    797   1681     1
    797    809     1
    797    810     1
    798   1681     1
    798    809     1
    798    810     1
    800   1652     1
    800    806     1
    800    807     1
    801   1652     1
    801    806     1
    801    807     1
    805   1644     1
    805   1645     1
    806   1643     1
    807   1643     1
    808   1673     1
    808   1674     1
    809   1672     1
    810   1672     1
    812    826     1
    812    827     1
    812    829     1
    812    830     1
    812    823     1
    812    824     1
    813    817     1
    813    818     1
    813    820     1
    813    821     1
    813    838     1
    813    839     1
    814    816     1
    814    819     1
    814    837     1
    814    826     1
    814    827     1
    815    816     1
    815    819     1
    815    837     1
    815    826     1
    815    827     1
    816    820     1
    816    821     1
    816    835     1
    816    836     1
    817    819     1
    817    834     1
    817    829     1
    817    830     1
    818    819     1
    818    834     1
    818    829     1
    818    830     1
    819    832     1
    819    833     1
    820    831     1
    820    823     1
    820    824     1
    821    831     1
    821    823     1
    821    824     1
    823    840     1
    823    832     1
    823    833     1
    824    840     1
    824    832     1
    824    833     1
    826   1739     1
    826    838     1
    826    839     1
    827   1739     1
    827    838     1
    827    839     1
    829   1710     1
    829    835     1
    829    836     1
    830   1710     1
    830    835     1
    830    836     1
    834   1702     1
    834   1703     1
    835   1701     1
    836   1701     1
    837   1731     1
    837   1732     1
    838   1730     1
    839   1730     1
    841    855     1
    841    856     1
    841    858     1
    841    859     1
    841    852     1
    841    853     1
    842    846     1
    842    847     1
    842    849     1
    842    850     1
    842    867     1
    842    868     1
    843    845     1
    843    848     1
    843    866     1
    843    855     1
    843    856     1
    844    845     1
    844    848     1
    844    866     1
    844    855     1
    844    856     1
    845    849     1
    845    850     1
    845    864     1
    845    865     1
    846    848     1
    846    863     1
    846    858     1
    846    859     1
    847    848     1
    847    863     1
    847    858     1
    847    859     1
    848    861     1
    848    862     1
    849    860     1
    849    852     1
    849    853     1
    850    860     1
    850    852     1
    850    853     1
    852    869     1
    852    861     1
    852    862     1
    853    869     1
    853    861     1
    853    862     1
    855   1797     1
    855    867     1
    855    868     1
    856   1797     1
    856    867     1
    856    868     1
    858   1768     1
    858    864     1
    858    865     1
    859   1768     1
    859    864     1
    859    865     1
    863   1760     1
    863   1761     1
    864   1759     1
    865   1759     1
    866   1789     1
    866   1790     1
    867   1788     1
    868   1788     1
    870    884     1
    870    885     1
    870    887     1
    870    888     1
    870    881     1
    870    882     1
    871    875     1
    871    876     1
    871    878     1
    871    879     1
    871    896     1
    871    897     1
    872    874     1
    872    877     1
    872    895     1
    872    884     1
    872    885     1
    873    874     1
    873    877     1
    873    895     1
    873    884     1
    873    885     1
    874    878     1
    874    879     1
    874    893     1
    874    894     1
    875    877     1
    875    892     1
    875    887     1
    875    888     1
    876    877     1
    876    892     1
    876    887     1
    876    888     1
    877    890     1
    877    891     1
    878    889     1
    878    881     1
    878    882     1
    879    889     1
    879    881     1
    879    882     1
    881    898     1
    881    890     1
    881    891     1
    882    898     1
    882    890     1
    882    891     1
    884   1855     1
    884    896     1
    884    897     1
    885   1855     1
    885    896     1
    885    897     1
    887   1826     1
    887    893     1
    887    894     1
    888   1826     1
    888    893     1
    888    894     1
    892   1818     1
    892   1819     1
    893   1817     1
    894   1817     1
    895   1847     1
    895   1848     1
    896   1846     1
    897   1846     1
    899    913     1
    899    914     1
    899    916     1
    899    917     1
    899    910     1
    899    911     1
    900    904     1
    900    905     1
    900    907     1
    900    908     1
    900    925     1
    900    926     1
    901    903     1
    901    906     1
    901    924     1
    901    913     1
    901    914     1
    902    903     1
    902    906     1
    902    924     1
    902    913     1
    902    914     1
    903    907     1
    903    908     1
    903    922     1
    903    923     1
    904    906     1
    904    921     1
    904    916     1
    904    917     1
    905    906     1
    905    921     1
    905    916     1
    905    917     1
    906    919     1
    906    920     1
    907    918     1
    907    910     1
    907    911     1
    908    918     1
    908    910     1
    908    911     1
    910    927     1
    910    919     1
    910    920     1
    911    927     1
    911    919     1
    911    920     1
    913   1913     1
    913    925     1
    913    926     1
    914   1913     1
    914    925     1
    914    926     1
    916   1884     1
    916    922     1
    916    923     1
    917   1884     1
    917    922     1
    917    923     1
    921   1876     1
    921   1877     1
    922   1875     1
    923   1875     1
    924   1905     1
    924   1906     1
    925   1904     1
    926   1904     1
    928    942     1
    928    943     1
    928    945     1
    928    946     1
    928    939     1
    928    940     1
    929    933     1
    929    934     1
    929    936     1
    929    937     1
    929    954     1
    929    955     1
    930    932     1
    930    935     1
    930    953     1
    930    942     1
    930    943     1
    931    932     1
    931    935     1
    931    953     1
    931    942     1
    931    943     1
    932    936     1
    932    937     1
    932    951     1
    932    952     1
    933    935     1
    933    950     1
    933    945     1
    933    946     1
    934    935     1
    934    950     1
    934    945     1
    934    946     1
    935    948     1
    935    949     1
    936    947     1
    936    939     1
    936    940     1
    937    947     1
    937    939     1
    937    940     1
    939    956     1
    939    948     1
    939    949     1
    940    956     1
    940    948     1
    940    949     1
    942   1971     1
    942    954     1
    942    955     1
    943   1971     1
    943    954     1
    943    955     1
    945   1942     1
    945    951     1
    945    952     1
    946   1942     1
    946    951     1
    946    952     1
    950   1934     1
    950   1935     1
    951   1933     1
    952   1933     1
    953   1963     1
    953   1964     1
    954   1962     1
    955   1962     1
    957    971     1
    957    972     1
    957    974     1
    957    975     1
    957    968     1
    957    969     1
    958    962     1
    958    963     1
    958    965     1
    958    966     1
    958    983     1
    958    984     1
    959    961     1
    959    964     1
    959    982     1
    959    971     1
    959    972     1
    960    961     1
    960    964     1
    960    982     1
    960    971     1
    960    972     1
    961    965     1
    961    966     1
    961    980     1
    961    981     1
    962    964     1
    962    979     1
    962    974     1
    962    975     1
    963    964     1
    963    979     1
    963    974     1
    963    975     1
    964    977     1
    964    978     1
    965    976     1
    965    968     1
    965    969     1
    966    976     1
    966    968     1
    966    969     1
    968    985     1
    968    977     1
    968    978     1
    969    985     1
    969    977     1
    969    978     1
    971   2029     1
    971    983     1
    971    984     1
    972   2029     1
    972    983     1
    972    984     1
    974   2000     1
    974    980     1
    974    981     1
    975   2000     1
    975    980     1
    975    981     1
    979   1992     1
    979   1993     1
    980   1991     1
    981   1991     1
    982   2021     1
    982   2022     1
    983   2020     1
    984   2020     1
    986   1000     1
    986   1001     1
    986   1003     1
    986   1004     1
    986    997     1
    986    998     1
    987    991     1
    987    992     1
    987    994     1
    987    995     1
    987   1012     1
    987   1013     1
    988    990     1
    988    993     1
    988   1011     1
    988   1000     1
    988   1001     1
    989    990     1
    989    993     1
    989   1011     1
    989   1000     1
    989   1001     1
    990    994     1
    990    995     1
    990   1009     1
    990   1010     1
    991    993     1
    991   1008     1
    991   1003     1
    991   1004     1
    992    993     1
    992   1008     1
    992   1003     1
    992   1004     1
    993   1006     1
    993   1007     1
    994   1005     1
    994    997     1
    994    998     1
    995   1005     1
    995    997     1
    995    998     1
    997   1014     1
    997   1006     1
    997   1007     1
    998   1014     1
    998   1006     1
    998   1007     1
   1000   2087     1
   1000   1012     1
   1000   1013     1
   1001   2087     1
   1001   1012     1
   1001   1013     1
   1003   2058     1
   1003   1009     1
   1003   1010     1
   1004   2058     1
   1004   1009     1
   1004   1010     1
   1008   2050     1
   1008   2051     1
   1009   2049     1
   1010   2049     1
   1011   2079     1
   1011   2080     1
   1012   2078     1
   1013   2078     1
   1015   1029     1
   1015   1030     1
   1015   1032     1
   1015   1033     1
   1015   1026     1
   1015   1027     1
   1016   1020     1
   1016   1021     1
   1016   1023     1
   1016   1024     1
   1016   1041     1
   1016   1042     1
   1017   1019     1
   1017   1022     1
   1017   1040     1
   1017   1029     1
   1017   1030     1
   1018   1019     1
   1018   1022     1
   1018   1040     1
   1018   1029     1
   1018   1030     1
   1019   1023     1
   1019   1024     1
   1019   1038     1
   1019   1039     1
   1020   1022     1
   1020   1037     1
   1020   1032     1
   1020   1033     1
   1021   1022     1
   1021   1037     1
   1021   1032     1
   1021   1033     1
   1022   1035     1
   1022   1036     1
   1023   1034     1
   1023   1026     1
   1023   1027     1
   1024   1034     1
   1024   1026     1
   1024   1027     1
   1026   1043     1
   1026   1035     1
   1026   1036     1
   1027   1043     1
   1027   1035     1
   1027   1036     1
   1029   2145     1
   1029   1041     1
   1029   1042     1
   1030   2145     1
   1030   1041     1
   1030   1042     1
   1032   2116     1
   1032   1038     1
   1032   1039     1
   1033   2116     1
   1033   1038     1
   1033   1039     1
   1037   2108     1
   1037   2109     1
   1038   2107     1
   1039   2107     1
   1040   2137     1
   1040   2138     1
   1041   2136     1
   1042   2136     1
   1044   1058     1
   1044   1059     1
   1044   1061     1
   1044   1062     1
   1044   1055     1
   1044   1056     1
   1045   1049     1
   1045   1050     1
   1045   1052     1
   1045   1053     1
   1045   1070     1
   1045   1071     1
   1046   1048     1
   1046   1051     1
   1046   1069     1
   1046   1058     1
   1046   1059     1
   1047   1048     1
   1047   1051     1
   1047   1069     1
   1047   1058     1
   1047   1059     1
   1048   1052     1
   1048   1053     1
   1048   1067     1
   1048   1068     1
   1049   1051     1
   1049   1066     1
   1049   1061     1
   1049   1062     1
   1050   1051     1
   1050   1066     1
   1050   1061     1
   1050   1062     1
   1051   1064     1
   1051   1065     1
   1052   1063     1
   1052   1055     1
   1052   1056     1
   1053   1063     1
   1053   1055     1
   1053   1056     1
   1055   1072     1
   1055   1064     1
   1055   1065     1
   1056   1072     1
   1056   1064     1
   1056   1065     1
   1058   2203     1
   1058   1070     1
   1058   1071     1
   1059   2203     1
   1059   1070     1
   1059   1071     1
   1061   2174     1
   1061   1067     1
   1061   1068     1
   1062   2174     1
   1062   1067     1
   1062   1068     1
   1066   2166     1
   1066   2167     1
   1067   2165     1
   1068   2165     1
   1069   2195     1
   1069   2196     1
   1070   2194     1
   1071   2194     1
   1073   1087     1
   1073   1088     1
   1073   1090     1
   1073   1091     1
   1073   1084     1
   1073   1085     1
   1074   1078     1
   1074   1079     1
   1074   1081     1
   1074   1082     1
   1074   1099     1
   1074   1100     1
   1075   1077     1
   1075   1080     1
   1075   1098     1
   1075   1087     1
   1075   1088     1
   1076   1077     1
   1076   1080     1
   1076   1098     1
   1076   1087     1
   1076   1088     1
   1077   1081     1
   1077   1082     1
   1077   1096     1
   1077   1097     1
   1078   1080     1
   1078   1095     1
   1078   1090     1
   1078   1091     1
   1079   1080     1
   1079   1095     1
   1079   1090     1
   1079   1091     1
   1080   1093     1
   1080   1094     1
   1081   1092     1
   1081   1084     1
   1081   1085     1
   1082   1092     1
   1082   1084     1
   1082   1085     1
   1084   1101     1
   1084   1093     1
   1084   1094     1
   1085   1101     1
   1085   1093     1
   1085   1094     1
   1087   2261     1
   1087   1099     1
   1087   1100     1
   1088   2261     1
   1088   1099     1
   1088   1100     1
   1090   2232     1
   1090   1096     1
   1090   1097     1
   1091   2232     1
   1091   1096     1
   1091   1097     1
   1095   2224     1
   1095   2225     1
   1096   2223     1
   1097   2223     1
   1098   2253     1
   1098   2254     1
   1099   2252     1
   1100   2252     1
   1102   1116     1
   1102   1117     1
   1102   1119     1
   1102   1120     1
   1102   1113     1
   1102   1114     1
   1103   1107     1
   1103   1108     1
   1103   1110     1
   1103   1111     1
   1103   1128     1
   1103   1129     1
   1104   1106     1
   1104   1109     1
   1104   1127     1
   1104   1116     1
   1104   1117     1
   1105   1106     1
   1105   1109     1
   1105   1127     1
   1105   1116     1
   1105   1117     1
   1106   1110     1
   1106   1111     1
   1106   1125     1
   1106   1126     1
   1107   1109     1
   1107   1124     1
   1107   1119     1
   1107   1120     1
   1108   1109     1
   1108   1124     1
   1108   1119     1
   1108   1120     1
   1109   1122     1
   1109   1123     1
   1110   1121     1
   1110   1113     1
   1110   1114     1
   1111   1121     1
   1111   1113     1
   1111   1114     1
   1113   1130     1
   1113   1122     1
   1113   1123     1
   1114   1130     1
   1114   1122     1
   1114   1123     1
   1116   2319     1
   1116   1128     1
   1116   1129     1
   1117   2319     1
   1117   1128     1
   1117   1129     1
   1119   2290     1
   1119   1125     1
   1119   1126     1
   1120   2290     1
   1120   1125     1
   1120   1126     1
   1124   2282     1
   1124   2283     1
   1125   2281     1
   1126   2281     1
   1127   2311     1
   1127   2312     1
   1128   2310     1
   1129   2310     1
   1131   1145     1
   1131   1146     1
   1131   1148     1
   1131   1149     1
   1131   1142     1
   1131   1143     1
   1132   1136     1
   1132   1137     1
   1132   1139     1
   1132   1140     1
   1132   1157     1
   1132   1158     1
   1133   1135     1
   1133   1138     1
   1133   1156     1
   1133   1145     1
   1133   1146     1
   1134   1135     1
   1134   1138     1
   1134   1156     1
   1134   1145     1
   1134   1146     1
   1135   1139     1
   1135   1140     1
   1135   1154     1
   1135   1155     1
   1136   1138     1
   1136   1153     1
   1136   1148     1
   1136   1149     1
   1137   1138     1
   1137   1153     1
   1137   1148     1
   1137   1149     1
   1138   1151     1
   1138   1152     1
   1139   1150     1
   1139   1142     1
   1139   1143     1
   1140   1150     1
   1140   1142     1
   1140   1143     1
   1142   1159     1
   1142   1151     1
   1142   1152     1
   1143   1159     1
   1143   1151     1
   1143   1152     1
   1145   2377     1
   1145   1157     1
   1145   1158     1
   1146   2377     1
   1146   1157     1
   1146   1158     1
   1148   2348     1
   1148   1154     1
   1148   1155     1
   1149   2348     1
   1149   1154     1
   1149   1155     1
   1153   2340     1
   1153   2341     1
   1154   2339     1
   1155   2339     1
   1156   2369     1
   1156   2370     1
   1157   2368     1
   1158   2368     1
   1160   1174     1
   1160   1175     1
   1160   1177     1
   1160   1178     1
   1160   1171     1
   1160   1172     1
   1161   1165     1
   1161   1166     1
   1161   1168     1
   1161   1169     1
   1161   1186     1
   1161   1187     1
   1162   1164     1
   1162   1167     1
   1162   1185     1
   1162   1174     1
   1162   1175     1
   1163   1164     1
   1163   1167     1
   1163   1185     1
   1163   1174     1
   1163   1175     1
   1164   1168     1
   1164   1169     1
   1164   1183     1
   1164   1184     1
   1165   1167     1
   1165   1182     1
   1165   1177     1
   1165   1178     1
   1166   1167     1
   1166   1182     1
   1166   1177     1
   1166   1178     1
   1167   1180     1
   1167   1181     1
   1168   1179     1
   1168   1171     1
   1168   1172     1
   1169   1179     1
   1169   1171     1
   1169   1172     1
   1171   1188     1
   1171   1180     1
   1171   1181     1
   1172   1188     1
   1172   1180     1
   1172   1181     1
   1174   2435     1
   1174   1186     1
   1174   1187     1
   1175   2435     1
   1175   1186     1
   1175   1187     1
   1177   2406     1
   1177   1183     1
   1177   1184     1
   1178   2406     1
   1178   1183     1
   1178   1184     1
   1182   2398     1
   1182   2399     1
   1183   2397     1
   1184   2397     1
   1185   2427     1
   1185   2428     1
   1186   2426     1
   1187   2426     1
   1189   1203     1
   1189   1204     1
   1189   1206     1
   1189   1207     1
   1189   1200     1
   1189   1201     1
   1190   1194     1
   1190   1195     1
   1190   1197     1
   1190   1198     1
   1190   1215     1
   1190   1216     1
   1191   1193     1
   1191   1196     1
   1191   1214     1
   1191   1203     1
   1191   1204     1
   1192   1193     1
   1192   1196     1
   1192   1214     1
   1192   1203     1
   1192   1204     1
   1193   1197     1
   1193   1198     1
   1193   1212     1
   1193   1213     1
   1194   1196     1
   1194   1211     1
   1194   1206     1
   1194   1207     1
   1195   1196     1
   1195   1211     1
   1195   1206     1
   1195   1207     1
   1196   1209     1
   1196   1210     1
   1197   1208     1
   1197   1200     1
   1197   1201     1
   1198   1208     1
   1198   1200     1
   1198   1201     1
   1200   1217     1
   1200   1209     1
   1200   1210     1
   1201   1217     1
   1201   1209     1
   1201   1210     1
   1203   2493     1
   1203   1215     1
   1203   1216     1
   1204   2493     1
   1204   1215     1
   1204   1216     1
   1206   2464     1
   1206   1212     1
   1206   1213     1
   1207   2464     1
   1207   1212     1
   1207   1213     1
   1211   2456     1
   1211   2457     1
   1212   2455     1
   1213   2455     1
   1214   2485     1
   1214   2486     1
   1215   2484     1
   1216   2484     1
   1218   1232     1
   1218   1233     1
   1218   1235     1
   1218   1236     1
   1218   1229     1
   1218   1230     1
   1219   1223     1
   1219   1224     1
   1219   1226     1
   1219   1227     1
   1219   1244     1
   1219   1245     1
   1220   1222     1
   1220   1225     1
   1220   1243     1
   1220   1232     1
   1220   1233     1
   1221   1222     1
   1221   1225     1
   1221   1243     1
   1221   1232     1
   1221   1233     1
   1222   1226     1
   1222   1227     1
   1222   1241     1
   1222   1242     1
   1223   1225     1
   1223   1240     1
   1223   1235     1
   1223   1236     1
   1224   1225     1
   1224   1240     1
   1224   1235     1
   1224   1236     1
   1225   1238     1
   1225   1239     1
   1226   1237     1
   1226   1229     1
   1226   1230     1
   1227   1237     1
   1227   1229     1
   1227   1230     1
   1229   1246     1
   1229   1238     1
   1229   1239     1
   1230   1246     1
   1230   1238     1
   1230   1239     1
   1232   2551     1
   1232   1244     1
   1232   1245     1
   1233   2551     1
   1233   1244     1
   1233   1245     1
   1235   2522     1
   1235   1241     1
   1235   1242     1
   1236   2522     1
   1236   1241     1
   1236   1242     1
   1240   2514     1
   1240   2515     1
   1241   2513     1
   1242   2513     1
   1243   2543     1
   1243   2544     1
   1244   2542     1
   1245   2542     1
   1247   1261     1
   1247   1262     1
   1247   1264     1
   1247   1265     1
   1247   1258     1
   1247   1259     1
   1248   1252     1
   1248   1253     1
   1248   1255     1
   1248   1256     1
   1248   1273     1
   1248   1274     1
   1249   1251     1
   1249   1254     1
   1249   1272     1
   1249   1261     1
   1249   1262     1
   1250   1251     1
   1250   1254     1
   1250   1272     1
   1250   1261     1
   1250   1262     1
   1251   1255     1
   1251   1256     1
   1251   1270     1
   1251   1271     1
   1252   1254     1
   1252   1269     1
   1252   1264     1
   1252   1265     1
   1253   1254     1
   1253   1269     1
   1253   1264     1
   1253   1265     1
   1254   1267     1
   1254   1268     1
   1255   1266     1
   1255   1258     1
   1255   1259     1
   1256   1266     1
   1256   1258     1
   1256   1259     1
   1258   1275     1
   1258   1267     1
   1258   1268     1
   1259   1275     1
   1259   1267     1
   1259   1268     1
   1261   2609     1
   1261   1273     1
   1261   1274     1
   1262   2609     1
   1262   1273     1
   1262   1274     1
   1264   2580     1
   1264   1270     1
   1264   1271     1
   1265   2580     1
   1265   1270     1
   1265   1271     1
   1269   2572     1
   1269   2573     1
   1270   2571     1
   1271   2571     1
   1272   2601     1
   1272   2602     1
   1273   2600     1
   1274   2600     1
   1276   1290     1
   1276   1291     1
   1276   1293     1
   1276   1294     1
   1276   1287     1
   1276   1288     1
   1277   1281     1
   1277   1282     1
   1277   1284     1
   1277   1285     1
   1277   1302     1
   1277   1303     1
   1278   1280     1
   1278   1283     1
   1278   1301     1
   1278   1290     1
   1278   1291     1
   1279   1280     1
   1279   1283     1
   1279   1301     1
   1279   1290     1
   1279   1291     1
   1280   1284     1
   1280   1285     1
   1280   1299     1
   1280   1300     1
   1281   1283     1
   1281   1298     1
   1281   1293     1
   1281   1294     1
   1282   1283     1
   1282   1298     1
   1282   1293     1
   1282   1294     1
   1283   1296     1
   1283   1297     1
   1284   1295     1
   1284   1287     1
   1284   1288     1
   1285   1295     1
   1285   1287     1
   1285   1288     1
   1287   1304     1
   1287   1296     1
   1287   1297     1
   1288   1304     1
   1288   1296     1
   1288   1297     1
   1290   2667     1
   1290   1302     1
   1290   1303     1
   1291   2667     1
   1291   1302     1
   1291   1303     1
   1293   2638     1
   1293   1299     1
   1293   1300     1
   1294   2638     1
   1294   1299     1
   1294   1300     1
   1298   2630     1
   1298   2631     1
   1299   2629     1
   1300   2629     1
   1301   2659     1
   1301   2660     1
   1302   2658     1
   1303   2658     1
   1305   1319     1
   1305   1320     1
   1305   1322     1
   1305   1323     1
   1305   1316     1
   1305   1317     1
   1306   1310     1
   1306   1311     1
   1306   1313     1
   1306   1314     1
   1306   1331     1
   1306   1332     1
   1307   1309     1
   1307   1312     1
   1307   1330     1
   1307   1319     1
   1307   1320     1
   1308   1309     1
   1308   1312     1
   1308   1330     1
   1308   1319     1
   1308   1320     1
   1309   1313     1
   1309   1314     1
   1309   1328     1
   1309   1329     1
   1310   1312     1
   1310   1327     1
   1310   1322     1
   1310   1323     1
   1311   1312     1
   1311   1327     1
   1311   1322     1
   1311   1323     1
   1312   1325     1
   1312   1326     1
   1313   1324     1
   1313   1316     1
   1313   1317     1
   1314   1324     1
   1314   1316     1
   1314   1317     1
   1316   1333     1
   1316   1325     1
   1316   1326     1
   1317   1333     1
   1317   1325     1
   1317   1326     1
   1319   2725     1
   1319   1331     1
   1319   1332     1
   1320   2725     1
   1320   1331     1
   1320   1332     1
   1322   2696     1
   1322   1328     1
   1322   1329     1
   1323   2696     1
   1323   1328     1
   1323   1329     1
   1327   2688     1
   1327   2689     1
   1328   2687     1
   1329   2687     1
   1330   2717     1
   1330   2718     1
   1331   2716     1
   1332   2716     1
   1334   1348     1
   1334   1349     1
   1334   1351     1
   1334   1352     1
   1334   1345     1
   1334   1346     1
   1335   1339     1
   1335   1340     1
   1335   1342     1
   1335   1343     1
   1335   1360     1
   1335   1361     1
   1336   1338     1
   1336   1341     1
   1336   1359     1
   1336   1348     1
   1336   1349     1
   1337   1338     1
   1337   1341     1
   1337   1359     1
   1337   1348     1
   1337   1349     1
   1338   1342     1
   1338   1343     1
   1338   1357     1
   1338   1358     1
   1339   1341     1
   1339   1356     1
   1339   1351     1
   1339   1352     1
   1340   1341     1
   1340   1356     1
   1340   1351     1
   1340   1352     1
   1341   1354     1
   1341   1355     1
   1342   1353     1
   1342   1345     1
   1342   1346     1
   1343   1353     1
   1343   1345     1
   1343   1346     1
   1345   1362     1
   1345   1354     1
   1345   1355     1
   1346   1362     1
   1346   1354     1
   1346   1355     1
   1348   2759     1
   1348   1360     1
   1348   1361     1
   1349   2759     1
   1349   1360     1
   1349   1361     1
   1351   2736     1
   1351   1357     1
   1351   1358     1
   1352   2736     1
   1352   1357     1
   1352   1358     1
   1356   2735     1
   1357   2732     1
   1358   2732     1
   1359   2758     1
   1360   2755     1
   1361   2755     1
   1363   1377     1
   1363   1378     1
   1363   1380     1
   1363   1381     1
   1363   1374     1
   1363   1375     1
   1364   1368     1
   1364   1369     1
   1364   1371     1
   1364   1372     1
   1364   1389     1
   1364   1390     1
   1365   1367     1
   1365   1370     1
   1365   1388     1
   1365   1377     1
   1365   1378     1
   1366   1367     1
   1366   1370     1
   1366   1388     1
   1366   1377     1
   1366   1378     1
   1367   1371     1
   1367   1372     1
   1367   1386     1
   1367   1387     1
   1368   1370     1
   1368   1385     1
   1368   1380     1
   1368   1381     1
   1369   1370     1
   1369   1385     1
   1369   1380     1
   1369   1381     1
   1370   1383     1
   1370   1384     1
   1371   1382     1
   1371   1374     1
   1371   1375     1
   1372   1382     1
   1372   1374     1
   1372   1375     1
   1374   1391     1
   1374   1383     1
   1374   1384     1
   1375   1391     1
   1375   1383     1
   1375   1384     1
   1377   2805     1
   1377   1389     1
   1377   1390     1
   1378   2805     1
   1378   1389     1
   1378   1390     1
   1380   2782     1
   1380   1386     1
   1380   1387     1
   1381   2782     1
   1381   1386     1
   1381   1387     1
   1385   2781     1
   1386   2778     1
   1387   2778     1
   1388   2804     1
   1389   2801     1
   1390   2801     1
   1392   1406     1
   1392   1407     1
   1392   1409     1
   1392   1410     1
   1392   1403     1
   1392   1404     1
   1393   1397     1
   1393   1398     1
   1393   1400     1
   1393   1401     1
   1393   1418     1
   1393   1419     1
   1394   1396     1
   1394   1399     1
   1394   1417     1
   1394   1406     1
   1394   1407     1
   1395   1396     1
   1395   1399     1
   1395   1417     1
   1395   1406     1
   1395   1407     1
   1396   1400     1
   1396   1401     1
   1396   1415     1
   1396   1416     1
   1397   1399     1
   1397   1414     1
   1397   1409     1
   1397   1410     1
   1398   1399     1
   1398   1414     1
   1398   1409     1
   1398   1410     1
   1399   1412     1
   1399   1413     1
   1400   1411     1
   1400   1403     1
   1400   1404     1
   1401   1411     1
   1401   1403     1
   1401   1404     1
   1403   1420     1
   1403   1412     1
   1403   1413     1
   1404   1420     1
   1404   1412     1
   1404   1413     1
   1406   2851     1
   1406   1418     1
   1406   1419     1
   1407   2851     1
   1407   1418     1
   1407   1419     1
   1409   2828     1
   1409   1415     1
   1409   1416     1
   1410   2828     1
   1410   1415     1
   1410   1416     1
   1414   2827     1
   1415   2824     1
   1416   2824     1
   1417   2850     1
   1418   2847     1
   1419   2847     1
   1421   1435     1
   1421   1436     1
   1421   1438     1
   1421   1439     1
   1421   1432     1
   1421   1433     1
   1422   1426     1
   1422   1427     1
   1422   1429     1
   1422   1430     1
   1422   1447     1
   1422   1448     1
   1423   1425     1
   1423   1428     1
   1423   1446     1
   1423   1435     1
   1423   1436     1
   1424   1425     1
   1424   1428     1
   1424   1446     1
   1424   1435     1
   1424   1436     1
   1425   1429     1
   1425   1430     1
   1425   1444     1
   1425   1445     1
   1426   1428     1
   1426   1443     1
   1426   1438     1
   1426   1439     1
   1427   1428     1
   1427   1443     1
   1427   1438     1
   1427   1439     1
   1428   1441     1
   1428   1442     1
   1429   1440     1
   1429   1432     1
   1429   1433     1
   1430   1440     1
   1430   1432     1
   1430   1433     1
   1432   1449     1
   1432   1441     1
   1432   1442     1
   1433   1449     1
   1433   1441     1
   1433   1442     1
   1435   2897     1
   1435   1447     1
   1435   1448     1
   1436   2897     1
   1436   1447     1
   1436   1448     1
   1438   2874     1
   1438   1444     1
   1438   1445     1
   1439   2874     1
   1439   1444     1
   1439   1445     1
   1443   2873     1
   1444   2870     1
   1445   2870     1
   1446   2896     1
   1447   2893     1
   1448   2893     1
   1450   1464     1
   1450   1465     1
   1450   1467     1
   1450   1468     1
   1450   1461     1
   1450   1462     1
   1451   1455     1
   1451   1456     1
   1451   1458     1
   1451   1459     1
   1451   1476     1
   1451   1477     1
   1452   1454     1
   1452   1457     1
   1452   1475     1
   1452   1464     1
   1452   1465     1
   1453   1454     1
   1453   1457     1
   1453   1475     1
   1453   1464     1
   1453   1465     1
   1454   1458     1
   1454   1459     1
   1454   1473     1
   1454   1474     1
   1455   1457     1
   1455   1472     1
   1455   1467     1
   1455   1468     1
   1456   1457     1
   1456   1472     1
   1456   1467     1
   1456   1468     1
   1457   1470     1
   1457   1471     1
   1458   1469     1
   1458   1461     1
   1458   1462     1
   1459   1469     1
   1459   1461     1
   1459   1462     1
   1461   1478     1
   1461   1470     1
   1461   1471     1
   1462   1478     1
   1462   1470     1
   1462   1471     1
   1464   2943     1
   1464   1476     1
   1464   1477     1
   1465   2943     1
   1465   1476     1
   1465   1477     1
   1467   2920     1
   1467   1473     1
   1467   1474     1
   1468   2920     1
   1468   1473     1
   1468   1474     1
   1472   2919     1
   1473   2916     1
   1474   2916     1
   1475   2942     1
   1476   2939     1
   1477   2939     1
   1479   1493     1
   1479   1494     1
   1479   1496     1
   1479   1497     1
   1479   1490     1
   1479   1491     1
   1480   1484     1
   1480   1485     1
   1480   1487     1
   1480   1488     1
   1480   1505     1
   1480   1506     1
   1481   1483     1
   1481   1486     1
   1481   1504     1
   1481   1493     1
   1481   1494     1
   1482   1483     1
   1482   1486     1
   1482   1504     1
   1482   1493     1
   1482   1494     1
   1483   1487     1
   1483   1488     1
   1483   1502     1
   1483   1503     1
   1484   1486     1
   1484   1501     1
   1484   1496     1
   1484   1497     1
   1485   1486     1
   1485   1501     1
   1485   1496     1
   1485   1497     1
   1486   1499     1
   1486   1500     1
   1487   1498     1
   1487   1490     1
   1487   1491     1
   1488   1498     1
   1488   1490     1
   1488   1491     1
   1490   1507     1
   1490   1499     1
   1490   1500     1
   1491   1507     1
   1491   1499     1
   1491   1500     1
   1493   2989     1
   1493   1505     1
   1493   1506     1
   1494   2989     1
   1494   1505     1
   1494   1506     1
   1496   2966     1
   1496   1502     1
   1496   1503     1
   1497   2966     1
   1497   1502     1
   1497   1503     1
   1501   2965     1
   1502   2962     1
   1503   2962     1
   1504   2988     1
   1505   2985     1
   1506   2985     1
   1508   1522     1
   1508   1523     1
   1508   1525     1
   1508   1526     1
   1508   1519     1
   1508   1520     1
   1509   1513     1
   1509   1514     1
   1509   1516     1
   1509   1517     1
   1509   1534     1
   1509   1535     1
   1510   1512     1
   1510   1515     1
   1510   1533     1
   1510   1522     1
   1510   1523     1
   1511   1512     1
   1511   1515     1
   1511   1533     1
   1511   1522     1
   1511   1523     1
   1512   1516     1
   1512   1517     1
   1512   1531     1
   1512   1532     1
   1513   1515     1
   1513   1530     1
   1513   1525     1
   1513   1526     1
   1514   1515     1
   1514   1530     1
   1514   1525     1
   1514   1526     1
   1515   1528     1
   1515   1529     1
   1516   1527     1
   1516   1519     1
   1516   1520     1
   1517   1527     1
   1517   1519     1
   1517   1520     1
   1519   1536     1
   1519   1528     1
   1519   1529     1
   1520   1536     1
   1520   1528     1
   1520   1529     1
   1522   3035     1
   1522   1534     1
   1522   1535     1
   1523   3035     1
   1523   1534     1
   1523   1535     1
   1525   3012     1
   1525   1531     1
   1525   1532     1
   1526   3012     1
   1526   1531     1
   1526   1532     1
   1530   3011     1
   1531   3008     1
   1532   3008     1
   1533   3034     1
   1534   3031     1
   1535   3031     1
   1537   1551     1
   1537   1552     1
   1537   1554     1
   1537   1555     1
   1537   1548     1
   1537   1549     1
   1538   1542     1
   1538   1543     1
   1538   1545     1
   1538   1546     1
   1538   1563     1
   1538   1564     1
   1539   1541     1
   1539   1544     1
   1539   1562     1
   1539   1551     1
   1539   1552     1
   1540   1541     1
   1540   1544     1
   1540   1562     1
   1540   1551     1
   1540   1552     1
   1541   1545     1
   1541   1546     1
   1541   1560     1
   1541   1561     1
   1542   1544     1
   1542   1559     1
   1542   1554     1
   1542   1555     1
   1543   1544     1
   1543   1559     1
   1543   1554     1
   1543   1555     1
   1544   1557     1
   1544   1558     1
   1545   1556     1
   1545   1548     1
   1545   1549     1
   1546   1556     1
   1546   1548     1
   1546   1549     1
   1548   1565     1
   1548   1557     1
   1548   1558     1
   1549   1565     1
   1549   1557     1
   1549   1558     1
   1551   3081     1
   1551   1563     1
   1551   1564     1
   1552   3081     1
   1552   1563     1
   1552   1564     1
   1554   3058     1
   1554   1560     1
   1554   1561     1
   1555   3058     1
   1555   1560     1
   1555   1561     1
   1559   3057     1
   1560   3054     1
   1561   3054     1
   1562   3080     1
   1563   3077     1
   1564   3077     1
   1566   1580     1
   1566   1581     1
   1566   1583     1
   1566   1584     1
   1566   1577     1
   1566   1578     1
   1567   1571     1
   1567   1572     1
   1567   1574     1
   1567   1575     1
   1567   1592     1
   1567   1593     1
   1568   1570     1
   1568   1573     1
   1568   1591     1
   1568   1580     1
   1568   1581     1
   1569   1570     1
   1569   1573     1
   1569   1591     1
   1569   1580     1
   1569   1581     1
   1570   1574     1
   1570   1575     1
   1570   1589     1
   1570   1590     1
   1571   1573     1
   1571   1588     1
   1571   1583     1
   1571   1584     1
   1572   1573     1
   1572   1588     1
   1572   1583     1
   1572   1584     1
   1573   1586     1
   1573   1587     1
   1574   1585     1
   1574   1577     1
   1574   1578     1
   1575   1585     1
   1575   1577     1
   1575   1578     1
   1577   1594     1
   1577   1586     1
   1577   1587     1
   1578   1594     1
   1578   1586     1
   1578   1587     1
   1580   3127     1
   1580   1592     1
   1580   1593     1
   1581   3127     1
   1581   1592     1
   1581   1593     1
   1583   3104     1
   1583   1589     1
   1583   1590     1
   1584   3104     1
   1584   1589     1
   1584   1590     1
   1588   3103     1
   1589   3100     1
   1590   3100     1
   1591   3126     1
   1592   3123     1
   1593   3123     1
   1595   1609     1
   1595   1610     1
   1595   1612     1
   1595   1613     1
   1595   1606     1
   1595   1607     1
   1596   1600     1
   1596   1601     1
   1596   1603     1
   1596   1604     1
   1596   1621     1
   1596   1622     1
   1597   1599     1
   1597   1602     1
   1597   1620     1
   1597   1609     1
   1597   1610     1
   1598   1599     1
   1598   1602     1
   1598   1620     1
   1598   1609     1
   1598   1610     1
   1599   1603     1
   1599   1604     1
   1599   1618     1
   1599   1619     1
   1600   1602     1
   1600   1617     1
   1600   1612     1
   1600   1613     1
   1601   1602     1
   1601   1617     1
   1601   1612     1
   1601   1613     1
   1602   1615     1
   1602   1616     1
   1603   1614     1
   1603   1606     1
   1603   1607     1
   1604   1614     1
   1604   1606     1
   1604   1607     1
   1606   1623     1
   1606   1615     1
   1606   1616     1
   1607   1623     1
   1607   1615     1
   1607   1616     1
   1609   3173     1
   1609   1621     1
   1609   1622     1
   1610   3173     1
   1610   1621     1
   1610   1622     1
   1612   3150     1
   1612   1618     1
   1612   1619     1
   1613   3150     1
   1613   1618     1
   1613   1619     1
   1617   3149     1
   1618   3146     1
   1619   3146     1
   1620   3172     1
   1621   3169     1
   1622   3169     1
   1624   1638     1
   1624   1639     1
   1624   1641     1
   1624   1642     1
   1624   1635     1
   1624   1636     1
   1625   1629     1
   1625   1630     1
   1625   1632     1
   1625   1633     1
   1625   1650     1
   1625   1651     1
   1626   1628     1
   1626   1631     1
   1626   1649     1
   1626   1638     1
   1626   1639     1
   1627   1628     1
   1627   1631     1
   1627   1649     1
   1627   1638     1
   1627   1639     1
   1628   1632     1
   1628   1633     1
   1628   1647     1
   1628   1648     1
   1629   1631     1
   1629   1646     1
   1629   1641     1
   1629   1642     1
   1630   1631     1
   1630   1646     1
   1630   1641     1
   1630   1642     1
   1631   1644     1
   1631   1645     1
   1632   1643     1
   1632   1635     1
   1632   1636     1
   1633   1643     1
   1633   1635     1
   1633   1636     1
   1635   1652     1
   1635   1644     1
   1635   1645     1
   1636   1652     1
   1636   1644     1
   1636   1645     1
   1638   3219     1
   1638   1650     1
   1638   1651     1
   1639   3219     1
   1639   1650     1
   1639   1651     1
   1641   3196     1
   1641   1647     1
   1641   1648     1
   1642   3196     1
   1642   1647     1
   1642   1648     1
   1646   3195     1
   1647   3192     1
   1648   3192     1
   1649   3218     1
   1650   3215     1
   1651   3215     1
   1653   1667     1
   1653   1668     1
   1653   1670     1
   1653   1671     1
   1653   1664     1
   1653   1665     1
   1654   1658     1
   1654   1659     1
   1654   1661     1
   1654   1662     1
   1654   1679     1
   1654   1680     1
   1655   1657     1
   1655   1660     1
   1655   1678     1
   1655   1667     1
   1655   1668     1
   1656   1657     1
   1656   1660     1
   1656   1678     1
   1656   1667     1
   1656   1668     1
   1657   1661     1
   1657   1662     1
   1657   1676     1
   1657   1677     1
   1658   1660     1
   1658   1675     1
   1658   1670     1
   1658   1671     1
   1659   1660     1
   1659   1675     1
   1659   1670     1
   1659   1671     1
   1660   1673     1
   1660   1674     1
   1661   1672     1
   1661   1664     1
   1661   1665     1
   1662   1672     1
   1662   1664     1
   1662   1665     1
   1664   1681     1
   1664   1673     1
   1664   1674     1
   1665   1681     1
   1665   1673     1
   1665   1674     1
   1667   3265     1
   1667   1679     1
   1667   1680     1
   1668   3265     1
   1668   1679     1
   1668   1680     1
   1670   3242     1
   1670   1676     1
   1670   1677     1
   1671   3242     1
   1671   1676     1
   1671   1677     1
   1675   3241     1
   1676   3238     1
   1677   3238     1
   1678   3264     1
   1679   3261     1
   1680   3261     1
   1682   1696     1
   1682   1697     1
   1682   1699     1
   1682   1700     1
   1682   1693     1
   1682   1694     1
   1683   1687     1
   1683   1688     1
   1683   1690     1
   1683   1691     1
   1683   1708     1
   1683   1709     1
   1684   1686     1
   1684   1689     1
   1684   1707     1
   1684   1696     1
   1684   1697     1
   1685   1686     1
   1685   1689     1
   1685   1707     1
   1685   1696     1
   1685   1697     1
   1686   1690     1
   1686   1691     1
   1686   1705     1
   1686   1706     1
   1687   1689     1
   1687   1704     1
   1687   1699     1
   1687   1700     1
   1688   1689     1
   1688   1704     1
   1688   1699     1
   1688   1700     1
   1689   1702     1
   1689   1703     1
   1690   1701     1
   1690   1693     1
   1690   1694     1
   1691   1701     1
   1691   1693     1
   1691   1694     1
   1693   1710     1
   1693   1702     1
   1693   1703     1
   1694   1710     1
   1694   1702     1
   1694   1703     1
   1696   3311     1
   1696   1708     1
   1696   1709     1
   1697   3311     1
   1697   1708     1
   1697   1709     1
   1699   3288     1
   1699   1705     1
   1699   1706     1
   1700   3288     1
   1700   1705     1
   1700   1706     1
   1704   3287     1
   1705   3284     1
   1706   3284     1
   1707   3310     1
   1708   3307     1
   1709   3307     1
   1711   1725     1
   1711   1726     1
   1711   1728     1
   1711   1729     1
   1711   1722     1
   1711   1723     1
   1712   1716     1
   1712   1717     1
   1712   1719     1
   1712   1720     1
   1712   1737     1
   1712   1738     1
   1713   1715     1
   1713   1718     1
   1713   1736     1
   1713   1725     1
   1713   1726     1
   1714   1715     1
   1714   1718     1
   1714   1736     1
   1714   1725     1
   1714   1726     1
   1715   1719     1
   1715   1720     1
   1715   1734     1
   1715   1735     1
   1716   1718     1
   1716   1733     1
   1716   1728     1
   1716   1729     1
   1717   1718     1
   1717   1733     1
   1717   1728     1
   1717   1729     1
   1718   1731     1
   1718   1732     1
   1719   1730     1
   1719   1722     1
   1719   1723     1
   1720   1730     1
   1720   1722     1
   1720   1723     1
   1722   1739     1
   1722   1731     1
   1722   1732     1
   1723   1739     1
   1723   1731     1
   1723   1732     1
   1725   3357     1
   1725   1737     1
   1725   1738     1
   1726   3357     1
   1726   1737     1
   1726   1738     1
   1728   3334     1
   1728   1734     1
   1728   1735     1
   1729   3334     1
   1729   1734     1
   1729   1735     1
   1733   3333     1
   1734   3330     1
   1735   3330     1
   1736   3356     1
   1737   3353     1
   1738   3353     1
   1740   1754     1
   1740   1755     1
   1740   1757     1
   1740   1758     1
   1740   1751     1
   1740   1752     1
   1741   1745     1
   1741   1746     1
   1741   1748     1
   1741   1749     1
   1741   1766     1
   1741   1767     1
   1742   1744     1
   1742   1747     1
   1742   1765     1
   1742   1754     1
   1742   1755     1
   1743   1744     1
   1743   1747     1
   1743   1765     1
   1743   1754     1
   1743   1755     1
   1744   1748     1
   1744   1749     1
   1744   1763     1
   1744   1764     1
   1745   1747     1
   1745   1762     1
   1745   1757     1
   1745   1758     1
   1746   1747     1
   1746   1762     1
   1746   1757     1
   1746   1758     1
   1747   1760     1
   1747   1761     1
   1748   1759     1
   1748   1751     1
   1748   1752     1
   1749   1759     1
   1749   1751     1
   1749   1752     1
   1751   1768     1
   1751   1760     1
   1751   1761     1
   1752   1768     1
   1752   1760     1
   1752   1761     1
   1754   3403     1
   1754   1766     1
   1754   1767     1
   1755   3403     1
   1755   1766     1
   1755   1767     1
   1757   3380     1
   1757   1763     1
   1757   1764     1
   1758   3380     1
   1758   1763     1
   1758   1764     1
   1762   3379     1
   1763   3376     1
   1764   3376     1
   1765   3402     1
   1766   3399     1
   1767   3399     1
   1769   1783     1
   1769   1784     1
   1769   1786     1
   1769   1787     1
   1769   1780     1
   1769   1781     1
   1770   1774     1
   1770   1775     1
   1770   1777     1
   1770   1778     1
   1770   1795     1
   1770   1796     1
   1771   1773     1
   1771   1776     1
   1771   1794     1
   1771   1783     1
   1771   1784     1
   1772   1773     1
   1772   1776     1
   1772   1794     1
   1772   1783     1
   1772   1784     1
   1773   1777     1
   1773   1778     1
   1773   1792     1
   1773   1793     1
   1774   1776     1
   1774   1791     1
   1774   1786     1
   1774   1787     1
   1775   1776     1
   1775   1791     1
   1775   1786     1
   1775   1787     1
   1776   1789     1
   1776   1790     1
   1777   1788     1
   1777   1780     1
   1777   1781     1
   1778   1788     1
   1778   1780     1
   1778   1781     1
   1780   1797     1
   1780   1789     1
   1780   1790     1
   1781   1797     1
   1781   1789     1
   1781   1790     1
   1783   3449     1
   1783   1795     1
   1783   1796     1
   1784   3449     1
   1784   1795     1
   1784   1796     1
   1786   3426     1
   1786   1792     1
   1786   1793     1
   1787   3426     1
   1787   1792     1
   1787   1793     1
   1791   3425     1
   1792   3422     1
   1793   3422     1
   1794   3448     1
   1795   3445     1
   1796   3445     1
   1798   1812     1
   1798   1813     1
   1798   1815     1
   1798   1816     1
   1798   1809     1
   1798   1810     1
   1799   1803     1
   1799   1804     1
   1799   1806     1
   1799   1807     1
   1799   1824     1
   1799   1825     1
   1800   1802     1
   1800   1805     1
   1800   1823     1
   1800   1812     1
   1800   1813     1
   1801   1802     1
   1801   1805     1
   1801   1823     1
   1801   1812     1
   1801   1813     1
   1802   1806     1
   1802   1807     1
   1802   1821     1
   1802   1822     1
   1803   1805     1
   1803   1820     1
   1803   1815     1
   1803   1816     1
   1804   1805     1
   1804   1820     1
   1804   1815     1
   1804   1816     1
   1805   1818     1
   1805   1819     1
   1806   1817     1
   1806   1809     1
   1806   1810     1
   1807   1817     1
   1807   1809     1
   1807   1810     1
   1809   1826     1
   1809   1818     1
   1809   1819     1
   1810   1826     1
   1810   1818     1
   1810   1819     1
   1812   3495     1
   1812   1824     1
   1812   1825     1
   1813   3495     1
   1813   1824     1
   1813   1825     1
   1815   3472     1
   1815   1821     1
   1815   1822     1
   1816   3472     1
   1816   1821     1
   1816   1822     1
   1820   3471     1
   1821   3468     1
   1822   3468     1
   1823   3494     1
   1824   3491     1
   1825   3491     1
   1827   1841     1
   1827   1842     1
   1827   1844     1
   1827   1845     1
   1827   1838     1
   1827   1839     1
   1828   1832     1
   1828   1833     1
   1828   1835     1
   1828   1836     1
   1828   1853     1
   1828   1854     1
   1829   1831     1
   1829   1834     1
   1829   1852     1
   1829   1841     1
   1829   1842     1
   1830   1831     1
   1830   1834     1
   1830   1852     1
   1830   1841     1
   1830   1842     1
   1831   1835     1
   1831   1836     1
   1831   1850     1
   1831   1851     1
   1832   1834     1
   1832   1849     1
   1832   1844     1
   1832   1845     1
   1833   1834     1
   1833   1849     1
   1833   1844     1
   1833   1845     1
   1834   1847     1
   1834   1848     1
   1835   1846     1
   1835   1838     1
   1835   1839     1
   1836   1846     1
   1836   1838     1
   1836   1839     1
   1838   1855     1
   1838   1847     1
   1838   1848     1
   1839   1855     1
   1839   1847     1
   1839   1848     1
   1841   3541     1
   1841   1853     1
   1841   1854     1
   1842   3541     1
   1842   1853     1
   1842   1854     1
   1844   3518     1
   1844   1850     1
   1844   1851     1
   1845   3518     1
   1845   1850     1
   1845   1851     1
   1849   3517     1
   1850   3514     1
   1851   3514     1
   1852   3540     1
   1853   3537     1
   1854   3537     1
   1856   1870     1
   1856   1871     1
   1856   1873     1
   1856   1874     1
   1856   1867     1
   1856   1868     1
   1857   1861     1
   1857   1862     1
   1857   1864     1
   1857   1865     1
   1857   1882     1
   1857   1883     1
   1858   1860     1
   1858   1863     1
   1858   1881     1
   1858   1870     1
   1858   1871     1
   1859   1860     1
   1859   1863     1
   1859   1881     1
   1859   1870     1
   1859   1871     1
   1860   1864     1
   1860   1865     1
   1860   1879     1
   1860   1880     1
   1861   1863     1
   1861   1878     1
   1861   1873     1
   1861   1874     1
   1862   1863     1
   1862   1878     1
   1862   1873     1
   1862   1874     1
   1863   1876     1
   1863   1877     1
   1864   1875     1
   1864   1867     1
   1864   1868     1
   1865   1875     1
   1865   1867     1
   1865   1868     1
   1867   1884     1
   1867   1876     1
   1867   1877     1
   1868   1884     1
   1868   1876     1
   1868   1877     1
   1870   3587     1
   1870   1882     1
   1870   1883     1
   1871   3587     1
   1871   1882     1
   1871   1883     1
   1873   3564     1
   1873   1879     1
   1873   1880     1
   1874   3564     1
   1874   1879     1
   1874   1880     1
   1878   3563     1
   1879   3560     1
   1880   3560     1
   1881   3586     1
   1882   3583     1
   1883   3583     1
   1885   1899     1
   1885   1900     1
   1885   1902     1
   1885   1903     1
   1885   1896     1
   1885   1897     1
   1886   1890     1
   1886   1891     1
   1886   1893     1
   1886   1894     1
   1886   1911     1
   1886   1912     1
   1887   1889     1
   1887   1892     1
   1887   1910     1
   1887   1899     1
   1887   1900     1
   1888   1889     1
   1888   1892     1
   1888   1910     1
   1888   1899     1
   1888   1900     1
   1889   1893     1
   1889   1894     1
   1889   1908     1
   1889   1909     1
   1890   1892     1
   1890   1907     1
   1890   1902     1
   1890   1903     1
   1891   1892     1
   1891   1907     1
   1891   1902     1
   1891   1903     1
   1892   1905     1
   1892   1906     1
   1893   1904     1
   1893   1896     1
   1893   1897     1
   1894   1904     1
   1894   1896     1
   1894   1897     1
   1896   1913     1
   1896   1905     1
   1896   1906     1
   1897   1913     1
   1897   1905     1
   1897   1906     1
   1899   3633     1
   1899   1911     1
   1899   1912     1
   1900   3633     1
   1900   1911     1
   1900   1912     1
   1902   3610     1
   1902   1908     1
   1902   1909     1
   1903   3610     1
   1903   1908     1
   1903   1909     1
   1907   3609     1
   1908   3606     1
   1909   3606     1
   1910   3632     1
   1911   3629     1
   1912   3629     1
   1914   1928     1
   1914   1929     1
   1914   1931     1
   1914   1932     1
   1914   1925     1
   1914   1926     1
   1915   1919     1
   1915   1920     1
   1915   1922     1
   1915   1923     1
   1915   1940     1
   1915   1941     1
   1916   1918     1
   1916   1921     1
   1916   1939     1
   1916   1928     1
   1916   1929     1
   1917   1918     1
   1917   1921     1
   1917   1939     1
   1917   1928     1
   1917   1929     1
   1918   1922     1
   1918   1923     1
   1918   1937     1
   1918   1938     1
   1919   1921     1
   1919   1936     1
   1919   1931     1
   1919   1932     1
   1920   1921     1
   1920   1936     1
   1920   1931     1
   1920   1932     1
   1921   1934     1
   1921   1935     1
   1922   1933     1
   1922   1925     1
   1922   1926     1
   1923   1933     1
   1923   1925     1
   1923   1926     1
   1925   1942     1
   1925   1934     1
   1925   1935     1
   1926   1942     1
   1926   1934     1
   1926   1935     1
   1928   3679     1
   1928   1940     1
   1928   1941     1
   1929   3679     1
   1929   1940     1
   1929   1941     1
   1931   3656     1
   1931   1937     1
   1931   1938     1
   1932   3656     1
   1932   1937     1
   1932   1938     1
   1936   3655     1
   1937   3652     1
   1938   3652     1
   1939   3678     1
   1940   3675     1
   1941   3675     1
   1943   1957     1
   1943   1958     1
   1943   1960     1
   1943   1961     1
   1943   1954     1
   1943   1955     1
   1944   1948     1
   1944   1949     1
   1944   1951     1
   1944   1952     1
   1944   1969     1
   1944   1970     1
   1945   1947     1
   1945   1950     1
   1945   1968     1
   1945   1957     1
   1945   1958     1
   1946   1947     1
   1946   1950     1
   1946   1968     1
   1946   1957     1
   1946   1958     1
   1947   1951     1
   1947   1952     1
   1947   1966     1
   1947   1967     1
   1948   1950     1
   1948   1965     1
   1948   1960     1
   1948   1961     1
   1949   1950     1
   1949   1965     1
   1949   1960     1
   1949   1961     1
   1950   1963     1
   1950   1964     1
   1951   1962     1
   1951   1954     1
   1951   1955     1
   1952   1962     1
   1952   1954     1
   1952   1955     1
   1954   1971     1
   1954   1963     1
   1954   1964     1
   1955   1971     1
   1955   1963     1
   1955   1964     1
   1957   3725     1
   1957   1969     1
   1957   1970     1
   1958   3725     1
   1958   1969     1
   1958   1970     1
   1960   3702     1
   1960   1966     1
   1960   1967     1
   1961   3702     1
   1961   1966     1
   1961   1967     1
   1965   3701     1
   1966   3698     1
   1967   3698     1
   1968   3724     1
   1969   3721     1
   1970   3721     1
   1972   1986     1
   1972   1987     1
   1972   1989     1
   1972   1990     1
   1972   1983     1
   1972   1984     1
   1973   1977     1
   1973   1978     1
   1973   1980     1
   1973   1981     1
   1973   1998     1
   1973   1999     1
   1974   1976     1
   1974   1979     1
   1974   1997     1
   1974   1986     1
   1974   1987     1
   1975   1976     1
   1975   1979     1
   1975   1997     1
   1975   1986     1
   1975   1987     1
   1976   1980     1
   1976   1981     1
   1976   1995     1
   1976   1996     1
   1977   1979     1
   1977   1994     1
   1977   1989     1
   1977   1990     1
   1978   1979     1
   1978   1994     1
   1978   1989     1
   1978   1990     1
   1979   1992     1
   1979   1993     1
   1980   1991     1
   1980   1983     1
   1980   1984     1
   1981   1991     1
   1981   1983     1
   1981   1984     1
   1983   2000     1
   1983   1992     1
   1983   1993     1
   1984   2000     1
   1984   1992     1
   1984   1993     1
   1986   3771     1
   1986   1998     1
   1986   1999     1
   1987   3771     1
   1987   1998     1
   1987   1999     1
   1989   3748     1
   1989   1995     1
   1989   1996     1
   1990   3748     1
   1990   1995     1
   1990   1996     1
   1994   3747     1
   1995   3744     1
   1996   3744     1
   1997   3770     1
   1998   3767     1
   1999   3767     1
   2001   2015     1
   2001   2016     1
   2001   2018     1
   2001   2019     1
   2001   2012     1
   2001   2013     1
   2002   2006     1
   2002   2007     1
   2002   2009     1
   2002   2010     1
   2002   2027     1
   2002   2028     1
   2003   2005     1
   2003   2008     1
   2003   2026     1
   2003   2015     1
   2003   2016     1
   2004   2005     1
   2004   2008     1
   2004   2026     1
   2004   2015     1
   2004   2016     1
   2005   2009     1
   2005   2010     1
   2005   2024     1
   2005   2025     1
   2006   2008     1
   2006   2023     1
   2006   2018     1
   2006   2019     1
   2007   2008     1
   2007   2023     1
   2007   2018     1
   2007   2019     1
   2008   2021     1
   2008   2022     1
   2009   2020     1
   2009   2012     1
   2009   2013     1
   2010   2020     1
   2010   2012     1
   2010   2013     1
   2012   2029     1
   2012   2021     1
   2012   2022     1
   2013   2029     1
   2013   2021     1
   2013   2022     1
   2015   3817     1
   2015   2027     1
   2015   2028     1
   2016   3817     1
   2016   2027     1
   2016   2028     1
   2018   3794     1
   2018   2024     1
   2018   2025     1
   2019   3794     1
   2019   2024     1
   2019   2025     1
   2023   3793     1
   2024   3790     1
   2025   3790     1
   2026   3816     1
   2027   3813     1
   2028   3813     1
   2030   2044     1
   2030   2045     1
   2030   2047     1
   2030   2048     1
   2030   2041     1
   2030   2042     1
   2031   2035     1
   2031   2036     1
   2031   2038     1
   2031   2039     1
   2031   2056     1
   2031   2057     1
   2032   2034     1
   2032   2037     1
   2032   2055     1
   2032   2044     1
   2032   2045     1
   2033   2034     1
   2033   2037     1
   2033   2055     1
   2033   2044     1
   2033   2045     1
   2034   2038     1
   2034   2039     1
   2034   2053     1
   2034   2054     1
   2035   2037     1
   2035   2052     1
   2035   2047     1
   2035   2048     1
   2036   2037     1
   2036   2052     1
   2036   2047     1
   2036   2048     1
   2037   2050     1
   2037   2051     1
   2038   2049     1
   2038   2041     1
   2038   2042     1
   2039   2049     1
   2039   2041     1
   2039   2042     1
   2041   2058     1
   2041   2050     1
   2041   2051     1
   2042   2058     1
   2042   2050     1
   2042   2051     1
   2044   3863     1
   2044   2056     1
   2044   2057     1
   2045   3863     1
   2045   2056     1
   2045   2057     1
   2047   3840     1
   2047   2053     1
   2047   2054     1
   2048   3840     1
   2048   2053     1
   2048   2054     1
   2052   3839     1
   2053   3836     1
   2054   3836     1
   2055   3862     1
   2056   3859     1
   2057   3859     1
   2059   2073     1
   2059   2074     1
   2059   2076     1
   2059   2077     1
   2059   2070     1
   2059   2071     1
   2060   2064     1
   2060   2065     1
   2060   2067     1
   2060   2068     1
   2060   2085     1
   2060   2086     1
   2061   2063     1
   2061   2066     1
   2061   2084     1
   2061   2073     1
   2061   2074     1
   2062   2063     1
   2062   2066     1
   2062   2084     1
   2062   2073     1
   2062   2074     1
   2063   2067     1
   2063   2068     1
   2063   2082     1
   2063   2083     1
   2064   2066     1
   2064   2081     1
   2064   2076     1
   2064   2077     1
   2065   2066     1
   2065   2081     1
   2065   2076     1
   2065   2077     1
   2066   2079     1
   2066   2080     1
   2067   2078     1
   2067   2070     1
   2067   2071     1
   2068   2078     1
   2068   2070     1
   2068   2071     1
   2070   2087     1
   2070   2079     1
   2070   2080     1
   2071   2087     1
   2071   2079     1
   2071   2080     1
   2073   3909     1
   2073   2085     1
   2073   2086     1
   2074   3909     1
   2074   2085     1
   2074   2086     1
   2076   3886     1
   2076   2082     1
   2076   2083     1
   2077   3886     1
   2077   2082     1
   2077   2083     1
   2081   3885     1
   2082   3882     1
   2083   3882     1
   2084   3908     1
   2085   3905     1
   2086   3905     1
   2088   2102     1
   2088   2103     1
   2088   2105     1
   2088   2106     1
   2088   2099     1
   2088   2100     1
   2089   2093     1
   2089   2094     1
   2089   2096     1
   2089   2097     1
   2089   2114     1
   2089   2115     1
   2090   2092     1
   2090   2095     1
   2090   2113     1
   2090   2102     1
   2090   2103     1
   2091   2092     1
   2091   2095     1
   2091   2113     1
   2091   2102     1
   2091   2103     1
   2092   2096     1
   2092   2097     1
   2092   2111     1
   2092   2112     1
   2093   2095     1
   2093   2110     1
   2093   2105     1
   2093   2106     1
   2094   2095     1
   2094   2110     1
   2094   2105     1
   2094   2106     1
   2095   2108     1
   2095   2109     1
   2096   2107     1
   2096   2099     1
   2096   2100     1
   2097   2107     1
   2097   2099     1
   2097   2100     1
   2099   2116     1
   2099   2108     1
   2099   2109     1
   2100   2116     1
   2100   2108     1
   2100   2109     1
   2102   3955     1
   2102   2114     1
   2102   2115     1
   2103   3955     1
   2103   2114     1
   2103   2115     1
   2105   3932     1
   2105   2111     1
   2105   2112     1
   2106   3932     1
   2106   2111     1
   2106   2112     1
   2110   3931     1
   2111   3928     1
   2112   3928     1
   2113   3954     1
   2114   3951     1
   2115   3951     1
   2117   2131     1
   2117   2132     1
   2117   2134     1
   2117   2135     1
   2117   2128     1
   2117   2129     1
   2118   2122     1
   2118   2123     1
   2118   2125     1
   2118   2126     1
   2118   2143     1
   2118   2144     1
   2119   2121     1
   2119   2124     1
   2119   2142     1
   2119   2131     1
   2119   2132     1
   2120   2121     1
   2120   2124     1
   2120   2142     1
   2120   2131     1
   2120   2132     1
   2121   2125     1
   2121   2126     1
   2121   2140     1
   2121   2141     1
   2122   2124     1
   2122   2139     1
   2122   2134     1
   2122   2135     1
   2123   2124     1
   2123   2139     1
   2123   2134     1
   2123   2135     1
   2124   2137     1
   2124   2138     1
   2125   2136     1
   2125   2128     1
   2125   2129     1
   2126   2136     1
   2126   2128     1
   2126   2129     1
   2128   2145     1
   2128   2137     1
   2128   2138     1
   2129   2145     1
   2129   2137     1
   2129   2138     1
   2131   4001     1
   2131   2143     1
   2131   2144     1
   2132   4001     1
   2132   2143     1
   2132   2144     1
   2134   3978     1
   2134   2140     1
   2134   2141     1
   2135   3978     1
   2135   2140     1
   2135   2141     1
   2139   3977     1
   2140   3974     1
   2141   3974     1
   2142   4000     1
   2143   3997     1
   2144   3997     1
   2146   2160     1
   2146   2161     1
   2146   2163     1
   2146   2164     1
   2146   2157     1
   2146   2158     1
   2147   2151     1
   2147   2152     1
   2147   2154     1
   2147   2155     1
   2147   2172     1
   2147   2173     1
   2148   2150     1
   2148   2153     1
   2148   2171     1
   2148   2160     1
   2148   2161     1
   2149   2150     1
   2149   2153     1
   2149   2171     1
   2149   2160     1
   2149   2161     1
   2150   2154     1
   2150   2155     1
   2150   2169     1
   2150   2170     1
   2151   2153     1
   2151   2168     1
   2151   2163     1
   2151   2164     1
   2152   2153     1
   2152   2168     1
   2152   2163     1
   2152   2164     1
   2153   2166     1
   2153   2167     1
   2154   2165     1
   2154   2157     1
   2154   2158     1
   2155   2165     1
   2155   2157     1
   2155   2158     1
   2157   2174     1
   2157   2166     1
   2157   2167     1
   2158   2174     1
   2158   2166     1
   2158   2167     1
   2160   4047     1
   2160   2172     1
   2160   2173     1
   2161   4047     1
   2161   2172     1
   2161   2173     1
   2163   4024     1
   2163   2169     1
   2163   2170     1
   2164   4024     1
   2164   2169     1
   2164   2170     1
   2168   4023     1
   2169   4020     1
   2170   4020     1
   2171   4046     1
   2172   4043     1
   2173   4043     1
   2175   2189     1
   2175   2190     1
   2175   2192     1
   2175   2193     1
   2175   2186     1
   2175   2187     1
   2176   2180     1
   2176   2181     1
   2176   2183     1
   2176   2184     1
   2176   2201     1
   2176   2202     1
   2177   2179     1
   2177   2182     1
   2177   2200     1
   2177   2189     1
   2177   2190     1
   2178   2179     1
   2178   2182     1
   2178   2200     1
   2178   2189     1
   2178   2190     1
   2179   2183     1
   2179   2184     1
   2179   2198     1
   2179   2199     1
   2180   2182     1
   2180   2197     1
   2180   2192     1
   2180   2193     1
   2181   2182     1
   2181   2197     1
   2181   2192     1
   2181   2193     1
   2182   2195     1
   2182   2196     1
   2183   2194     1
   2183   2186     1
   2183   2187     1
   2184   2194     1
   2184   2186     1
   2184   2187     1
   2186   2203     1
   2186   2195     1
   2186   2196     1
   2187   2203     1
   2187   2195     1
   2187   2196     1
   2189   4093     1
   2189   2201     1
   2189   2202     1
   2190   4093     1
   2190   2201     1
   2190   2202     1
   2192   4070     1
   2192   2198     1
   2192   2199     1
   2193   4070     1
   2193   2198     1
   2193   2199     1
   2197   4069     1
   2198   4066     1
   2199   4066     1
   2200   4092     1
   2201   4089     1
   2202   4089     1
   2204   2218     1
   2204   2219     1
   2204   2221     1
   2204   2222     1
   2204   2215     1
   2204   2216     1
   2205   2209     1
   2205   2210     1
   2205   2212     1
   2205   2213     1
   2205   2230     1
   2205   2231     1
   2206   2208     1
   2206   2211     1
   2206   2229     1
   2206   2218     1
   2206   2219     1
   2207   2208     1
   2207   2211     1
   2207   2229     1
   2207   2218     1
   2207   2219     1
   2208   2212     1
   2208   2213     1
   2208   2227     1
   2208   2228     1
   2209   2211     1
   2209   2226     1
   2209   2221     1
   2209   2222     1
   2210   2211     1
   2210   2226     1
   2210   2221     1
   2210   2222     1
   2211   2224     1
   2211   2225     1
   2212   2223     1
   2212   2215     1
   2212   2216     1
   2213   2223     1
   2213   2215     1
   2213   2216     1
   2215   2232     1
   2215   2224     1
   2215   2225     1
   2216   2232     1
   2216   2224     1
   2216   2225     1
   2218   4139     1
   2218   2230     1
   2218   2231     1
   2219   4139     1
   2219   2230     1
   2219   2231     1
   2221   4116     1
   2221   2227     1
   2221   2228     1
   2222   4116     1
   2222   2227     1
   2222   2228     1
   2226   4115     1
   2227   4112     1
   2228   4112     1
   2229   4138     1
   2230   4135     1
   2231   4135     1
   2233   2247     1
   2233   2248     1
   2233   2250     1
   2233   2251     1
   2233   2244     1
   2233   2245     1
   2234   2238     1
   2234   2239     1
   2234   2241     1
   2234   2242     1
   2234   2259     1
   2234   2260     1
   2235   2237     1
   2235   2240     1
   2235   2258     1
   2235   2247     1
   2235   2248     1
   2236   2237     1
   2236   2240     1
   2236   2258     1
   2236   2247     1
   2236   2248     1
   2237   2241     1
   2237   2242     1
   2237   2256     1
   2237   2257     1
   2238   2240     1
   2238   2255     1
   2238   2250     1
   2238   2251     1
   2239   2240     1
   2239   2255     1
   2239   2250     1
   2239   2251     1
   2240   2253     1
   2240   2254     1
   2241   2252     1
   2241   2244     1
   2241   2245     1
   2242   2252     1
   2242   2244     1
   2242   2245     1
   2244   2261     1
   2244   2253     1
   2244   2254     1
   2245   2261     1
   2245   2253     1
   2245   2254     1
   2247   4185     1
   2247   2259     1
   2247   2260     1
   2248   4185     1
   2248   2259     1
   2248   2260     1
   2250   4162     1
   2250   2256     1
   2250   2257     1
   2251   4162     1
   2251   2256     1
   2251   2257     1
   2255   4161     1
   2256   4158     1
   2257   4158     1
   2258   4184     1
   2259   4181     1
   2260   4181     1
   2262   2276     1
   2262   2277     1
   2262   2279     1
   2262   2280     1
   2262   2273     1
   2262   2274     1
   2263   2267     1
   2263   2268     1
   2263   2270     1
   2263   2271     1
   2263   2288     1
   2263   2289     1
   2264   2266     1
   2264   2269     1
   2264   2287     1
   2264   2276     1
   2264   2277     1
   2265   2266     1
   2265   2269     1
   2265   2287     1
   2265   2276     1
   2265   2277     1
   2266   2270     1
   2266   2271     1
   2266   2285     1
   2266   2286     1
   2267   2269     1
   2267   2284     1
   2267   2279     1
   2267   2280     1
   2268   2269     1
   2268   2284     1
   2268   2279     1
   2268   2280     1
   2269   2282     1
   2269   2283     1
   2270   2281     1
   2270   2273     1
   2270   2274     1
   2271   2281     1
   2271   2273     1
   2271   2274     1
   2273   2290     1
   2273   2282     1
   2273   2283     1
   2274   2290     1
   2274   2282     1
   2274   2283     1
   2276   4231     1
   2276   2288     1
   2276   2289     1
   2277   4231     1
   2277   2288     1
   2277   2289     1
   2279   4208     1
   2279   2285     1
   2279   2286     1
   2280   4208     1
   2280   2285     1
   2280   2286     1
   2284   4207     1
   2285   4204     1
   2286   4204     1
   2287   4230     1
   2288   4227     1
   2289   4227     1
   2291   2305     1
   2291   2306     1
   2291   2308     1
   2291   2309     1
   2291   2302     1
   2291   2303     1
   2292   2296     1
   2292   2297     1
   2292   2299     1
   2292   2300     1
   2292   2317     1
   2292   2318     1
   2293   2295     1
   2293   2298     1
   2293   2316     1
   2293   2305     1
   2293   2306     1
   2294   2295     1
   2294   2298     1
   2294   2316     1
   2294   2305     1
   2294   2306     1
   2295   2299     1
   2295   2300     1
   2295   2314     1
   2295   2315     1
   2296   2298     1
   2296   2313     1
   2296   2308     1
   2296   2309     1
   2297   2298     1
   2297   2313     1
   2297   2308     1
   2297   2309     1
   2298   2311     1
   2298   2312     1
   2299   2310     1
   2299   2302     1
   2299   2303     1
   2300   2310     1
   2300   2302     1
   2300   2303     1
   2302   2319     1
   2302   2311     1
   2302   2312     1
   2303   2319     1
   2303   2311     1
   2303   2312     1
   2305   4277     1
   2305   2317     1
   2305   2318     1
   2306   4277     1
   2306   2317     1
   2306   2318     1
   2308   4254     1
   2308   2314     1
   2308   2315     1
   2309   4254     1
   2309   2314     1
   2309   2315     1
   2313   4253     1
   2314   4250     1
   2315   4250     1
   2316   4276     1
   2317   4273     1
   2318   4273     1
   2320   2334     1
   2320   2335     1
   2320   2337     1
   2320   2338     1
   2320   2331     1
   2320   2332     1
   2321   2325     1
   2321   2326     1
   2321   2328     1
   2321   2329     1
   2321   2346     1
   2321   2347     1
   2322   2324     1
   2322   2327     1
   2322   2345     1
   2322   2334     1
   2322   2335     1
   2323   2324     1
   2323   2327     1
   2323   2345     1
   2323   2334     1
   2323   2335     1
   2324   2328     1
   2324   2329     1
   2324   2343     1
   2324   2344     1
   2325   2327     1
   2325   2342     1
   2325   2337     1
   2325   2338     1
   2326   2327     1
   2326   2342     1
   2326   2337     1
   2326   2338     1
   2327   2340     1
   2327   2341     1
   2328   2339     1
   2328   2331     1
   2328   2332     1
   2329   2339     1
   2329   2331     1
   2329   2332     1
   2331   2348     1
   2331   2340     1
   2331   2341     1
   2332   2348     1
   2332   2340     1
   2332   2341     1
   2334   4323     1
   2334   2346     1
   2334   2347     1
   2335   4323     1
   2335   2346     1
   2335   2347     1
   2337   4300     1
   2337   2343     1
   2337   2344     1
   2338   4300     1
   2338   2343     1
   2338   2344     1
   2342   4299     1
   2343   4296     1
   2344   4296     1
   2345   4322     1
   2346   4319     1
   2347   4319     1
   2349   2363     1
   2349   2364     1
   2349   2366     1
   2349   2367     1
   2349   2360     1
   2349   2361     1
   2350   2354     1
   2350   2355     1
   2350   2357     1
   2350   2358     1
   2350   2375     1
   2350   2376     1
   2351   2353     1
   2351   2356     1
   2351   2374     1
   2351   2363     1
   2351   2364     1
   2352   2353     1
   2352   2356     1
   2352   2374     1
   2352   2363     1
   2352   2364     1
   2353   2357     1
   2353   2358     1
   2353   2372     1
   2353   2373     1
   2354   2356     1
   2354   2371     1
   2354   2366     1
   2354   2367     1
   2355   2356     1
   2355   2371     1
   2355   2366     1
   2355   2367     1
   2356   2369     1
   2356   2370     1
   2357   2368     1
   2357   2360     1
   2357   2361     1
   2358   2368     1
   2358   2360     1
   2358   2361     1
   2360   2377     1
   2360   2369     1
   2360   2370     1
   2361   2377     1
   2361   2369     1
   2361   2370     1
   2363   4369     1
   2363   2375     1
   2363   2376     1
   2364   4369     1
   2364   2375     1
   2364   2376     1
   2366   4346     1
   2366   2372     1
   2366   2373     1
   2367   4346     1
   2367   2372     1
   2367   2373     1
   2371   4345     1
   2372   4342     1
   2373   4342     1
   2374   4368     1
   2375   4365     1
   2376   4365     1
   2378   2392     1
   2378   2393     1
   2378   2395     1
   2378   2396     1
   2378   2389     1
   2378   2390     1
   2379   2383     1
   2379   2384     1
   2379   2386     1
   2379   2387     1
   2379   2404     1
   2379   2405     1
   2380   2382     1
   2380   2385     1
   2380   2403     1
   2380   2392     1
   2380   2393     1
   2381   2382     1
   2381   2385     1
   2381   2403     1
   2381   2392     1
   2381   2393     1
   2382   2386     1
   2382   2387     1
   2382   2401     1
   2382   2402     1
   2383   2385     1
   2383   2400     1
   2383   2395     1
   2383   2396     1
   2384   2385     1
   2384   2400     1
   2384   2395     1
   2384   2396     1
   2385   2398     1
   2385   2399     1
   2386   2397     1
   2386   2389     1
   2386   2390     1
   2387   2397     1
   2387   2389     1
   2387   2390     1
   2389   2406     1
   2389   2398     1
   2389   2399     1
   2390   2406     1
   2390   2398     1
   2390   2399     1
   2392   4415     1
   2392   2404     1
   2392   2405     1
   2393   4415     1
   2393   2404     1
   2393   2405     1
   2395   4392     1
   2395   2401     1
   2395   2402     1
   2396   4392     1
   2396   2401     1
   2396   2402     1
   2400   4391     1
   2401   4388     1
   2402   4388     1
   2403   4414     1
   2404   4411     1
   2405   4411     1
   2407   2421     1
   2407   2422     1
   2407   2424     1
   2407   2425     1
   2407   2418     1
   2407   2419     1
   2408   2412     1
   2408   2413     1
   2408   2415     1
   2408   2416     1
   2408   2433     1
   2408   2434     1
   2409   2411     1
   2409   2414     1
   2409   2432     1
   2409   2421     1
   2409   2422     1
   2410   2411     1
   2410   2414     1
   2410   2432     1
   2410   2421     1
   2410   2422     1
   2411   2415     1
   2411   2416     1
   2411   2430     1
   2411   2431     1
   2412   2414     1
   2412   2429     1
   2412   2424     1
   2412   2425     1
   2413   2414     1
   2413   2429     1
   2413   2424     1
   2413   2425     1
   2414   2427     1
   2414   2428     1
   2415   2426     1
   2415   2418     1
   2415   2419     1
   2416   2426     1
   2416   2418     1
   2416   2419     1
   2418   2435     1
   2418   2427     1
   2418   2428     1
   2419   2435     1
   2419   2427     1
   2419   2428     1
   2421   4461     1
   2421   2433     1
   2421   2434     1
   2422   4461     1
   2422   2433     1
   2422   2434     1
   2424   4438     1
   2424   2430     1
   2424   2431     1
   2425   4438     1
   2425   2430     1
   2425   2431     1
   2429   4437     1
   2430   4434     1
   2431   4434     1
   2432   4460     1
   2433   4457     1
   2434   4457     1
   2436   2450     1
   2436   2451     1
   2436   2453     1
   2436   2454     1
   2436   2447     1
   2436   2448     1
   2437   2441     1
   2437   2442     1
   2437   2444     1
   2437   2445     1
   2437   2462     1
   2437   2463     1
   2438   2440     1
   2438   2443     1
   2438   2461     1
   2438   2450     1
   2438   2451     1
   2439   2440     1
   2439   2443     1
   2439   2461     1
   2439   2450     1
   2439   2451     1
   2440   2444     1
   2440   2445     1
   2440   2459     1
   2440   2460     1
   2441   2443     1
   2441   2458     1
   2441   2453     1
   2441   2454     1
   2442   2443     1
   2442   2458     1
   2442   2453     1
   2442   2454     1
   2443   2456     1
   2443   2457     1
   2444   2455     1
   2444   2447     1
   2444   2448     1
   2445   2455     1
   2445   2447     1
   2445   2448     1
   2447   2464     1
   2447   2456     1
   2447   2457     1
   2448   2464     1
   2448   2456     1
   2448   2457     1
   2450   4507     1
   2450   2462     1
   2450   2463     1
   2451   4507     1
   2451   2462     1
   2451   2463     1
   2453   4484     1
   2453   2459     1
   2453   2460     1
   2454   4484     1
   2454   2459     1
   2454   2460     1
   2458   4483     1
   2459   4480     1
   2460   4480     1
   2461   4506     1
   2462   4503     1
   2463   4503     1
   2465   2479     1
   2465   2480     1
   2465   2482     1
   2465   2483     1
   2465   2476     1
   2465   2477     1
   2466   2470     1
   2466   2471     1
   2466   2473     1
   2466   2474     1
   2466   2491     1
   2466   2492     1
   2467   2469     1
   2467   2472     1
   2467   2490     1
   2467   2479     1
   2467   2480     1
   2468   2469     1
   2468   2472     1
   2468   2490     1
   2468   2479     1
   2468   2480     1
   2469   2473     1
   2469   2474     1
   2469   2488     1
   2469   2489     1
   2470   2472     1
   2470   2487     1
   2470   2482     1
   2470   2483     1
   2471   2472     1
   2471   2487     1
   2471   2482     1
   2471   2483     1
   2472   2485     1
   2472   2486     1
   2473   2484     1
   2473   2476     1
   2473   2477     1
   2474   2484     1
   2474   2476     1
   2474   2477     1
   2476   2493     1
   2476   2485     1
   2476   2486     1
   2477   2493     1
   2477   2485     1
   2477   2486     1
   2479   4553     1
   2479   2491     1
   2479   2492     1
   2480   4553     1
   2480   2491     1
   2480   2492     1
   2482   4530     1
   2482   2488     1
   2482   2489     1
   2483   4530     1
   2483   2488     1
   2483   2489     1
   2487   4529     1
   2488   4526     1
   2489   4526     1
   2490   4552     1
   2491   4549     1
   2492   4549     1
   2494   2508     1
   2494   2509     1
   2494   2511     1
   2494   2512     1
   2494   2505     1
   2494   2506     1
   2495   2499     1
   2495   2500     1
   2495   2502     1
   2495   2503     1
   2495   2520     1
   2495   2521     1
   2496   2498     1
   2496   2501     1
   2496   2519     1
   2496   2508     1
   2496   2509     1
   2497   2498     1
   2497   2501     1
   2497   2519     1
   2497   2508     1
   2497   2509     1
   2498   2502     1
   2498   2503     1
   2498   2517     1
   2498   2518     1
   2499   2501     1
   2499   2516     1
   2499   2511     1
   2499   2512     1
   2500   2501     1
   2500   2516     1
   2500   2511     1
   2500   2512     1
   2501   2514     1
   2501   2515     1
   2502   2513     1
   2502   2505     1
   2502   2506     1
   2503   2513     1
   2503   2505     1
   2503   2506     1
   2505   2522     1
   2505   2514     1
   2505   2515     1
   2506   2522     1
   2506   2514     1
   2506   2515     1
   2508   4599     1
   2508   2520     1
   2508   2521     1
   2509   4599     1
   2509   2520     1
   2509   2521     1
   2511   4576     1
   2511   2517     1
   2511   2518     1
   2512   4576     1
   2512   2517     1
   2512   2518     1
   2516   4575     1
   2517   4572     1
   2518   4572     1
   2519   4598     1
   2520   4595     1
   2521   4595     1
   2523   2537     1
   2523   2538     1
   2523   2540     1
   2523   2541     1
   2523   2534     1
   2523   2535     1
   2524   2528     1
   2524   2529     1
   2524   2531     1
   2524   2532     1
   2524   2549     1
   2524   2550     1
   2525   2527     1
   2525   2530     1
   2525   2548     1
   2525   2537     1
   2525   2538     1
   2526   2527     1
   2526   2530     1
   2526   2548     1
   2526   2537     1
   2526   2538     1
   2527   2531     1
   2527   2532     1
   2527   2546     1
   2527   2547     1
   2528   2530     1
   2528   2545     1
   2528   2540     1
   2528   2541     1
   2529   2530     1
   2529   2545     1
   2529   2540     1
   2529   2541     1
   2530   2543     1
   2530   2544     1
   2531   2542     1
   2531   2534     1
   2531   2535     1
   2532   2542     1
   2532   2534     1
   2532   2535     1
   2534   2551     1
   2534   2543     1
   2534   2544     1
   2535   2551     1
   2535   2543     1
   2535   2544     1
   2537   4645     1
   2537   2549     1
   2537   2550     1
   2538   4645     1
   2538   2549     1
   2538   2550     1
   2540   4622     1
   2540   2546     1
   2540   2547     1
   2541   4622     1
   2541   2546     1
   2541   2547     1
   2545   4621     1
   2546   4618     1
   2547   4618     1
   2548   4644     1
   2549   4641     1
   2550   4641     1
   2552   2566     1
   2552   2567     1
   2552   2569     1
   2552   2570     1
   2552   2563     1
   2552   2564     1
   2553   2557     1
   2553   2558     1
   2553   2560     1
   2553   2561     1
   2553   2578     1
   2553   2579     1
   2554   2556     1
   2554   2559     1
   2554   2577     1
   2554   2566     1
   2554   2567     1
   2555   2556     1
   2555   2559     1
   2555   2577     1
   2555   2566     1
   2555   2567     1
   2556   2560     1
   2556   2561     1
   2556   2575     1
   2556   2576     1
   2557   2559     1
   2557   2574     1
   2557   2569     1
   2557   2570     1
   2558   2559     1
   2558   2574     1
   2558   2569     1
   2558   2570     1
   2559   2572     1
   2559   2573     1
   2560   2571     1
   2560   2563     1
   2560   2564     1
   2561   2571     1
   2561   2563     1
   2561   2564     1
   2563   2580     1
   2563   2572     1
   2563   2573     1
   2564   2580     1
   2564   2572     1
   2564   2573     1
   2566   4691     1
   2566   2578     1
   2566   2579     1
   2567   4691     1
   2567   2578     1
   2567   2579     1
   2569   4668     1
   2569   2575     1
   2569   2576     1
   2570   4668     1
   2570   2575     1
   2570   2576     1
   2574   4667     1
   2575   4664     1
   2576   4664     1
   2577   4690     1
   2578   4687     1
   2579   4687     1
   2581   2595     1
   2581   2596     1
   2581   2598     1
   2581   2599     1
   2581   2592     1
   2581   2593     1
   2582   2586     1
   2582   2587     1
   2582   2589     1
   2582   2590     1
   2582   2607     1
   2582   2608     1
   2583   2585     1
   2583   2588     1
   2583   2606     1
   2583   2595     1
   2583   2596     1
   2584   2585     1
   2584   2588     1
   2584   2606     1
   2584   2595     1
   2584   2596     1
   2585   2589     1
   2585   2590     1
   2585   2604     1
   2585   2605     1
   2586   2588     1
   2586   2603     1
   2586   2598     1
   2586   2599     1
   2587   2588     1
   2587   2603     1
   2587   2598     1
   2587   2599     1
   2588   2601     1
   2588   2602     1
   2589   2600     1
   2589   2592     1
   2589   2593     1
   2590   2600     1
   2590   2592     1
   2590   2593     1
   2592   2609     1
   2592   2601     1
   2592   2602     1
   2593   2609     1
   2593   2601     1
   2593   2602     1
   2595   4737     1
   2595   2607     1
   2595   2608     1
   2596   4737     1
   2596   2607     1
   2596   2608     1
   2598   4714     1
   2598   2604     1
   2598   2605     1
   2599   4714     1
   2599   2604     1
   2599   2605     1
   2603   4713     1
   2604   4710     1
   2605   4710     1
   2606   4736     1
   2607   4733     1
   2608   4733     1
   2610   2624     1
   2610   2625     1
   2610   2627     1
   2610   2628     1
   2610   2621     1
   2610   2622     1
   2611   2615     1
   2611   2616     1
   2611   2618     1
   2611   2619     1
   2611   2636     1
   2611   2637     1
   2612   2614     1
   2612   2617     1
   2612   2635     1
   2612   2624     1
   2612   2625     1
   2613   2614     1
   2613   2617     1
   2613   2635     1
   2613   2624     1
   2613   2625     1
   2614   2618     1
   2614   2619     1
   2614   2633     1
   2614   2634     1
   2615   2617     1
   2615   2632     1
   2615   2627     1
   2615   2628     1
   2616   2617     1
   2616   2632     1
   2616   2627     1
   2616   2628     1
   2617   2630     1
   2617   2631     1
   2618   2629     1
   2618   2621     1
   2618   2622     1
   2619   2629     1
   2619   2621     1
   2619   2622     1
   2621   2638     1
   2621   2630     1
   2621   2631     1
   2622   2638     1
   2622   2630     1
   2622   2631     1
   2624   4783     1
   2624   2636     1
   2624   2637     1
   2625   4783     1
   2625   2636     1
   2625   2637     1
   2627   4760     1
   2627   2633     1
   2627   2634     1
   2628   4760     1
   2628   2633     1
   2628   2634     1
   2632   4759     1
   2633   4756     1
   2634   4756     1
   2635   4782     1
   2636   4779     1
   2637   4779     1
   2639   2653     1
   2639   2654     1
   2639   2656     1
   2639   2657     1
   2639   2650     1
   2639   2651     1
   2640   2644     1
   2640   2645     1
   2640   2647     1
   2640   2648     1
   2640   2665     1
   2640   2666     1
   2641   2643     1
   2641   2646     1
   2641   2664     1
   2641   2653     1
   2641   2654     1
   2642   2643     1
   2642   2646     1
   2642   2664     1
   2642   2653     1
   2642   2654     1
   2643   2647     1
   2643   2648     1
   2643   2662     1
   2643   2663     1
   2644   2646     1
   2644   2661     1
   2644   2656     1
   2644   2657     1
   2645   2646     1
   2645   2661     1
   2645   2656     1
   2645   2657     1
   2646   2659     1
   2646   2660     1
   2647   2658     1
   2647   2650     1
   2647   2651     1
   2648   2658     1
   2648   2650     1
   2648   2651     1
   2650   2667     1
   2650   2659     1
   2650   2660     1
   2651   2667     1
   2651   2659     1
   2651   2660     1
   2653   4829     1
   2653   2665     1
   2653   2666     1
   2654   4829     1
   2654   2665     1
   2654   2666     1
   2656   4806     1
   2656   2662     1
   2656   2663     1
   2657   4806     1
   2657   2662     1
   2657   2663     1
   2661   4805     1
   2662   4802     1
   2663   4802     1
   2664   4828     1
   2665   4825     1
   2666   4825     1
   2668   2682     1
   2668   2683     1
   2668   2685     1
   2668   2686     1
   2668   2679     1
   2668   2680     1
   2669   2673     1
   2669   2674     1
   2669   2676     1
   2669   2677     1
   2669   2694     1
   2669   2695     1
   2670   2672     1
   2670   2675     1
   2670   2693     1
   2670   2682     1
   2670   2683     1
   2671   2672     1
   2671   2675     1
   2671   2693     1
   2671   2682     1
   2671   2683     1
   2672   2676     1
   2672   2677     1
   2672   2691     1
   2672   2692     1
   2673   2675     1
   2673   2690     1
   2673   2685     1
   2673   2686     1
   2674   2675     1
   2674   2690     1
   2674   2685     1
   2674   2686     1
   2675   2688     1
   2675   2689     1
   2676   2687     1
   2676   2679     1
   2676   2680     1
   2677   2687     1
   2677   2679     1
   2677   2680     1
   2679   2696     1
   2679   2688     1
   2679   2689     1
   2680   2696     1
   2680   2688     1
   2680   2689     1
   2682   4875     1
   2682   2694     1
   2682   2695     1
   2683   4875     1
   2683   2694     1
   2683   2695     1
   2685   4852     1
   2685   2691     1
   2685   2692     1
   2686   4852     1
   2686   2691     1
   2686   2692     1
   2690   4851     1
   2691   4848     1
   2692   4848     1
   2693   4874     1
   2694   4871     1
   2695   4871     1
   2697   2711     1
   2697   2712     1
   2697   2714     1
   2697   2715     1
   2697   2708     1
   2697   2709     1
   2698   2702     1
   2698   2703     1
   2698   2705     1
   2698   2706     1
   2698   2723     1
   2698   2724     1
   2699   2701     1
   2699   2704     1
   2699   2722     1
   2699   2711     1
   2699   2712     1
   2700   2701     1
   2700   2704     1
   2700   2722     1
   2700   2711     1
   2700   2712     1
   2701   2705     1
   2701   2706     1
   2701   2720     1
   2701   2721     1
   2702   2704     1
   2702   2719     1
   2702   2714     1
   2702   2715     1
   2703   2704     1
   2703   2719     1
   2703   2714     1
   2703   2715     1
   2704   2717     1
   2704   2718     1
   2705   2716     1
   2705   2708     1
   2705   2709     1
   2706   2716     1
   2706   2708     1
   2706   2709     1
   2708   2725     1
   2708   2717     1
   2708   2718     1
   2709   2725     1
   2709   2717     1
   2709   2718     1
   2711   4921     1
   2711   2723     1
   2711   2724     1
   2712   4921     1
   2712   2723     1
   2712   2724     1
   2714   4898     1
   2714   2720     1
   2714   2721     1
   2715   4898     1
   2715   2720     1
   2715   2721     1
   2719   4897     1
   2720   4894     1
   2721   4894     1
   2722   4920     1
   2723   4917     1
   2724   4917     1
   2726   2734     1
   2726   2742     1
   2726   2747     1
   2726   2735     1
   2727   2744     1
   2727   2745     1
   2727   2733     1
   2727   2741     1
   2728   2730     1
   2728   2739     1
   2728   2729     1
   2728   2746     1
   2728   2744     1
   2728   2745     1
   2728   2732     1
   2729   2740     1
   2729   2748     1
   2729   2731     1
   2729   2738     1
   2729   2734     1
   2729   2742     1
   2730   2742     1
   2730   2735     1
   2730   2743     1
   2731   2741     1
   2732   2734     1
   2732   2743     1
   2733   2738     1
   2733   2734     1
   2733   2736     1
   2733   2748     1
   2733   2735     1
   2733   2743     1
   2734   2739     1
   2734   2737     1
   2734   2741     1
   2735   2737     1
   2744   2748     1
   2744   2747     1
   2745   2748     1
   2745   2747     1
   2749   2757     1
   2749   2765     1
   2749   2770     1
   2749   2758     1
   2750   2756     1
   2750   2764     1
   2750   2767     1
   2750   2768     1
   2751   2753     1
   2751   2762     1
   2751   2752     1
   2751   2769     1
   2751   2767     1
   2751   2768     1
   2751   2755     1
   2752   2754     1
   2752   2761     1
   2752   2757     1
   2752   2765     1
   2752   2763     1
   2752   2771     1
   2753   2758     1
   2753   2766     1
   2753   2765     1
   2754   2764     1
   2755   2766     1
   2755   2757     1
   2756   2759     1
   2756   2771     1
   2756   2758     1
   2756   2766     1
   2756   2761     1
   2756   2757     1
   2757   2760     1
   2757   2764     1
   2757   2762     1
   2758   2760     1
   2767   2770     1
   2767   2771     1
   2768   2770     1
   2768   2771     1
   2772   2780     1
   2772   2788     1
   2772   2793     1
   2772   2781     1
   2773   2790     1
   2773   2791     1
   2773   2779     1
   2773   2787     1
   2774   2776     1
   2774   2785     1
   2774   2775     1
   2774   2792     1
   2774   2790     1
   2774   2791     1
   2774   2778     1
   2775   2786     1
   2775   2794     1
   2775   2777     1
   2775   2784     1
   2775   2780     1
   2775   2788     1
   2776   2788     1
   2776   2781     1
   2776   2789     1
   2777   2787     1
   2778   2780     1
   2778   2789     1
   2779   2784     1
   2779   2780     1
   2779   2782     1
   2779   2794     1
   2779   2781     1
   2779   2789     1
   2780   2785     1
   2780   2783     1
   2780   2787     1
   2781   2783     1
   2790   2794     1
   2790   2793     1
   2791   2794     1
   2791   2793     1
   2795   2803     1
   2795   2811     1
   2795   2816     1
   2795   2804     1
   2796   2802     1
   2796   2810     1
   2796   2813     1
   2796   2814     1
   2797   2799     1
   2797   2808     1
   2797   2798     1
   2797   2815     1
   2797   2813     1
   2797   2814     1
   2797   2801     1
   2798   2800     1
   2798   2807     1
   2798   2803     1
   2798   2811     1
   2798   2809     1
   2798   2817     1
   2799   2804     1
   2799   2812     1
   2799   2811     1
   2800   2810     1
   2801   2812     1
   2801   2803     1
   2802   2805     1
   2802   2817     1
   2802   2804     1
   2802   2812     1
   2802   2807     1
   2802   2803     1
   2803   2806     1
   2803   2810     1
   2803   2808     1
   2804   2806     1
   2813   2816     1
   2813   2817     1
   2814   2816     1
   2814   2817     1
   2818   2826     1
   2818   2834     1
   2818   2839     1
   2818   2827     1
   2819   2836     1
   2819   2837     1
   2819   2825     1
   2819   2833     1
   2820   2822     1
   2820   2831     1
   2820   2821     1
   2820   2838     1
   2820   2836     1
   2820   2837     1
   2820   2824     1
   2821   2832     1
   2821   2840     1
   2821   2823     1
   2821   2830     1
   2821   2826     1
   2821   2834     1
   2822   2834     1
   2822   2827     1
   2822   2835     1
   2823   2833     1
   2824   2826     1
   2824   2835     1
   2825   2830     1
   2825   2826     1
   2825   2828     1
   2825   2840     1
   2825   2827     1
   2825   2835     1
   2826   2831     1
   2826   2829     1
   2826   2833     1
   2827   2829     1
   2836   2840     1
   2836   2839     1
   2837   2840     1
   2837   2839     1
   2841   2849     1
   2841   2857     1
   2841   2862     1
   2841   2850     1
   2842   2848     1
   2842   2856     1
   2842   2859     1
   2842   2860     1
   2843   2845     1
   2843   2854     1
   2843   2844     1
   2843   2861     1
   2843   2859     1
   2843   2860     1
   2843   2847     1
   2844   2846     1
   2844   2853     1
   2844   2849     1
   2844   2857     1
   2844   2855     1
   2844   2863     1
   2845   2850     1
   2845   2858     1
   2845   2857     1
   2846   2856     1
   2847   2858     1
   2847   2849     1
   2848   2851     1
   2848   2863     1
   2848   2850     1
   2848   2858     1
   2848   2853     1
   2848   2849     1
   2849   2852     1
   2849   2856     1
   2849   2854     1
   2850   2852     1
   2859   2862     1
   2859   2863     1
   2860   2862     1
   2860   2863     1
   2864   2872     1
   2864   2880     1
   2864   2885     1
   2864   2873     1
   2865   2882     1
   2865   2883     1
   2865   2871     1
   2865   2879     1
   2866   2868     1
   2866   2877     1
   2866   2867     1
   2866   2884     1
   2866   2882     1
   2866   2883     1
   2866   2870     1
   2867   2878     1
   2867   2886     1
   2867   2869     1
   2867   2876     1
   2867   2872     1
   2867   2880     1
   2868   2880     1
   2868   2873     1
   2868   2881     1
   2869   2879     1
   2870   2872     1
   2870   2881     1
   2871   2876     1
   2871   2872     1
   2871   2874     1
   2871   2886     1
   2871   2873     1
   2871   2881     1
   2872   2877     1
   2872   2875     1
   2872   2879     1
   2873   2875     1
   2882   2886     1
   2882   2885     1
   2883   2886     1
   2883   2885     1
   2887   2895     1
   2887   2903     1
   2887   2908     1
   2887   2896     1
   2888   2894     1
   2888   2902     1
   2888   2905     1
   2888   2906     1
   2889   2891     1
   2889   2900     1
   2889   2890     1
   2889   2907     1
   2889   2905     1
   2889   2906     1
   2889   2893     1
   2890   2892     1
   2890   2899     1
   2890   2895     1
   2890   2903     1
   2890   2901     1
   2890   2909     1
   2891   2896     1
   2891   2904     1
   2891   2903     1
   2892   2902     1
   2893   2904     1
   2893   2895     1
   2894   2897     1
   2894   2909     1
   2894   2896     1
   2894   2904     1
   2894   2899     1
   2894   2895     1
   2895   2898     1
   2895   2902     1
   2895   2900     1
   2896   2898     1
   2905   2908     1
   2905   2909     1
   2906   2908     1
   2906   2909     1
   2910   2918     1
   2910   2926     1
   2910   2931     1
   2910   2919     1
   2911   2928     1
   2911   2929     1
   2911   2917     1
   2911   2925     1
   2912   2914     1
   2912   2923     1
   2912   2913     1
   2912   2930     1
   2912   2928     1
   2912   2929     1
   2912   2916     1
   2913   2924     1
   2913   2932     1
   2913   2915     1
   2913   2922     1
   2913   2918     1
   2913   2926     1
   2914   2926     1
   2914   2919     1
   2914   2927     1
   2915   2925     1
   2916   2918     1
   2916   2927     1
   2917   2922     1
   2917   2918     1
   2917   2920     1
   2917   2932     1
   2917   2919     1
   2917   2927     1
   2918   2923     1
   2918   2921     1
   2918   2925     1
   2919   2921     1
   2928   2932     1
   2928   2931     1
   2929   2932     1
   2929   2931     1
   2933   2941     1
   2933   2949     1
   2933   2954     1
   2933   2942     1
   2934   2940     1
   2934   2948     1
   2934   2951     1
   2934   2952     1
   2935   2937     1
   2935   2946     1
   2935   2936     1
   2935   2953     1
   2935   2951     1
   2935   2952     1
   2935   2939     1
   2936   2938     1
   2936   2945     1
   2936   2941     1
   2936   2949     1
   2936   2947     1
   2936   2955     1
   2937   2942     1
   2937   2950     1
   2937   2949     1
   2938   2948     1
   2939   2950     1
   2939   2941     1
   2940   2943     1
   2940   2955     1
   2940   2942     1
   2940   2950     1
   2940   2945     1
   2940   2941     1
   2941   2944     1
   2941   2948     1
   2941   2946     1
   2942   2944     1
   2951   2954     1
   2951   2955     1
   2952   2954     1
   2952   2955     1
   2956   2964     1
   2956   2972     1
   2956   2977     1
   2956   2965     1
   2957   2974     1
   2957   2975     1
   2957   2963     1
   2957   2971     1
   2958   2960     1
   2958   2969     1
   2958   2959     1
   2958   2976     1
   2958   2974     1
   2958   2975     1
   2958   2962     1
   2959   2970     1
   2959   2978     1
   2959   2961     1
   2959   2968     1
   2959   2964     1
   2959   2972     1
   2960   2972     1
   2960   2965     1
   2960   2973     1
   2961   2971     1
   2962   2964     1
   2962   2973     1
   2963   2968     1
   2963   2964     1
   2963   2966     1
   2963   2978     1
   2963   2965     1
   2963   2973     1
   2964   2969     1
   2964   2967     1
   2964   2971     1
   2965   2967     1
   2974   2978     1
   2974   2977     1
   2975   2978     1
   2975   2977     1
   2979   2987     1
   2979   2995     1
   2979   3000     1
   2979   2988     1
   2980   2986     1
   2980   2994     1
   2980   2997     1
   2980   2998     1
   2981   2983     1
   2981   2992     1
   2981   2982     1
   2981   2999     1
   2981   2997     1
   2981   2998     1
   2981   2985     1
   2982   2984     1
   2982   2991     1
   2982   2987     1
   2982   2995     1
   2982   2993     1
   2982   3001     1
   2983   2988     1
   2983   2996     1
   2983   2995     1
   2984   2994     1
   2985   2996     1
   2985   2987     1
   2986   2989     1
   2986   3001     1
   2986   2988     1
   2986   2996     1
   2986   2991     1
   2986   2987     1
   2987   2990     1
   2987   2994     1
   2987   2992     1
   2988   2990     1
   2997   3000     1
   2997   3001     1
   2998   3000     1
   2998   3001     1
   3002   3010     1
   3002   3018     1
   3002   3023     1
   3002   3011     1
   3003   3020     1
   3003   3021     1
   3003   3009     1
   3003   3017     1
   3004   3006     1
   3004   3015     1
   3004   3005     1
   3004   3022     1
   3004   3020     1
   3004   3021     1
   3004   3008     1
   3005   3016     1
   3005   3024     1
   3005   3007     1
   3005   3014     1
   3005   3010     1
   3005   3018     1
   3006   3018     1
   3006   3011     1
   3006   3019     1
   3007   3017     1
   3008   3010     1
   3008   3019     1
   3009   3014     1
   3009   3010     1
   3009   3012     1
   3009   3024     1
   3009   3011     1
   3009   3019     1
   3010   3015     1
   3010   3013     1
   3010   3017     1
   3011   3013     1
   3020   3024     1
   3020   3023     1
   3021   3024     1
   3021   3023     1
   3025   3033     1
   3025   3041     1
   3025   3046     1
   3025   3034     1
   3026   3032     1
   3026   3040     1
   3026   3043     1
   3026   3044     1
   3027   3029     1
   3027   3038     1
   3027   3028     1
   3027   3045     1
   3027   3043     1
   3027   3044     1
   3027   3031     1
   3028   3030     1
   3028   3037     1
   3028   3033     1
   3028   3041     1
   3028   3039     1
   3028   3047     1
   3029   3034     1
   3029   3042     1
   3029   3041     1
   3030   3040     1
   3031   3042     1
   3031   3033     1
   3032   3035     1
   3032   3047     1
   3032   3034     1
   3032   3042     1
   3032   3037     1
   3032   3033     1
   3033   3036     1
   3033   3040     1
   3033   3038     1
   3034   3036     1
   3043   3046     1
   3043   3047     1
   3044   3046     1
   3044   3047     1
   3048   3056     1
   3048   3064     1
   3048   3069     1
   3048   3057     1
   3049   3066     1
   3049   3067     1
   3049   3055     1
   3049   3063     1
   3050   3052     1
   3050   3061     1
   3050   3051     1
   3050   3068     1
   3050   3066     1
   3050   3067     1
   3050   3054     1
   3051   3062     1
   3051   3070     1
   3051   3053     1
   3051   3060     1
   3051   3056     1
   3051   3064     1
   3052   3064     1
   3052   3057     1
   3052   3065     1
   3053   3063     1
   3054   3056     1
   3054   3065     1
   3055   3060     1
   3055   3056     1
   3055   3058     1
   3055   3070     1
   3055   3057     1
   3055   3065     1
   3056   3061     1
   3056   3059     1
   3056   3063     1
   3057   3059     1
   3066   3070     1
   3066   3069     1
   3067   3070     1
   3067   3069     1
   3071   3079     1
   3071   3087     1
   3071   3092     1
   3071   3080     1
   3072   3078     1
   3072   3086     1
   3072   3089     1
   3072   3090     1
   3073   3075     1
   3073   3084     1
   3073   3074     1
   3073   3091     1
   3073   3089     1
   3073   3090     1
   3073   3077     1
   3074   3076     1
   3074   3083     1
   3074   3079     1
   3074   3087     1
   3074   3085     1
   3074   3093     1
   3075   3080     1
   3075   3088     1
   3075   3087     1
   3076   3086     1
   3077   3088     1
   3077   3079     1
   3078   3081     1
   3078   3093     1
   3078   3080     1
   3078   3088     1
   3078   3083     1
   3078   3079     1
   3079   3082     1
   3079   3086     1
   3079   3084     1
   3080   3082     1
   3089   3092     1
   3089   3093     1
   3090   3092     1
   3090   3093     1
   3094   3102     1
   3094   3110     1
   3094   3115     1
   3094   3103     1
   3095   3112     1
   3095   3113     1
   3095   3101     1
   3095   3109     1
   3096   3098     1
   3096   3107     1
   3096   3097     1
   3096   3114     1
   3096   3112     1
   3096   3113     1
   3096   3100     1
   3097   3108     1
   3097   3116     1
   3097   3099     1
   3097   3106     1
   3097   3102     1
   3097   3110     1
   3098   3110     1
   3098   3103     1
   3098   3111     1
   3099   3109     1
   3100   3102     1
   3100   3111     1
   3101   3106     1
   3101   3102     1
   3101   3104     1
   3101   3116     1
   3101   3103     1
   3101   3111     1
   3102   3107     1
   3102   3105     1
   3102   3109     1
   3103   3105     1
   3112   3116     1
   3112   3115     1
   3113   3116     1
   3113   3115     1
   3117   3125     1
   3117   3133     1
   3117   3138     1
   3117   3126     1
   3118   3124     1
   3118   3132     1
   3118   3135     1
   3118   3136     1
   3119   3121     1
   3119   3130     1
   3119   3120     1
   3119   3137     1
   3119   3135     1
   3119   3136     1
   3119   3123     1
   3120   3122     1
   3120   3129     1
   3120   3125     1
   3120   3133     1
   3120   3131     1
   3120   3139     1
   3121   3126     1
   3121   3134     1
   3121   3133     1
   3122   3132     1
   3123   3134     1
   3123   3125     1
   3124   3127     1
   3124   3139     1
   3124   3126     1
   3124   3134     1
   3124   3129     1
   3124   3125     1
   3125   3128     1
   3125   3132     1
   3125   3130     1
   3126   3128     1
   3135   3138     1
   3135   3139     1
   3136   3138     1
   3136   3139     1
   3140   3148     1
   3140   3156     1
   3140   3161     1
   3140   3149     1
   3141   3158     1
   3141   3159     1
   3141   3147     1
   3141   3155     1
   3142   3144     1
   3142   3153     1
   3142   3143     1
   3142   3160     1
   3142   3158     1
   3142   3159     1
   3142   3146     1
   3143   3154     1
   3143   3162     1
   3143   3145     1
   3143   3152     1
   3143   3148     1
   3143   3156     1
   3144   3156     1
   3144   3149     1
   3144   3157     1
   3145   3155     1
   3146   3148     1
   3146   3157     1
   3147   3152     1
   3147   3148     1
   3147   3150     1
   3147   3162     1
   3147   3149     1
   3147   3157     1
   3148   3153     1
   3148   3151     1
   3148   3155     1
   3149   3151     1
   3158   3162     1
   3158   3161     1
   3159   3162     1
   3159   3161     1
   3163   3171     1
   3163   3179     1
   3163   3184     1
   3163   3172     1
   3164   3170     1
   3164   3178     1
   3164   3181     1
   3164   3182     1
   3165   3167     1
   3165   3176     1
   3165   3166     1
   3165   3183     1
   3165   3181     1
   3165   3182     1
   3165   3169     1
   3166   3168     1
   3166   3175     1
   3166   3171     1
   3166   3179     1
   3166   3177     1
   3166   3185     1
   3167   3172     1
   3167   3180     1
   3167   3179     1
   3168   3178     1
   3169   3180     1
   3169   3171     1
   3170   3173     1
   3170   3185     1
   3170   3172     1
   3170   3180     1
   3170   3175     1
   3170   3171     1
   3171   3174     1
   3171   3178     1
   3171   3176     1
   3172   3174     1
   3181   3184     1
   3181   3185     1
   3182   3184     1
   3182   3185     1
   3186   3194     1
   3186   3202     1
   3186   3207     1
   3186   3195     1
   3187   3204     1
   3187   3205     1
   3187   3193     1
   3187   3201     1
   3188   3190     1
   3188   3199     1
   3188   3189     1
   3188   3206     1
   3188   3204     1
   3188   3205     1
   3188   3192     1
   3189   3200     1
   3189   3208     1
   3189   3191     1
   3189   3198     1
   3189   3194     1
   3189   3202     1
   3190   3202     1
   3190   3195     1
   3190   3203     1
   3191   3201     1
   3192   3194     1
   3192   3203     1
   3193   3198     1
   3193   3194     1
   3193   3196     1
   3193   3208     1
   3193   3195     1
   3193   3203     1
   3194   3199     1
   3194   3197     1
   3194   3201     1
   3195   3197     1
   3204   3208     1
   3204   3207     1
   3205   3208     1
   3205   3207     1
   3209   3217     1
   3209   3225     1
   3209   3230     1
   3209   3218     1
   3210   3216     1
   3210   3224     1
   3210   3227     1
   3210   3228     1
   3211   3213     1
   3211   3222     1
   3211   3212     1
   3211   3229     1
   3211   3227     1
   3211   3228     1
   3211   3215     1
   3212   3214     1
   3212   3221     1
   3212   3217     1
   3212   3225     1
   3212   3223     1
   3212   3231     1
   3213   3218     1
   3213   3226     1
   3213   3225     1
   3214   3224     1
   3215   3226     1
   3215   3217     1
   3216   3219     1
   3216   3231     1
   3216   3218     1
   3216   3226     1
   3216   3221     1
   3216   3217     1
   3217   3220     1
   3217   3224     1
   3217   3222     1
   3218   3220     1
   3227   3230     1
   3227   3231     1
   3228   3230     1
   3228   3231     1
   3232   3240     1
   3232   3248     1
   3232   3253     1
   3232   3241     1
   3233   3250     1
   3233   3251     1
   3233   3239     1
   3233   3247     1
   3234   3236     1
   3234   3245     1
   3234   3235     1
   3234   3252     1
   3234   3250     1
   3234   3251     1
   3234   3238     1
   3235   3246     1
   3235   3254     1
   3235   3237     1
   3235   3244     1
   3235   3240     1
   3235   3248     1
   3236   3248     1
   3236   3241     1
   3236   3249     1
   3237   3247     1
   3238   3240     1
   3238   3249     1
   3239   3244     1
   3239   3240     1
   3239   3242     1
   3239   3254     1
   3239   3241     1
   3239   3249     1
   3240   3245     1
   3240   3243     1
   3240   3247     1
   3241   3243     1
   3250   3254     1
   3250   3253     1
   3251   3254     1
   3251   3253     1
   3255   3263     1
   3255   3271     1
   3255   3276     1
   3255   3264     1
   3256   3262     1
   3256   3270     1
   3256   3273     1
   3256   3274     1
   3257   3259     1
   3257   3268     1
   3257   3258     1
   3257   3275     1
   3257   3273     1
   3257   3274     1
   3257   3261     1
   3258   3260     1
   3258   3267     1
   3258   3263     1
   3258   3271     1
   3258   3269     1
   3258   3277     1
   3259   3264     1
   3259   3272     1
   3259   3271     1
   3260   3270     1
   3261   3272     1
   3261   3263     1
   3262   3265     1
   3262   3277     1
   3262   3264     1
   3262   3272     1
   3262   3267     1
   3262   3263     1
   3263   3266     1
   3263   3270     1
   3263   3268     1
   3264   3266     1
   3273   3276     1
   3273   3277     1
   3274   3276     1
   3274   3277     1
   3278   3286     1
   3278   3294     1
   3278   3299     1
   3278   3287     1
   3279   3296     1
   3279   3297     1
   3279   3285     1
   3279   3293     1
   3280   3282     1
   3280   3291     1
   3280   3281     1
   3280   3298     1
   3280   3296     1
   3280   3297     1
   3280   3284     1
   3281   3292     1
   3281   3300     1
   3281   3283     1
   3281   3290     1
   3281   3286     1
   3281   3294     1
   3282   3294     1
   3282   3287     1
   3282   3295     1
   3283   3293     1
   3284   3286     1
   3284   3295     1
   3285   3290     1
   3285   3286     1
   3285   3288     1
   3285   3300     1
   3285   3287     1
   3285   3295     1
   3286   3291     1
   3286   3289     1
   3286   3293     1
   3287   3289     1
   3296   3300     1
   3296   3299     1
   3297   3300     1
   3297   3299     1
   3301   3309     1
   3301   3317     1
   3301   3322     1
   3301   3310     1
   3302   3308     1
   3302   3316     1
   3302   3319     1
   3302   3320     1
   3303   3305     1
   3303   3314     1
   3303   3304     1
   3303   3321     1
   3303   3319     1
   3303   3320     1
   3303   3307     1
   3304   3306     1
   3304   3313     1
   3304   3309     1
   3304   3317     1
   3304   3315     1
   3304   3323     1
   3305   3310     1
   3305   3318     1
   3305   3317     1
   3306   3316     1
   3307   3318     1
   3307   3309     1
   3308   3311     1
   3308   3323     1
   3308   3310     1
   3308   3318     1
   3308   3313     1
   3308   3309     1
   3309   3312     1
   3309   3316     1
   3309   3314     1
   3310   3312     1
   3319   3322     1
   3319   3323     1
   3320   3322     1
   3320   3323     1
   3324   3332     1
   3324   3340     1
   3324   3345     1
   3324   3333     1
   3325   3342     1
   3325   3343     1
   3325   3331     1
   3325   3339     1
   3326   3328     1
   3326   3337     1
   3326   3327     1
   3326   3344     1
   3326   3342     1
   3326   3343     1
   3326   3330     1
   3327   3338     1
   3327   3346     1
   3327   3329     1
   3327   3336     1
   3327   3332     1
   3327   3340     1
   3328   3340     1
   3328   3333     1
   3328   3341     1
   3329   3339     1
   3330   3332     1
   3330   3341     1
   3331   3336     1
   3331   3332     1
   3331   3334     1
   3331   3346     1
   3331   3333     1
   3331   3341     1
   3332   3337     1
   3332   3335     1
   3332   3339     1
   3333   3335     1
   3342   3346     1
   3342   3345     1
   3343   3346     1
   3343   3345     1
   3347   3355     1
   3347   3363     1
   3347   3368     1
   3347   3356     1
   3348   3354     1
   3348   3362     1
   3348   3365     1
   3348   3366     1
   3349   3351     1
   3349   3360     1
   3349   3350     1
   3349   3367     1
   3349   3365     1
   3349   3366     1
   3349   3353     1
   3350   3352     1
   3350   3359     1
   3350   3355     1
   3350   3363     1
   3350   3361     1
   3350   3369     1
   3351   3356     1
   3351   3364     1
   3351   3363     1
   3352   3362     1
   3353   3364     1
   3353   3355     1
   3354   3357     1
   3354   3369     1
   3354   3356     1
   3354   3364     1
   3354   3359     1
   3354   3355     1
   3355   3358     1
   3355   3362     1
   3355   3360     1
   3356   3358     1
   3365   3368     1
   3365   3369     1
   3366   3368     1
   3366   3369     1
   3370   3378     1
   3370   3386     1
   3370   3391     1
   3370   3379     1
   3371   3388     1
   3371   3389     1
   3371   3377     1
   3371   3385     1
   3372   3374     1
   3372   3383     1
   3372   3373     1
   3372   3390     1
   3372   3388     1
   3372   3389     1
   3372   3376     1
   3373   3384     1
   3373   3392     1
   3373   3375     1
   3373   3382     1
   3373   3378     1
   3373   3386     1
   3374   3386     1
   3374   3379     1
   3374   3387     1
   3375   3385     1
   3376   3378     1
   3376   3387     1
   3377   3382     1
   3377   3378     1
   3377   3380     1
   3377   3392     1
   3377   3379     1
   3377   3387     1
   3378   3383     1
   3378   3381     1
   3378   3385     1
   3379   3381     1
   3388   3392     1
   3388   3391     1
   3389   3392     1
   3389   3391     1
   3393   3401     1
   3393   3409     1
   3393   3414     1
   3393   3402     1
   3394   3400     1
   3394   3408     1
   3394   3411     1
   3394   3412     1
   3395   3397     1
   3395   3406     1
   3395   3396     1
   3395   3413     1
   3395   3411     1
   3395   3412     1
   3395   3399     1
   3396   3398     1
   3396   3405     1
   3396   3401     1
   3396   3409     1
   3396   3407     1
   3396   3415     1
   3397   3402     1
   3397   3410     1
   3397   3409     1
   3398   3408     1
   3399   3410     1
   3399   3401     1
   3400   3403     1
   3400   3415     1
   3400   3402     1
   3400   3410     1
   3400   3405     1
   3400   3401     1
   3401   3404     1
   3401   3408     1
   3401   3406     1
   3402   3404     1
   3411   3414     1
   3411   3415     1
   3412   3414     1
   3412   3415     1
   3416   3424     1
   3416   3432     1
   3416   3437     1
   3416   3425     1
   3417   3434     1
   3417   3435     1
   3417   3423     1
   3417   3431     1
   3418   3420     1
   3418   3429     1
   3418   3419     1
   3418   3436     1
   3418   3434     1
   3418   3435     1
   3418   3422     1
   3419   3430     1
   3419   3438     1
   3419   3421     1
   3419   3428     1
   3419   3424     1
   3419   3432     1
   3420   3432     1
   3420   3425     1
   3420   3433     1
   3421   3431     1
   3422   3424     1
   3422   3433     1
   3423   3428     1
   3423   3424     1
   3423   3426     1
   3423   3438     1
   3423   3425     1
   3423   3433     1
   3424   3429     1
   3424   3427     1
   3424   3431     1
   3425   3427     1
   3434   3438     1
   3434   3437     1
   3435   3438     1
   3435   3437     1
   3439   3447     1
   3439   3455     1
   3439   3460     1
   3439   3448     1
   3440   3446     1
   3440   3454     1
   3440   3457     1
   3440   3458     1
   3441   3443     1
   3441   3452     1
   3441   3442     1
   3441   3459     1
   3441   3457     1
   3441   3458     1
   3441   3445     1
   3442   3444     1
   3442   3451     1
   3442   3447     1
   3442   3455     1
   3442   3453     1
   3442   3461     1
   3443   3448     1
   3443   3456     1
   3443   3455     1
   3444   3454     1
   3445   3456     1
   3445   3447     1
   3446   3449     1
   3446   3461     1
   3446   3448     1
   3446   3456     1
   3446   3451     1
   3446   3447     1
   3447   3450     1
   3447   3454     1
   3447   3452     1
   3448   3450     1
   3457   3460     1
   3457   3461     1
   3458   3460     1
   3458   3461     1
   3462   3470     1
   3462   3478     1
   3462   3483     1
   3462   3471     1
   3463   3480     1
   3463   3481     1
   3463   3469     1
   3463   3477     1
   3464   3466     1
   3464   3475     1
   3464   3465     1
   3464   3482     1
   3464   3480     1
   3464   3481     1
   3464   3468     1
   3465   3476     1
   3465   3484     1
   3465   3467     1
   3465   3474     1
   3465   3470     1
   3465   3478     1
   3466   3478     1
   3466   3471     1
   3466   3479     1
   3467   3477     1
   3468   3470     1
   3468   3479     1
   3469   3474     1
   3469   3470     1
   3469   3472     1
   3469   3484     1
   3469   3471     1
   3469   3479     1
   3470   3475     1
   3470   3473     1
   3470   3477     1
   3471   3473     1
   3480   3484     1
   3480   3483     1
   3481   3484     1
   3481   3483     1
   3485   3493     1
   3485   3501     1
   3485   3506     1
   3485   3494     1
   3486   3492     1
   3486   3500     1
   3486   3503     1
   3486   3504     1
   3487   3489     1
   3487   3498     1
   3487   3488     1
   3487   3505     1
   3487   3503     1
   3487   3504     1
   3487   3491     1
   3488   3490     1
   3488   3497     1
   3488   3493     1
   3488   3501     1
   3488   3499     1
   3488   3507     1
   3489   3494     1
   3489   3502     1
   3489   3501     1
   3490   3500     1
   3491   3502     1
   3491   3493     1
   3492   3495     1
   3492   3507     1
   3492   3494     1
   3492   3502     1
   3492   3497     1
   3492   3493     1
   3493   3496     1
   3493   3500     1
   3493   3498     1
   3494   3496     1
   3503   3506     1
   3503   3507     1
   3504   3506     1
   3504   3507     1
   3508   3516     1
   3508   3524     1
   3508   3529     1
   3508   3517     1
   3509   3526     1
   3509   3527     1
   3509   3515     1
   3509   3523     1
   3510   3512     1
   3510   3521     1
   3510   3511     1
   3510   3528     1
   3510   3526     1
   3510   3527     1
   3510   3514     1
   3511   3522     1
   3511   3530     1
   3511   3513     1
   3511   3520     1
   3511   3516     1
   3511   3524     1
   3512   3524     1
   3512   3517     1
   3512   3525     1
   3513   3523     1
   3514   3516     1
   3514   3525     1
   3515   3520     1
   3515   3516     1
   3515   3518     1
   3515   3530     1
   3515   3517     1
   3515   3525     1
   3516   3521     1
   3516   3519     1
   3516   3523     1
   3517   3519     1
   3526   3530     1
   3526   3529     1
   3527   3530     1
   3527   3529     1
   3531   3539     1
   3531   3547     1
   3531   3552     1
   3531   3540     1
   3532   3538     1
   3532   3546     1
   3532   3549     1
   3532   3550     1
   3533   3535     1
   3533   3544     1
   3533   3534     1
   3533   3551     1
   3533   3549     1
   3533   3550     1
   3533   3537     1
   3534   3536     1
   3534   3543     1
   3534   3539     1
   3534   3547     1
   3534   3545     1
   3534   3553     1
   3535   3540     1
   3535   3548     1
   3535   3547     1
   3536   3546     1
   3537   3548     1
   3537   3539     1
   3538   3541     1
   3538   3553     1
   3538   3540     1
   3538   3548     1
   3538   3543     1
   3538   3539     1
   3539   3542     1
   3539   3546     1
   3539   3544     1
   3540   3542     1
   3549   3552     1
   3549   3553     1
   3550   3552     1
   3550   3553     1
   3554   3562     1
   3554   3570     1
   3554   3575     1
   3554   3563     1
   3555   3572     1
   3555   3573     1
   3555   3561     1
   3555   3569     1
   3556   3558     1
   3556   3567     1
   3556   3557     1
   3556   3574     1
   3556   3572     1
   3556   3573     1
   3556   3560     1
   3557   3568     1
   3557   3576     1
   3557   3559     1
   3557   3566     1
   3557   3562     1
   3557   3570     1
   3558   3570     1
   3558   3563     1
   3558   3571     1
   3559   3569     1
   3560   3562     1
   3560   3571     1
   3561   3566     1
   3561   3562     1
   3561   3564     1
   3561   3576     1
   3561   3563     1
   3561   3571     1
   3562   3567     1
   3562   3565     1
   3562   3569     1
   3563   3565     1
   3572   3576     1
   3572   3575     1
   3573   3576     1
   3573   3575     1
   3577   3585     1
   3577   3593     1
   3577   3598     1
   3577   3586     1
   3578   3584     1
   3578   3592     1
   3578   3595     1
   3578   3596     1
   3579   3581     1
   3579   3590     1
   3579   3580     1
   3579   3597     1
   3579   3595     1
   3579   3596     1
   3579   3583     1
   3580   3582     1
   3580   3589     1
   3580   3585     1
   3580   3593     1
   3580   3591     1
   3580   3599     1
   3581   3586     1
   3581   3594     1
   3581   3593     1
   3582   3592     1
   3583   3594     1
   3583   3585     1
   3584   3587     1
   3584   3599     1
   3584   3586     1
   3584   3594     1
   3584   3589     1
   3584   3585     1
   3585   3588     1
   3585   3592     1
   3585   3590     1
   3586   3588     1
   3595   3598     1
   3595   3599     1
   3596   3598     1
   3596   3599     1
   3600   3608     1
   3600   3616     1
   3600   3621     1
   3600   3609     1
   3601   3618     1
   3601   3619     1
   3601   3607     1
   3601   3615     1
   3602   3604     1
   3602   3613     1
   3602   3603     1
   3602   3620     1
   3602   3618     1
   3602   3619     1
   3602   3606     1
   3603   3614     1
   3603   3622     1
   3603   3605     1
   3603   3612     1
   3603   3608     1
   3603   3616     1
   3604   3616     1
   3604   3609     1
   3604   3617     1
   3605   3615     1
   3606   3608     1
   3606   3617     1
   3607   3612     1
   3607   3608     1
   3607   3610     1
   3607   3622     1
   3607   3609     1
   3607   3617     1
   3608   3613     1
   3608   3611     1
   3608   3615     1
   3609   3611     1
   3618   3622     1
   3618   3621     1
   3619   3622     1
   3619   3621     1
   3623   3631     1
   3623   3639     1
   3623   3644     1
   3623   3632     1
   3624   3630     1
   3624   3638     1
   3624   3641     1
   3624   3642     1
   3625   3627     1
   3625   3636     1
   3625   3626     1
   3625   3643     1
   3625   3641     1
   3625   3642     1
   3625   3629     1
   3626   3628     1
   3626   3635     1
   3626   3631     1
   3626   3639     1
   3626   3637     1
   3626   3645     1
   3627   3632     1
   3627   3640     1
   3627   3639     1
   3628   3638     1
   3629   3640     1
   3629   3631     1
   3630   3633     1
   3630   3645     1
   3630   3632     1
   3630   3640     1
   3630   3635     1
   3630   3631     1
   3631   3634     1
   3631   3638     1
   3631   3636     1
   3632   3634     1
   3641   3644     1
   3641   3645     1
   3642   3644     1
   3642   3645     1
   3646   3654     1
   3646   3662     1
   3646   3667     1
   3646   3655     1
   3647   3664     1
   3647   3665     1
   3647   3653     1
   3647   3661     1
   3648   3650     1
   3648   3659     1
   3648   3649     1
   3648   3666     1
   3648   3664     1
   3648   3665     1
   3648   3652     1
   3649   3660     1
   3649   3668     1
   3649   3651     1
   3649   3658     1
   3649   3654     1
   3649   3662     1
   3650   3662     1
   3650   3655     1
   3650   3663     1
   3651   3661     1
   3652   3654     1
   3652   3663     1
   3653   3658     1
   3653   3654     1
   3653   3656     1
   3653   3668     1
   3653   3655     1
   3653   3663     1
   3654   3659     1
   3654   3657     1
   3654   3661     1
   3655   3657     1
   3664   3668     1
   3664   3667     1
   3665   3668     1
   3665   3667     1
   3669   3677     1
   3669   3685     1
   3669   3690     1
   3669   3678     1
   3670   3676     1
   3670   3684     1
   3670   3687     1
   3670   3688     1
   3671   3673     1
   3671   3682     1
   3671   3672     1
   3671   3689     1
   3671   3687     1
   3671   3688     1
   3671   3675     1
   3672   3674     1
   3672   3681     1
   3672   3677     1
   3672   3685     1
   3672   3683     1
   3672   3691     1
   3673   3678     1
   3673   3686     1
   3673   3685     1
   3674   3684     1
   3675   3686     1
   3675   3677     1
   3676   3679     1
   3676   3691     1
   3676   3678     1
   3676   3686     1
   3676   3681     1
   3676   3677     1
   3677   3680     1
   3677   3684     1
   3677   3682     1
   3678   3680     1
   3687   3690     1
   3687   3691     1
   3688   3690     1
   3688   3691     1
   3692   3700     1
   3692   3708     1
   3692   3713     1
   3692   3701     1
   3693   3710     1
   3693   3711     1
   3693   3699     1
   3693   3707     1
   3694   3696     1
   3694   3705     1
   3694   3695     1
   3694   3712     1
   3694   3710     1
   3694   3711     1
   3694   3698     1
   3695   3706     1
   3695   3714     1
   3695   3697     1
   3695   3704     1
   3695   3700     1
   3695   3708     1
   3696   3708     1
   3696   3701     1
   3696   3709     1
   3697   3707     1
   3698   3700     1
   3698   3709     1
   3699   3704     1
   3699   3700     1
   3699   3702     1
   3699   3714     1
   3699   3701     1
   3699   3709     1
   3700   3705     1
   3700   3703     1
   3700   3707     1
   3701   3703     1
   3710   3714     1
   3710   3713     1
   3711   3714     1
   3711   3713     1
   3715   3723     1
   3715   3731     1
   3715   3736     1
   3715   3724     1
   3716   3722     1
   3716   3730     1
   3716   3733     1
   3716   3734     1
   3717   3719     1
   3717   3728     1
   3717   3718     1
   3717   3735     1
   3717   3733     1
   3717   3734     1
   3717   3721     1
   3718   3720     1
   3718   3727     1
   3718   3723     1
   3718   3731     1
   3718   3729     1
   3718   3737     1
   3719   3724     1
   3719   3732     1
   3719   3731     1
   3720   3730     1
   3721   3732     1
   3721   3723     1
   3722   3725     1
   3722   3737     1
   3722   3724     1
   3722   3732     1
   3722   3727     1
   3722   3723     1
   3723   3726     1
   3723   3730     1
   3723   3728     1
   3724   3726     1
   3733   3736     1
   3733   3737     1
   3734   3736     1
   3734   3737     1
   3738   3746     1
   3738   3754     1
   3738   3759     1
   3738   3747     1
   3739   3756     1
   3739   3757     1
   3739   3745     1
   3739   3753     1
   3740   3742     1
   3740   3751     1
   3740   3741     1
   3740   3758     1
   3740   3756     1
   3740   3757     1
   3740   3744     1
   3741   3752     1
   3741   3760     1
   3741   3743     1
   3741   3750     1
   3741   3746     1
   3741   3754     1
   3742   3754     1
   3742   3747     1
   3742   3755     1
   3743   3753     1
   3744   3746     1
   3744   3755     1
   3745   3750     1
   3745   3746     1
   3745   3748     1
   3745   3760     1
   3745   3747     1
   3745   3755     1
   3746   3751     1
   3746   3749     1
   3746   3753     1
   3747   3749     1
   3756   3760     1
   3756   3759     1
   3757   3760     1
   3757   3759     1
   3761   3769     1
   3761   3777     1
   3761   3782     1
   3761   3770     1
   3762   3768     1
   3762   3776     1
   3762   3779     1
   3762   3780     1
   3763   3765     1
   3763   3774     1
   3763   3764     1
   3763   3781     1
   3763   3779     1
   3763   3780     1
   3763   3767     1
   3764   3766     1
   3764   3773     1
   3764   3769     1
   3764   3777     1
   3764   3775     1
   3764   3783     1
   3765   3770     1
   3765   3778     1
   3765   3777     1
   3766   3776     1
   3767   3778     1
   3767   3769     1
   3768   3771     1
   3768   3783     1
   3768   3770     1
   3768   3778     1
   3768   3773     1
   3768   3769     1
   3769   3772     1
   3769   3776     1
   3769   3774     1
   3770   3772     1
   3779   3782     1
   3779   3783     1
   3780   3782     1
   3780   3783     1
   3784   3792     1
   3784   3800     1
   3784   3805     1
   3784   3793     1
   3785   3802     1
   3785   3803     1
   3785   3791     1
   3785   3799     1
   3786   3788     1
   3786   3797     1
   3786   3787     1
   3786   3804     1
   3786   3802     1
   3786   3803     1
   3786   3790     1
   3787   3798     1
   3787   3806     1
   3787   3789     1
   3787   3796     1
   3787   3792     1
   3787   3800     1
   3788   3800     1
   3788   3793     1
   3788   3801     1
   3789   3799     1
   3790   3792     1
   3790   3801     1
   3791   3796     1
   3791   3792     1
   3791   3794     1
   3791   3806     1
   3791   3793     1
   3791   3801     1
   3792   3797     1
   3792   3795     1
   3792   3799     1
   3793   3795     1
   3802   3806     1
   3802   3805     1
   3803   3806     1
   3803   3805     1
   3807   3815     1
   3807   3823     1
   3807   3828     1
   3807   3816     1
   3808   3814     1
   3808   3822     1
   3808   3825     1
   3808   3826     1
   3809   3811     1
   3809   3820     1
   3809   3810     1
   3809   3827     1
   3809   3825     1
   3809   3826     1
   3809   3813     1
   3810   3812     1
   3810   3819     1
   3810   3815     1
   3810   3823     1
   3810   3821     1
   3810   3829     1
   3811   3816     1
   3811   3824     1
   3811   3823     1
   3812   3822     1
   3813   3824     1
   3813   3815     1
   3814   3817     1
   3814   3829     1
   3814   3816     1
   3814   3824     1
   3814   3819     1
   3814   3815     1
   3815   3818     1
   3815   3822     1
   3815   3820     1
   3816   3818     1
   3825   3828     1
   3825   3829     1
   3826   3828     1
   3826   3829     1
   3830   3838     1
   3830   3846     1
   3830   3851     1
   3830   3839     1
   3831   3848     1
   3831   3849     1
   3831   3837     1
   3831   3845     1
   3832   3834     1
   3832   3843     1
   3832   3833     1
   3832   3850     1
   3832   3848     1
   3832   3849     1
   3832   3836     1
   3833   3844     1
   3833   3852     1
   3833   3835     1
   3833   3842     1
   3833   3838     1
   3833   3846     1
   3834   3846     1
   3834   3839     1
   3834   3847     1
   3835   3845     1
   3836   3838     1
   3836   3847     1
   3837   3842     1
   3837   3838     1
   3837   3840     1
   3837   3852     1
   3837   3839     1
   3837   3847     1
   3838   3843     1
   3838   3841     1
   3838   3845     1
   3839   3841     1
   3848   3852     1
   3848   3851     1
   3849   3852     1
   3849   3851     1
   3853   3861     1
   3853   3869     1
   3853   3874     1
   3853   3862     1
   3854   3860     1
   3854   3868     1
   3854   3871     1
   3854   3872     1
   3855   3857     1
   3855   3866     1
   3855   3856     1
   3855   3873     1
   3855   3871     1
   3855   3872     1
   3855   3859     1
   3856   3858     1
   3856   3865     1
   3856   3861     1
   3856   3869     1
   3856   3867     1
   3856   3875     1
   3857   3862     1
   3857   3870     1
   3857   3869     1
   3858   3868     1
   3859   3870     1
   3859   3861     1
   3860   3863     1
   3860   3875     1
   3860   3862     1
   3860   3870     1
   3860   3865     1
   3860   3861     1
   3861   3864     1
   3861   3868     1
   3861   3866     1
   3862   3864     1
   3871   3874     1
   3871   3875     1
   3872   3874     1
   3872   3875     1
   3876   3884     1
   3876   3892     1
   3876   3897     1
   3876   3885     1
   3877   3894     1
   3877   3895     1
   3877   3883     1
   3877   3891     1
   3878   3880     1
   3878   3889     1
   3878   3879     1
   3878   3896     1
   3878   3894     1
   3878   3895     1
   3878   3882     1
   3879   3890     1
   3879   3898     1
   3879   3881     1
   3879   3888     1
   3879   3884     1
   3879   3892     1
   3880   3892     1
   3880   3885     1
   3880   3893     1
   3881   3891     1
   3882   3884     1
   3882   3893     1
   3883   3888     1
   3883   3884     1
   3883   3886     1
   3883   3898     1
   3883   3885     1
   3883   3893     1
   3884   3889     1
   3884   3887     1
   3884   3891     1
   3885   3887     1
   3894   3898     1
   3894   3897     1
   3895   3898     1
   3895   3897     1
   3899   3907     1
   3899   3915     1
   3899   3920     1
   3899   3908     1
   3900   3906     1
   3900   3914     1
   3900   3917     1
   3900   3918     1
   3901   3903     1
   3901   3912     1
   3901   3902     1
   3901   3919     1
   3901   3917     1
   3901   3918     1
   3901   3905     1
   3902   3904     1
   3902   3911     1
   3902   3907     1
   3902   3915     1
   3902   3913     1
   3902   3921     1
   3903   3908     1
   3903   3916     1
   3903   3915     1
   3904   3914     1
   3905   3916     1
   3905   3907     1
   3906   3909     1
   3906   3921     1
   3906   3908     1
   3906   3916     1
   3906   3911     1
   3906   3907     1
   3907   3910     1
   3907   3914     1
   3907   3912     1
   3908   3910     1
   3917   3920     1
   3917   3921     1
   3918   3920     1
   3918   3921     1
   3922   3930     1
   3922   3938     1
   3922   3943     1
   3922   3931     1
   3923   3940     1
   3923   3941     1
   3923   3929     1
   3923   3937     1
   3924   3926     1
   3924   3935     1
   3924   3925     1
   3924   3942     1
   3924   3940     1
   3924   3941     1
   3924   3928     1
   3925   3936     1
   3925   3944     1
   3925   3927     1
   3925   3934     1
   3925   3930     1
   3925   3938     1
   3926   3938     1
   3926   3931     1
   3926   3939     1
   3927   3937     1
   3928   3930     1
   3928   3939     1
   3929   3934     1
   3929   3930     1
   3929   3932     1
   3929   3944     1
   3929   3931     1
   3929   3939     1
   3930   3935     1
   3930   3933     1
   3930   3937     1
   3931   3933     1
   3940   3944     1
   3940   3943     1
   3941   3944     1
   3941   3943     1
   3945   3953     1
   3945   3961     1
   3945   3966     1
   3945   3954     1
   3946   3952     1
   3946   3960     1
   3946   3963     1
   3946   3964     1
   3947   3949     1
   3947   3958     1
   3947   3948     1
   3947   3965     1
   3947   3963     1
   3947   3964     1
   3947   3951     1
   3948   3950     1
   3948   3957     1
   3948   3953     1
   3948   3961     1
   3948   3959     1
   3948   3967     1
   3949   3954     1
   3949   3962     1
   3949   3961     1
   3950   3960     1
   3951   3962     1
   3951   3953     1
   3952   3955     1
   3952   3967     1
   3952   3954     1
   3952   3962     1
   3952   3957     1
   3952   3953     1
   3953   3956     1
   3953   3960     1
   3953   3958     1
   3954   3956     1
   3963   3966     1
   3963   3967     1
   3964   3966     1
   3964   3967     1
   3968   3976     1
   3968   3984     1
   3968   3989     1
   3968   3977     1
   3969   3986     1
   3969   3987     1
   3969   3975     1
   3969   3983     1
   3970   3972     1
   3970   3981     1
   3970   3971     1
   3970   3988     1
   3970   3986     1
   3970   3987     1
   3970   3974     1
   3971   3982     1
   3971   3990     1
   3971   3973     1
   3971   3980     1
   3971   3976     1
   3971   3984     1
   3972   3984     1
   3972   3977     1
   3972   3985     1
   3973   3983     1
   3974   3976     1
   3974   3985     1
   3975   3980     1
   3975   3976     1
   3975   3978     1
   3975   3990     1
   3975   3977     1
   3975   3985     1
   3976   3981     1
   3976   3979     1
   3976   3983     1
   3977   3979     1
   3986   3990     1
   3986   3989     1
   3987   3990     1
   3987   3989     1
   3991   3999     1
   3991   4007     1
   3991   4012     1
   3991   4000     1
   3992   3998     1
   3992   4006     1
   3992   4009     1
   3992   4010     1
   3993   3995     1
   3993   4004     1
   3993   3994     1
   3993   4011     1
   3993   4009     1
   3993   4010     1
   3993   3997     1
   3994   3996     1
   3994   4003     1
   3994   3999     1
   3994   4007     1
   3994   4005     1
   3994   4013     1
   3995   4000     1
   3995   4008     1
   3995   4007     1
   3996   4006     1
   3997   4008     1
   3997   3999     1
   3998   4001     1
   3998   4013     1
   3998   4000     1
   3998   4008     1
   3998   4003     1
   3998   3999     1
   3999   4002     1
   3999   4006     1
   3999   4004     1
   4000   4002     1
   4009   4012     1
   4009   4013     1
   4010   4012     1
   4010   4013     1
   4014   4022     1
   4014   4030     1
   4014   4035     1
   4014   4023     1
   4015   4032     1
   4015   4033     1
   4015   4021     1
   4015   4029     1
   4016   4018     1
   4016   4027     1
   4016   4017     1
   4016   4034     1
   4016   4032     1
   4016   4033     1
   4016   4020     1
   4017   4028     1
   4017   4036     1
   4017   4019     1
   4017   4026     1
   4017   4022     1
   4017   4030     1
   4018   4030     1
   4018   4023     1
   4018   4031     1
   4019   4029     1
   4020   4022     1
   4020   4031     1
   4021   4026     1
   4021   4022     1
   4021   4024     1
   4021   4036     1
   4021   4023     1
   4021   4031     1
   4022   4027     1
   4022   4025     1
   4022   4029     1
   4023   4025     1
   4032   4036     1
   4032   4035     1
   4033   4036     1
   4033   4035     1
   4037   4045     1
   4037   4053     1
   4037   4058     1
   4037   4046     1
   4038   4044     1
   4038   4052     1
   4038   4055     1
   4038   4056     1
   4039   4041     1
   4039   4050     1
   4039   4040     1
   4039   4057     1
   4039   4055     1
   4039   4056     1
   4039   4043     1
   4040   4042     1
   4040   4049     1
   4040   4045     1
   4040   4053     1
   4040   4051     1
   4040   4059     1
   4041   4046     1
   4041   4054     1
   4041   4053     1
   4042   4052     1
   4043   4054     1
   4043   4045     1
   4044   4047     1
   4044   4059     1
   4044   4046     1
   4044   4054     1
   4044   4049     1
   4044   4045     1
   4045   4048     1
   4045   4052     1
   4045   4050     1
   4046   4048     1
   4055   4058     1
   4055   4059     1
   4056   4058     1
   4056   4059     1
   4060   4068     1
   4060   4076     1
   4060   4081     1
   4060   4069     1
   4061   4078     1
   4061   4079     1
   4061   4067     1
   4061   4075     1
   4062   4064     1
   4062   4073     1
   4062   4063     1
   4062   4080     1
   4062   4078     1
   4062   4079     1
   4062   4066     1
   4063   4074     1
   4063   4082     1
   4063   4065     1
   4063   4072     1
   4063   4068     1
   4063   4076     1
   4064   4076     1
   4064   4069     1
   4064   4077     1
   4065   4075     1
   4066   4068     1
   4066   4077     1
   4067   4072     1
   4067   4068     1
   4067   4070     1
   4067   4082     1
   4067   4069     1
   4067   4077     1
   4068   4073     1
   4068   4071     1
   4068   4075     1
   4069   4071     1
   4078   4082     1
   4078   4081     1
   4079   4082     1
   4079   4081     1
   4083   4091     1
   4083   4099     1
   4083   4104     1
   4083   4092     1
   4084   4090     1
   4084   4098     1
   4084   4101     1
   4084   4102     1
   4085   4087     1
   4085   4096     1
   4085   4086     1
   4085   4103     1
   4085   4101     1
   4085   4102     1
   4085   4089     1
   4086   4088     1
   4086   4095     1
   4086   4091     1
   4086   4099     1
   4086   4097     1
   4086   4105     1
   4087   4092     1
   4087   4100     1
   4087   4099     1
   4088   4098     1
   4089   4100     1
   4089   4091     1
   4090   4093     1
   4090   4105     1
   4090   4092     1
   4090   4100     1
   4090   4095     1
   4090   4091     1
   4091   4094     1
   4091   4098     1
   4091   4096     1
   4092   4094     1
   4101   4104     1
   4101   4105     1
   4102   4104     1
   4102   4105     1
   4106   4114     1
   4106   4122     1
   4106   4127     1
   4106   4115     1
   4107   4124     1
   4107   4125     1
   4107   4113     1
   4107   4121     1
   4108   4110     1
   4108   4119     1
   4108   4109     1
   4108   4126     1
   4108   4124     1
   4108   4125     1
   4108   4112     1
   4109   4120     1
   4109   4128     1
   4109   4111     1
   4109   4118     1
   4109   4114     1
   4109   4122     1
   4110   4122     1
   4110   4115     1
   4110   4123     1
   4111   4121     1
   4112   4114     1
   4112   4123     1
   4113   4118     1
   4113   4114     1
   4113   4116     1
   4113   4128     1
   4113   4115     1
   4113   4123     1
   4114   4119     1
   4114   4117     1
   4114   4121     1
   4115   4117     1
   4124   4128     1
   4124   4127     1
   4125   4128     1
   4125   4127     1
   4129   4137     1
   4129   4145     1
   4129   4150     1
   4129   4138     1
   4130   4136     1
   4130   4144     1
   4130   4147     1
   4130   4148     1
   4131   4133     1
   4131   4142     1
   4131   4132     1
   4131   4149     1
   4131   4147     1
   4131   4148     1
   4131   4135     1
   4132   4134     1
   4132   4141     1
   4132   4137     1
   4132   4145     1
   4132   4143     1
   4132   4151     1
   4133   4138     1
   4133   4146     1
   4133   4145     1
   4134   4144     1
   4135   4146     1
   4135   4137     1
   4136   4139     1
   4136   4151     1
   4136   4138     1
   4136   4146     1
   4136   4141     1
   4136   4137     1
   4137   4140     1
   4137   4144     1
   4137   4142     1
   4138   4140     1
   4147   4150     1
   4147   4151     1
   4148   4150     1
   4148   4151     1
   4152   4160     1
   4152   4168     1
   4152   4173     1
   4152   4161     1
   4153   4170     1
   4153   4171     1
   4153   4159     1
   4153   4167     1
   4154   4156     1
   4154   4165     1
   4154   4155     1
   4154   4172     1
   4154   4170     1
   4154   4171     1
   4154   4158     1
   4155   4166     1
   4155   4174     1
   4155   4157     1
   4155   4164     1
   4155   4160     1
   4155   4168     1
   4156   4168     1
   4156   4161     1
   4156   4169     1
   4157   4167     1
   4158   4160     1
   4158   4169     1
   4159   4164     1
   4159   4160     1
   4159   4162     1
   4159   4174     1
   4159   4161     1
   4159   4169     1
   4160   4165     1
   4160   4163     1
   4160   4167     1
   4161   4163     1
   4170   4174     1
   4170   4173     1
   4171   4174     1
   4171   4173     1
   4175   4183     1
   4175   4191     1
   4175   4196     1
   4175   4184     1
   4176   4182     1
   4176   4190     1
   4176   4193     1
   4176   4194     1
   4177   4179     1
   4177   4188     1
   4177   4178     1
   4177   4195     1
   4177   4193     1
   4177   4194     1
   4177   4181     1
   4178   4180     1
   4178   4187     1
   4178   4183     1
   4178   4191     1
   4178   4189     1
   4178   4197     1
   4179   4184     1
   4179   4192     1
   4179   4191     1
   4180   4190     1
   4181   4192     1
   4181   4183     1
   4182   4185     1
   4182   4197     1
   4182   4184     1
   4182   4192     1
   4182   4187     1
   4182   4183     1
   4183   4186     1
   4183   4190     1
   4183   4188     1
   4184   4186     1
   4193   4196     1
   4193   4197     1
   4194   4196     1
   4194   4197     1
   4198   4206     1
   4198   4214     1
   4198   4219     1
   4198   4207     1
   4199   4216     1
   4199   4217     1
   4199   4205     1
   4199   4213     1
   4200   4202     1
   4200   4211     1
   4200   4201     1
   4200   4218     1
   4200   4216     1
   4200   4217     1
   4200   4204     1
   4201   4212     1
   4201   4220     1
   4201   4203     1
   4201   4210     1
   4201   4206     1
   4201   4214     1
   4202   4214     1
   4202   4207     1
   4202   4215     1
   4203   4213     1
   4204   4206     1
   4204   4215     1
   4205   4210     1
   4205   4206     1
   4205   4208     1
   4205   4220     1
   4205   4207     1
   4205   4215     1
   4206   4211     1
   4206   4209     1
   4206   4213     1
   4207   4209     1
   4216   4220     1
   4216   4219     1
   4217   4220     1
   4217   4219     1
   4221   4229     1
   4221   4237     1
   4221   4242     1
   4221   4230     1
   4222   4228     1
   4222   4236     1
   4222   4239     1
   4222   4240     1
   4223   4225     1
   4223   4234     1
   4223   4224     1
   4223   4241     1
   4223   4239     1
   4223   4240     1
   4223   4227     1
   4224   4226     1
   4224   4233     1
   4224   4229     1
   4224   4237     1
   4224   4235     1
   4224   4243     1
   4225   4230     1
   4225   4238     1
   4225   4237     1
   4226   4236     1
   4227   4238     1
   4227   4229     1
   4228   4231     1
   4228   4243     1
   4228   4230     1
   4228   4238     1
   4228   4233     1
   4228   4229     1
   4229   4232     1
   4229   4236     1
   4229   4234     1
   4230   4232     1
   4239   4242     1
   4239   4243     1
   4240   4242     1
   4240   4243     1
   4244   4252     1
   4244   4260     1
   4244   4265     1
   4244   4253     1
   4245   4262     1
   4245   4263     1
   4245   4251     1
   4245   4259     1
   4246   4248     1
   4246   4257     1
   4246   4247     1
   4246   4264     1
   4246   4262     1
   4246   4263     1
   4246   4250     1
   4247   4258     1
   4247   4266     1
   4247   4249     1
   4247   4256     1
   4247   4252     1
   4247   4260     1
   4248   4260     1
   4248   4253     1
   4248   4261     1
   4249   4259     1
   4250   4252     1
   4250   4261     1
   4251   4256     1
   4251   4252     1
   4251   4254     1
   4251   4266     1
   4251   4253     1
   4251   4261     1
   4252   4257     1
   4252   4255     1
   4252   4259     1
   4253   4255     1
   4262   4266     1
   4262   4265     1
   4263   4266     1
   4263   4265     1
   4267   4275     1
   4267   4283     1
   4267   4288     1
   4267   4276     1
   4268   4274     1
   4268   4282     1
   4268   4285     1
   4268   4286     1
   4269   4271     1
   4269   4280     1
   4269   4270     1
   4269   4287     1
   4269   4285     1
   4269   4286     1
   4269   4273     1
   4270   4272     1
   4270   4279     1
   4270   4275     1
   4270   4283     1
   4270   4281     1
   4270   4289     1
   4271   4276     1
   4271   4284     1
   4271   4283     1
   4272   4282     1
   4273   4284     1
   4273   4275     1
   4274   4277     1
   4274   4289     1
   4274   4276     1
   4274   4284     1
   4274   4279     1
   4274   4275     1
   4275   4278     1
   4275   4282     1
   4275   4280     1
   4276   4278     1
   4285   4288     1
   4285   4289     1
   4286   4288     1
   4286   4289     1
   4290   4298     1
   4290   4306     1
   4290   4311     1
   4290   4299     1
   4291   4308     1
   4291   4309     1
   4291   4297     1
   4291   4305     1
   4292   4294     1
   4292   4303     1
   4292   4293     1
   4292   4310     1
   4292   4308     1
   4292   4309     1
   4292   4296     1
   4293   4304     1
   4293   4312     1
   4293   4295     1
   4293   4302     1
   4293   4298     1
   4293   4306     1
   4294   4306     1
   4294   4299     1
   4294   4307     1
   4295   4305     1
   4296   4298     1
   4296   4307     1
   4297   4302     1
   4297   4298     1
   4297   4300     1
   4297   4312     1
   4297   4299     1
   4297   4307     1
   4298   4303     1
   4298   4301     1
   4298   4305     1
   4299   4301     1
   4308   4312     1
   4308   4311     1
   4309   4312     1
   4309   4311     1
   4313   4321     1
   4313   4329     1
   4313   4334     1
   4313   4322     1
   4314   4320     1
   4314   4328     1
   4314   4331     1
   4314   4332     1
   4315   4317     1
   4315   4326     1
   4315   4316     1
   4315   4333     1
   4315   4331     1
   4315   4332     1
   4315   4319     1
   4316   4318     1
   4316   4325     1
   4316   4321     1
   4316   4329     1
   4316   4327     1
   4316   4335     1
   4317   4322     1
   4317   4330     1
   4317   4329     1
   4318   4328     1
   4319   4330     1
   4319   4321     1
   4320   4323     1
   4320   4335     1
   4320   4322     1
   4320   4330     1
   4320   4325     1
   4320   4321     1
   4321   4324     1
   4321   4328     1
   4321   4326     1
   4322   4324     1
   4331   4334     1
   4331   4335     1
   4332   4334     1
   4332   4335     1
   4336   4344     1
   4336   4352     1
   4336   4357     1
   4336   4345     1
   4337   4354     1
   4337   4355     1
   4337   4343     1
   4337   4351     1
   4338   4340     1
   4338   4349     1
   4338   4339     1
   4338   4356     1
   4338   4354     1
   4338   4355     1
   4338   4342     1
   4339   4350     1
   4339   4358     1
   4339   4341     1
   4339   4348     1
   4339   4344     1
   4339   4352     1
   4340   4352     1
   4340   4345     1
   4340   4353     1
   4341   4351     1
   4342   4344     1
   4342   4353     1
   4343   4348     1
   4343   4344     1
   4343   4346     1
   4343   4358     1
   4343   4345     1
   4343   4353     1
   4344   4349     1
   4344   4347     1
   4344   4351     1
   4345   4347     1
   4354   4358     1
   4354   4357     1
   4355   4358     1
   4355   4357     1
   4359   4367     1
   4359   4375     1
   4359   4380     1
   4359   4368     1
   4360   4366     1
   4360   4374     1
   4360   4377     1
   4360   4378     1
   4361   4363     1
   4361   4372     1
   4361   4362     1
   4361   4379     1
   4361   4377     1
   4361   4378     1
   4361   4365     1
   4362   4364     1
   4362   4371     1
   4362   4367     1
   4362   4375     1
   4362   4373     1
   4362   4381     1
   4363   4368     1
   4363   4376     1
   4363   4375     1
   4364   4374     1
   4365   4376     1
   4365   4367     1
   4366   4369     1
   4366   4381     1
   4366   4368     1
   4366   4376     1
   4366   4371     1
   4366   4367     1
   4367   4370     1
   4367   4374     1
   4367   4372     1
   4368   4370     1
   4377   4380     1
   4377   4381     1
   4378   4380     1
   4378   4381     1
   4382   4390     1
   4382   4398     1
   4382   4403     1
   4382   4391     1
   4383   4400     1
   4383   4401     1
   4383   4389     1
   4383   4397     1
   4384   4386     1
   4384   4395     1
   4384   4385     1
   4384   4402     1
   4384   4400     1
   4384   4401     1
   4384   4388     1
   4385   4396     1
   4385   4404     1
   4385   4387     1
   4385   4394     1
   4385   4390     1
   4385   4398     1
   4386   4398     1
   4386   4391     1
   4386   4399     1
   4387   4397     1
   4388   4390     1
   4388   4399     1
   4389   4394     1
   4389   4390     1
   4389   4392     1
   4389   4404     1
   4389   4391     1
   4389   4399     1
   4390   4395     1
   4390   4393     1
   4390   4397     1
   4391   4393     1
   4400   4404     1
   4400   4403     1
   4401   4404     1
   4401   4403     1
   4405   4413     1
   4405   4421     1
   4405   4426     1
   4405   4414     1
   4406   4412     1
   4406   4420     1
   4406   4423     1
   4406   4424     1
   4407   4409     1
   4407   4418     1
   4407   4408     1
   4407   4425     1
   4407   4423     1
   4407   4424     1
   4407   4411     1
   4408   4410     1
   4408   4417     1
   4408   4413     1
   4408   4421     1
   4408   4419     1
   4408   4427     1
   4409   4414     1
   4409   4422     1
   4409   4421     1
   4410   4420     1
   4411   4422     1
   4411   4413     1
   4412   4415     1
   4412   4427     1
   4412   4414     1
   4412   4422     1
   4412   4417     1
   4412   4413     1
   4413   4416     1
   4413   4420     1
   4413   4418     1
   4414   4416     1
   4423   4426     1
   4423   4427     1
   4424   4426     1
   4424   4427     1
   4428   4436     1
   4428   4444     1
   4428   4449     1
   4428   4437     1
   4429   4446     1
   4429   4447     1
   4429   4435     1
   4429   4443     1
   4430   4432     1
   4430   4441     1
   4430   4431     1
   4430   4448     1
   4430   4446     1
   4430   4447     1
   4430   4434     1
   4431   4442     1
   4431   4450     1
   4431   4433     1
   4431   4440     1
   4431   4436     1
   4431   4444     1
   4432   4444     1
   4432   4437     1
   4432   4445     1
   4433   4443     1
   4434   4436     1
   4434   4445     1
   4435   4440     1
   4435   4436     1
   4435   4438     1
   4435   4450     1
   4435   4437     1
   4435   4445     1
   4436   4441     1
   4436   4439     1
   4436   4443     1
   4437   4439     1
   4446   4450     1
   4446   4449     1
   4447   4450     1
   4447   4449     1
   4451   4459     1
   4451   4467     1
   4451   4472     1
   4451   4460     1
   4452   4458     1
   4452   4466     1
   4452   4469     1
   4452   4470     1
   4453   4455     1
   4453   4464     1
   4453   4454     1
   4453   4471     1
   4453   4469     1
   4453   4470     1
   4453   4457     1
   4454   4456     1
   4454   4463     1
   4454   4459     1
   4454   4467     1
   4454   4465     1
   4454   4473     1
   4455   4460     1
   4455   4468     1
   4455   4467     1
   4456   4466     1
   4457   4468     1
   4457   4459     1
   4458   4461     1
   4458   4473     1
   4458   4460     1
   4458   4468     1
   4458   4463     1
   4458   4459     1
   4459   4462     1
   4459   4466     1
   4459   4464     1
   4460   4462     1
   4469   4472     1
   4469   4473     1
   4470   4472     1
   4470   4473     1
   4474   4482     1
   4474   4490     1
   4474   4495     1
   4474   4483     1
   4475   4492     1
   4475   4493     1
   4475   4481     1
   4475   4489     1
   4476   4478     1
   4476   4487     1
   4476   4477     1
   4476   4494     1
   4476   4492     1
   4476   4493     1
   4476   4480     1
   4477   4488     1
   4477   4496     1
   4477   4479     1
   4477   4486     1
   4477   4482     1
   4477   4490     1
   4478   4490     1
   4478   4483     1
   4478   4491     1
   4479   4489     1
   4480   4482     1
   4480   4491     1
   4481   4486     1
   4481   4482     1
   4481   4484     1
   4481   4496     1
   4481   4483     1
   4481   4491     1
   4482   4487     1
   4482   4485     1
   4482   4489     1
   4483   4485     1
   4492   4496     1
   4492   4495     1
   4493   4496     1
   4493   4495     1
   4497   4505     1
   4497   4513     1
   4497   4518     1
   4497   4506     1
   4498   4504     1
   4498   4512     1
   4498   4515     1
   4498   4516     1
   4499   4501     1
   4499   4510     1
   4499   4500     1
   4499   4517     1
   4499   4515     1
   4499   4516     1
   4499   4503     1
   4500   4502     1
   4500   4509     1
   4500   4505     1
   4500   4513     1
   4500   4511     1
   4500   4519     1
   4501   4506     1
   4501   4514     1
   4501   4513     1
   4502   4512     1
   4503   4514     1
   4503   4505     1
   4504   4507     1
   4504   4519     1
   4504   4506     1
   4504   4514     1
   4504   4509     1
   4504   4505     1
   4505   4508     1
   4505   4512     1
   4505   4510     1
   4506   4508     1
   4515   4518     1
   4515   4519     1
   4516   4518     1
   4516   4519     1
   4520   4528     1
   4520   4536     1
   4520   4541     1
   4520   4529     1
   4521   4538     1
   4521   4539     1
   4521   4527     1
   4521   4535     1
   4522   4524     1
   4522   4533     1
   4522   4523     1
   4522   4540     1
   4522   4538     1
   4522   4539     1
   4522   4526     1
   4523   4534     1
   4523   4542     1
   4523   4525     1
   4523   4532     1
   4523   4528     1
   4523   4536     1
   4524   4536     1
   4524   4529     1
   4524   4537     1
   4525   4535     1
   4526   4528     1
   4526   4537     1
   4527   4532     1
   4527   4528     1
   4527   4530     1
   4527   4542     1
   4527   4529     1
   4527   4537     1
   4528   4533     1
   4528   4531     1
   4528   4535     1
   4529   4531     1
   4538   4542     1
   4538   4541     1
   4539   4542     1
   4539   4541     1
   4543   4551     1
   4543   4559     1
   4543   4564     1
   4543   4552     1
   4544   4550     1
   4544   4558     1
   4544   4561     1
   4544   4562     1
   4545   4547     1
   4545   4556     1
   4545   4546     1
   4545   4563     1
   4545   4561     1
   4545   4562     1
   4545   4549     1
   4546   4548     1
   4546   4555     1
   4546   4551     1
   4546   4559     1
   4546   4557     1
   4546   4565     1
   4547   4552     1
   4547   4560     1
   4547   4559     1
   4548   4558     1
   4549   4560     1
   4549   4551     1
   4550   4553     1
   4550   4565     1
   4550   4552     1
   4550   4560     1
   4550   4555     1
   4550   4551     1
   4551   4554     1
   4551   4558     1
   4551   4556     1
   4552   4554     1
   4561   4564     1
   4561   4565     1
   4562   4564     1
   4562   4565     1
   4566   4574     1
   4566   4582     1
   4566   4587     1
   4566   4575     1
   4567   4584     1
   4567   4585     1
   4567   4573     1
   4567   4581     1
   4568   4570     1
   4568   4579     1
   4568   4569     1
   4568   4586     1
   4568   4584     1
   4568   4585     1
   4568   4572     1
   4569   4580     1
   4569   4588     1
   4569   4571     1
   4569   4578     1
   4569   4574     1
   4569   4582     1
   4570   4582     1
   4570   4575     1
   4570   4583     1
   4571   4581     1
   4572   4574     1
   4572   4583     1
   4573   4578     1
   4573   4574     1
   4573   4576     1
   4573   4588     1
   4573   4575     1
   4573   4583     1
   4574   4579     1
   4574   4577     1
   4574   4581     1
   4575   4577     1
   4584   4588     1
   4584   4587     1
   4585   4588     1
   4585   4587     1
   4589   4597     1
   4589   4605     1
   4589   4610     1
   4589   4598     1
   4590   4596     1
   4590   4604     1
   4590   4607     1
   4590   4608     1
   4591   4593     1
   4591   4602     1
   4591   4592     1
   4591   4609     1
   4591   4607     1
   4591   4608     1
   4591   4595     1
   4592   4594     1
   4592   4601     1
   4592   4597     1
   4592   4605     1
   4592   4603     1
   4592   4611     1
   4593   4598     1
   4593   4606     1
   4593   4605     1
   4594   4604     1
   4595   4606     1
   4595   4597     1
   4596   4599     1
   4596   4611     1
   4596   4598     1
   4596   4606     1
   4596   4601     1
   4596   4597     1
   4597   4600     1
   4597   4604     1
   4597   4602     1
   4598   4600     1
   4607   4610     1
   4607   4611     1
   4608   4610     1
   4608   4611     1
   4612   4620     1
   4612   4628     1
   4612   4633     1
   4612   4621     1
   4613   4630     1
   4613   4631     1
   4613   4619     1
   4613   4627     1
   4614   4616     1
   4614   4625     1
   4614   4615     1
   4614   4632     1
   4614   4630     1
   4614   4631     1
   4614   4618     1
   4615   4626     1
   4615   4634     1
   4615   4617     1
   4615   4624     1
   4615   4620     1
   4615   4628     1
   4616   4628     1
   4616   4621     1
   4616   4629     1
   4617   4627     1
   4618   4620     1
   4618   4629     1
   4619   4624     1
   4619   4620     1
   4619   4622     1
   4619   4634     1
   4619   4621     1
   4619   4629     1
   4620   4625     1
   4620   4623     1
   4620   4627     1
   4621   4623     1
   4630   4634     1
   4630   4633     1
   4631   4634     1
   4631   4633     1
   4635   4643     1
   4635   4651     1
   4635   4656     1
   4635   4644     1
   4636   4642     1
   4636   4650     1
   4636   4653     1
   4636   4654     1
   4637   4639     1
   4637   4648     1
   4637   4638     1
   4637   4655     1
   4637   4653     1
   4637   4654     1
   4637   4641     1
   4638   4640     1
   4638   4647     1
   4638   4643     1
   4638   4651     1
   4638   4649     1
   4638   4657     1
   4639   4644     1
   4639   4652     1
   4639   4651     1
   4640   4650     1
   4641   4652     1
   4641   4643     1
   4642   4645     1
   4642   4657     1
   4642   4644     1
   4642   4652     1
   4642   4647     1
   4642   4643     1
   4643   4646     1
   4643   4650     1
   4643   4648     1
   4644   4646     1
   4653   4656     1
   4653   4657     1
   4654   4656     1
   4654   4657     1
   4658   4666     1
   4658   4674     1
   4658   4679     1
   4658   4667     1
   4659   4676     1
   4659   4677     1
   4659   4665     1
   4659   4673     1
   4660   4662     1
   4660   4671     1
   4660   4661     1
   4660   4678     1
   4660   4676     1
   4660   4677     1
   4660   4664     1
   4661   4672     1
   4661   4680     1
   4661   4663     1
   4661   4670     1
   4661   4666     1
   4661   4674     1
   4662   4674     1
   4662   4667     1
   4662   4675     1
   4663   4673     1
   4664   4666     1
   4664   4675     1
   4665   4670     1
   4665   4666     1
   4665   4668     1
   4665   4680     1
   4665   4667     1
   4665   4675     1
   4666   4671     1
   4666   4669     1
   4666   4673     1
   4667   4669     1
   4676   4680     1
   4676   4679     1
   4677   4680     1
   4677   4679     1
   4681   4689     1
   4681   4697     1
   4681   4702     1
   4681   4690     1
   4682   4688     1
   4682   4696     1
   4682   4699     1
   4682   4700     1
   4683   4685     1
   4683   4694     1
   4683   4684     1
   4683   4701     1
   4683   4699     1
   4683   4700     1
   4683   4687     1
   4684   4686     1
   4684   4693     1
   4684   4689     1
   4684   4697     1
   4684   4695     1
   4684   4703     1
   4685   4690     1
   4685   4698     1
   4685   4697     1
   4686   4696     1
   4687   4698     1
   4687   4689     1
   4688   4691     1
   4688   4703     1
   4688   4690     1
   4688   4698     1
   4688   4693     1
   4688   4689     1
   4689   4692     1
   4689   4696     1
   4689   4694     1
   4690   4692     1
   4699   4702     1
   4699   4703     1
   4700   4702     1
   4700   4703     1
   4704   4712     1
   4704   4720     1
   4704   4725     1
   4704   4713     1
   4705   4722     1
   4705   4723     1
   4705   4711     1
   4705   4719     1
   4706   4708     1
   4706   4717     1
   4706   4707     1
   4706   4724     1
   4706   4722     1
   4706   4723     1
   4706   4710     1
   4707   4718     1
   4707   4726     1
   4707   4709     1
   4707   4716     1
   4707   4712     1
   4707   4720     1
   4708   4720     1
   4708   4713     1
   4708   4721     1
   4709   4719     1
   4710   4712     1
   4710   4721     1
   4711   4716     1
   4711   4712     1
   4711   4714     1
   4711   4726     1
   4711   4713     1
   4711   4721     1
   4712   4717     1
   4712   4715     1
   4712   4719     1
   4713   4715     1
   4722   4726     1
   4722   4725     1
   4723   4726     1
   4723   4725     1
   4727   4735     1
   4727   4743     1
   4727   4748     1
   4727   4736     1
   4728   4734     1
   4728   4742     1
   4728   4745     1
   4728   4746     1
   4729   4731     1
   4729   4740     1
   4729   4730     1
   4729   4747     1
   4729   4745     1
   4729   4746     1
   4729   4733     1
   4730   4732     1
   4730   4739     1
   4730   4735     1
   4730   4743     1
   4730   4741     1
   4730   4749     1
   4731   4736     1
   4731   4744     1
   4731   4743     1
   4732   4742     1
   4733   4744     1
   4733   4735     1
   4734   4737     1
   4734   4749     1
   4734   4736     1
   4734   4744     1
   4734   4739     1
   4734   4735     1
   4735   4738     1
   4735   4742     1
   4735   4740     1
   4736   4738     1
   4745   4748     1
   4745   4749     1
   4746   4748     1
   4746   4749     1
   4750   4758     1
   4750   4766     1
   4750   4771     1
   4750   4759     1
   4751   4768     1
   4751   4769     1
   4751   4757     1
   4751   4765     1
   4752   4754     1
   4752   4763     1
   4752   4753     1
   4752   4770     1
   4752   4768     1
   4752   4769     1
   4752   4756     1
   4753   4764     1
   4753   4772     1
   4753   4755     1
   4753   4762     1
   4753   4758     1
   4753   4766     1
   4754   4766     1
   4754   4759     1
   4754   4767     1
   4755   4765     1
   4756   4758     1
   4756   4767     1
   4757   4762     1
   4757   4758     1
   4757   4760     1
   4757   4772     1
   4757   4759     1
   4757   4767     1
   4758   4763     1
   4758   4761     1
   4758   4765     1
   4759   4761     1
   4768   4772     1
   4768   4771     1
   4769   4772     1
   4769   4771     1
   4773   4781     1
   4773   4789     1
   4773   4794     1
   4773   4782     1
   4774   4780     1
   4774   4788     1
   4774   4791     1
   4774   4792     1
   4775   4777     1
   4775   4786     1
   4775   4776     1
   4775   4793     1
   4775   4791     1
   4775   4792     1
   4775   4779     1
   4776   4778     1
   4776   4785     1
   4776   4781     1
   4776   4789     1
   4776   4787     1
   4776   4795     1
   4777   4782     1
   4777   4790     1
   4777   4789     1
   4778   4788     1
   4779   4790     1
   4779   4781     1
   4780   4783     1
   4780   4795     1
   4780   4782     1
   4780   4790     1
   4780   4785     1
   4780   4781     1
   4781   4784     1
   4781   4788     1
   4781   4786     1
   4782   4784     1
   4791   4794     1
   4791   4795     1
   4792   4794     1
   4792   4795     1
   4796   4804     1
   4796   4812     1
   4796   4817     1
   4796   4805     1
   4797   4814     1
   4797   4815     1
   4797   4803     1
   4797   4811     1
   4798   4800     1
   4798   4809     1
   4798   4799     1
   4798   4816     1
   4798   4814     1
   4798   4815     1
   4798   4802     1
   4799   4810     1
   4799   4818     1
   4799   4801     1
   4799   4808     1
   4799   4804     1
   4799   4812     1
   4800   4812     1
   4800   4805     1
   4800   4813     1
   4801   4811     1
   4802   4804     1
   4802   4813     1
   4803   4808     1
   4803   4804     1
   4803   4806     1
   4803   4818     1
   4803   4805     1
   4803   4813     1
   4804   4809     1
   4804   4807     1
   4804   4811     1
   4805   4807     1
   4814   4818     1
   4814   4817     1
   4815   4818     1
   4815   4817     1
   4819   4827     1
   4819   4835     1
   4819   4840     1
   4819   4828     1
   4820   4826     1
   4820   4834     1
   4820   4837     1
   4820   4838     1
   4821   4823     1
   4821   4832     1
   4821   4822     1
   4821   4839     1
   4821   4837     1
   4821   4838     1
   4821   4825     1
   4822   4824     1
   4822   4831     1
   4822   4827     1
   4822   4835     1
   4822   4833     1
   4822   4841     1
   4823   4828     1
   4823   4836     1
   4823   4835     1
   4824   4834     1
   4825   4836     1
   4825   4827     1
   4826   4829     1
   4826   4841     1
   4826   4828     1
   4826   4836     1
   4826   4831     1
   4826   4827     1
   4827   4830     1
   4827   4834     1
   4827   4832     1
   4828   4830     1
   4837   4840     1
   4837   4841     1
   4838   4840     1
   4838   4841     1
   4842   4850     1
   4842   4858     1
   4842   4863     1
   4842   4851     1
   4843   4860     1
   4843   4861     1
   4843   4849     1
   4843   4857     1
   4844   4846     1
   4844   4855     1
   4844   4845     1
   4844   4862     1
   4844   4860     1
   4844   4861     1
   4844   4848     1
   4845   4856     1
   4845   4864     1
   4845   4847     1
   4845   4854     1
   4845   4850     1
   4845   4858     1
   4846   4858     1
   4846   4851     1
   4846   4859     1
   4847   4857     1
   4848   4850     1
   4848   4859     1
   4849   4854     1
   4849   4850     1
   4849   4852     1
   4849   4864     1
   4849   4851     1
   4849   4859     1
   4850   4855     1
   4850   4853     1
   4850   4857     1
   4851   4853     1
   4860   4864     1
   4860   4863     1
   4861   4864     1
   4861   4863     1
   4865   4873     1
   4865   4881     1
   4865   4886     1
   4865   4874     1
   4866   4872     1
   4866   4880     1
   4866   4883     1
   4866   4884     1
   4867   4869     1
   4867   4878     1
   4867   4868     1
   4867   4885     1
   4867   4883     1
   4867   4884     1
   4867   4871     1
   4868   4870     1
   4868   4877     1
   4868   4873     1
   4868   4881     1
   4868   4879     1
   4868   4887     1
   4869   4874     1
   4869   4882     1
   4869   4881     1
   4870   4880     1
   4871   4882     1
   4871   4873     1
   4872   4875     1
   4872   4887     1
   4872   4874     1
   4872   4882     1
   4872   4877     1
   4872   4873     1
   4873   4876     1
   4873   4880     1
   4873   4878     1
   4874   4876     1
   4883   4886     1
   4883   4887     1
   4884   4886     1
   4884   4887     1
   4888   4896     1
   4888   4904     1
   4888   4909     1
   4888   4897     1
   4889   4906     1
   4889   4907     1
   4889   4895     1
   4889   4903     1
   4890   4892     1
   4890   4901     1
   4890   4891     1
   4890   4908     1
   4890   4906     1
   4890   4907     1
   4890   4894     1
   4891   4902     1
   4891   4910     1
   4891   4893     1
   4891   4900     1
   4891   4896     1
   4891   4904     1
   4892   4904     1
   4892   4897     1
   4892   4905     1
   4893   4903     1
   4894   4896     1
   4894   4905     1
   4895   4900     1
   4895   4896     1
   4895   4898     1
   4895   4910     1
   4895   4897     1
   4895   4905     1
   4896   4901     1
   4896   4899     1
   4896   4903     1
   4897   4899     1
   4906   4910     1
   4906   4909     1
   4907   4910     1
   4907   4909     1
   4911   4919     1
   4911   4927     1
   4911   4932     1
   4911   4920     1
   4912   4918     1
   4912   4926     1
   4912   4929     1
   4912   4930     1
   4913   4915     1
   4913   4924     1
   4913   4914     1
   4913   4931     1
   4913   4929     1
   4913   4930     1
   4913   4917     1
   4914   4916     1
   4914   4923     1
   4914   4919     1
   4914   4927     1
   4914   4925     1
   4914   4933     1
   4915   4920     1
   4915   4928     1
   4915   4927     1
   4916   4926     1
   4917   4928     1
   4917   4919     1
   4918   4921     1
   4918   4933     1
   4918   4920     1
   4918   4928     1
   4918   4923     1
   4918   4919     1
   4919   4922     1
   4919   4926     1
   4919   4924     1
   4920   4922     1
   4929   4932     1
   4929   4933     1
   4930   4932     1
   4930   4933     1

[ angles ]
;    ai     aj     ak funct         c0         c1         c2         c3
      1      2     14     1   111.0400475 552.288000
      1      5     17     1   111.0400475 552.288000
      1      8     11     1   111.0400475 552.288000
      2      1      5     1   112.3500484 533.878400
      2      1      8     1   112.3500484 533.878400
      2     14     26     1   111.5100476 526.347200
      5      1      8     1   112.3500484 533.878400
      5     17     20     1   111.5100476 526.347200
      8     11     23     1   111.5100476 526.347200
     11     23     86     1   107.9700462 569.024000
     14     26    115     1   107.9700462 569.024000
     17     20     57     1   107.9700462 569.024000
     20     57     48     1   112.4800480 524.673600
     23     86     77     1   112.4800480 524.673600
     26    115    106     1   112.4800480 524.673600
     29     30     42     1   111.0400475 552.288000
     29     33     45     1   111.0400475 552.288000
     29     36     39     1   111.0400475 552.288000
     30     29     33     1   112.3500484 533.878400
     30     29     36     1   112.3500484 533.878400
     30     42     54     1   111.5100476 526.347200
     33     29     36     1   112.3500484 533.878400
     33     45     51     1   111.5100476 526.347200
     36     39     48     1   111.5100476 526.347200
     39     48     57     1   107.9700462 569.024000
     42     54    173     1   107.9700462 569.024000
     45     51    144     1   107.9700462 569.024000
     51    144    135     1   112.4800480 524.673600
     54    173    164     1   112.4800480 524.673600
     58     59     71     1   111.0400475 552.288000
     58     62     74     1   111.0400475 552.288000
     58     65     68     1   111.0400475 552.288000
     59     58     62     1   112.3500484 533.878400
     59     58     65     1   112.3500484 533.878400
     59     71     83     1   111.5100476 526.347200
     62     58     65     1   112.3500484 533.878400
     62     74     80     1   111.5100476 526.347200
     65     68     77     1   111.5100476 526.347200
     68     77     86     1   107.9700462 569.024000
     71     83    231     1   107.9700462 569.024000
     74     80    202     1   107.9700462 569.024000
     80    202    193     1   112.4800480 524.673600
     83    231    222     1   112.4800480 524.673600
     87     88    100     1   111.0400475 552.288000
     87     91    103     1   111.0400475 552.288000
     87     94     97     1   111.0400475 552.288000
     88     87     91     1   112.3500484 533.878400
     88     87     94     1   112.3500484 533.878400
     88    100    112     1   111.5100476 526.347200
     91     87     94     1   112.3500484 533.878400
     91    103    109     1   111.5100476 526.347200
     94     97    106     1   111.5100476 526.347200
     97    106    115     1   107.9700462 569.024000
    100    112    289     1   107.9700462 569.024000
    103    109    260     1   107.9700462 569.024000
    109    260    251     1   112.4800480 524.673600
    112    289    280     1   112.4800480 524.673600
    116    117    129     1   111.0400475 552.288000
    116    120    132     1   111.0400475 552.288000
    116    123    126     1   111.0400475 552.288000
    117    116    120     1   112.3500484 533.878400
    117    116    123     1   112.3500484 533.878400
    117    129    141     1   111.5100476 526.347200
    120    116    123     1   112.3500484 533.878400
    120    132    138     1   111.5100476 526.347200
    123    126    135     1   111.5100476 526.347200
    126    135    144     1   107.9700462 569.024000
    129    141    347     1   107.9700462 569.024000
    132    138    318     1   107.9700462 569.024000
    138    318    309     1   112.4800480 524.673600
    141    347    338     1   112.4800480 524.673600
    145    146    158     1   111.0400475 552.288000
    145    149    161     1   111.0400475 552.288000
    145    152    155     1   111.0400475 552.288000
    146    145    149     1   112.3500484 533.878400
    146    145    152     1   112.3500484 533.878400
    146    158    170     1   111.5100476 526.347200
    149    145    152     1   112.3500484 533.878400
    149    161    167     1   111.5100476 526.347200
    152    155    164     1   111.5100476 526.347200
    155    164    173     1   107.9700462 569.024000
    158    170    405     1   107.9700462 569.024000
    161    167    376     1   107.9700462 569.024000
    167    376    367     1   112.4800480 524.673600
    170    405    396     1   112.4800480 524.673600
    174    175    187     1   111.0400475 552.288000
    174    178    190     1   111.0400475 552.288000
    174    181    184     1   111.0400475 552.288000
    175    174    178     1   112.3500484 533.878400
    175    174    181     1   112.3500484 533.878400
    175    187    199     1   111.5100476 526.347200
    178    174    181     1   112.3500484 533.878400
    178    190    196     1   111.5100476 526.347200
    181    184    193     1   111.5100476 526.347200
    184    193    202     1   107.9700462 569.024000
    187    199    463     1   107.9700462 569.024000
    190    196    434     1   107.9700462 569.024000
    196    434    425     1   112.4800480 524.673600
    199    463    454     1   112.4800480 524.673600
    203    204    216     1   111.0400475 552.288000
    203    207    219     1   111.0400475 552.288000
    203    210    213     1   111.0400475 552.288000
    204    203    207     1   112.3500484 533.878400
    204    203    210     1   112.3500484 533.878400
    204    216    228     1   111.5100476 526.347200
    207    203    210     1   112.3500484 533.878400
    207    219    225     1   111.5100476 526.347200
    210    213    222     1   111.5100476 526.347200
    213    222    231     1   107.9700462 569.024000
    216    228    521     1   107.9700462 569.024000
    219    225    492     1   107.9700462 569.024000
    225    492    483     1   112.4800480 524.673600
    228    521    512     1   112.4800480 524.673600
    232    233    245     1   111.0400475 552.288000
    232    236    248     1   111.0400475 552.288000
    232    239    242     1   111.0400475 552.288000
    233    232    236     1   112.3500484 533.878400
    233    232    239     1   112.3500484 533.878400
    233    245    257     1   111.5100476 526.347200
    236    232    239     1   112.3500484 533.878400
    236    248    254     1   111.5100476 526.347200
    239    242    251     1   111.5100476 526.347200
    242    251    260     1   107.9700462 569.024000
    245    257    579     1   107.9700462 569.024000
    248    254    550     1   107.9700462 569.024000
    254    550    541     1   112.4800480 524.673600
    257    579    570     1   112.4800480 524.673600
    261    262    274     1   111.0400475 552.288000
    261    265    277     1   111.0400475 552.288000
    261    268    271     1   111.0400475 552.288000
    262    261    265     1   112.3500484 533.878400
    262    261    268     1   112.3500484 533.878400
    262    274    286     1   111.5100476 526.347200
    265    261    268     1   112.3500484 533.878400
    265    277    283     1   111.5100476 526.347200
    268    271    280     1   111.5100476 526.347200
    271    280    289     1   107.9700462 569.024000
    274    286    637     1   107.9700462 569.024000
    277    283    608     1   107.9700462 569.024000
    283    608    599     1   112.4800480 524.673600
    286    637    628     1   112.4800480 524.673600
    290    291    303     1   111.0400475 552.288000
    290    294    306     1   111.0400475 552.288000
    290    297    300     1   111.0400475 552.288000
    291    290    294     1   112.3500484 533.878400
    291    290    297     1   112.3500484 533.878400
    291    303    315     1   111.5100476 526.347200
    294    290    297     1   112.3500484 533.878400
    294    306    312     1   111.5100476 526.347200
    297    300    309     1   111.5100476 526.347200
    300    309    318     1   107.9700462 569.024000
    303    315    695     1   107.9700462 569.024000
    306    312    666     1   107.9700462 569.024000
    312    666    657     1   112.4800480 524.673600
    315    695    686     1   112.4800480 524.673600
    319    320    332     1   111.0400475 552.288000
    319    323    335     1   111.0400475 552.288000
    319    326    329     1   111.0400475 552.288000
    320    319    323     1   112.3500484 533.878400
    320    319    326     1   112.3500484 533.878400
    320    332    344     1   111.5100476 526.347200
    323    319    326     1   112.3500484 533.878400
    323    335    341     1   111.5100476 526.347200
    326    329    338     1   111.5100476 526.347200
    329    338    347     1   107.9700462 569.024000
    332    344    753     1   107.9700462 569.024000
    335    341    724     1   107.9700462 569.024000
    341    724    715     1   112.4800480 524.673600
    344    753    744     1   112.4800480 524.673600
    348    349    361     1   111.0400475 552.288000
    348    352    364     1   111.0400475 552.288000
    348    355    358     1   111.0400475 552.288000
    349    348    352     1   112.3500484 533.878400
    349    348    355     1   112.3500484 533.878400
    349    361    373     1   111.5100476 526.347200
    352    348    355     1   112.3500484 533.878400
    352    364    370     1   111.5100476 526.347200
    355    358    367     1   111.5100476 526.347200
    358    367    376     1   107.9700462 569.024000
    361    373    811     1   107.9700462 569.024000
    364    370    782     1   107.9700462 569.024000
    370    782    773     1   112.4800480 524.673600
    373    811    802     1   112.4800480 524.673600
    377    378    390     1   111.0400475 552.288000
    377    381    393     1   111.0400475 552.288000
    377    384    387     1   111.0400475 552.288000
    378    377    381     1   112.3500484 533.878400
    378    377    384     1   112.3500484 533.878400
    378    390    402     1   111.5100476 526.347200
    381    377    384     1   112.3500484 533.878400
    381    393    399     1   111.5100476 526.347200
    384    387    396     1   111.5100476 526.347200
    387    396    405     1   107.9700462 569.024000
    390    402    869     1   107.9700462 569.024000
    393    399    840     1   107.9700462 569.024000
    399    840    831     1   112.4800480 524.673600
    402    869    860     1   112.4800480 524.673600
    406    407    419     1   111.0400475 552.288000
    406    410    422     1   111.0400475 552.288000
    406    413    416     1   111.0400475 552.288000
    407    406    410     1   112.3500484 533.878400
    407    406    413     1   112.3500484 533.878400
    407    419    431     1   111.5100476 526.347200
    410    406    413     1   112.3500484 533.878400
    410    422    428     1   111.5100476 526.347200
    413    416    425     1   111.5100476 526.347200
    416    425    434     1   107.9700462 569.024000
    419    431    927     1   107.9700462 569.024000
    422    428    898     1   107.9700462 569.024000
    428    898    889     1   112.4800480 524.673600
    431    927    918     1   112.4800480 524.673600
    435    436    448     1   111.0400475 552.288000
    435    439    451     1   111.0400475 552.288000
    435    442    445     1   111.0400475 552.288000
    436    435    439     1   112.3500484 533.878400
    436    435    442     1   112.3500484 533.878400
    436    448    460     1   111.5100476 526.347200
    439    435    442     1   112.3500484 533.878400
    439    451    457     1   111.5100476 526.347200
    442    445    454     1   111.5100476 526.347200
    445    454    463     1   107.9700462 569.024000
    448    460    985     1   107.9700462 569.024000
    451    457    956     1   107.9700462 569.024000
    457    956    947     1   112.4800480 524.673600
    460    985    976     1   112.4800480 524.673600
    464    465    477     1   111.0400475 552.288000
    464    468    480     1   111.0400475 552.288000
    464    471    474     1   111.0400475 552.288000
    465    464    468     1   112.3500484 533.878400
    465    464    471     1   112.3500484 533.878400
    465    477    489     1   111.5100476 526.347200
    468    464    471     1   112.3500484 533.878400
    468    480    486     1   111.5100476 526.347200
    471    474    483     1   111.5100476 526.347200
    474    483    492     1   107.9700462 569.024000
    477    489   1043     1   107.9700462 569.024000
    480    486   1014     1   107.9700462 569.024000
    486   1014   1005     1   112.4800480 524.673600
    489   1043   1034     1   112.4800480 524.673600
    493    494    506     1   111.0400475 552.288000
    493    497    509     1   111.0400475 552.288000
    493    500    503     1   111.0400475 552.288000
    494    493    497     1   112.3500484 533.878400
    494    493    500     1   112.3500484 533.878400
    494    506    518     1   111.5100476 526.347200
    497    493    500     1   112.3500484 533.878400
    497    509    515     1   111.5100476 526.347200
    500    503    512     1   111.5100476 526.347200
    503    512    521     1   107.9700462 569.024000
    506    518   1101     1   107.9700462 569.024000
    509    515   1072     1   107.9700462 569.024000
    515   1072   1063     1   112.4800480 524.673600
    518   1101   1092     1   112.4800480 524.673600
    522    523    535     1   111.0400475 552.288000
    522    526    538     1   111.0400475 552.288000
    522    529    532     1   111.0400475 552.288000
    523    522    526     1   112.3500484 533.878400
    523    522    529     1   112.3500484 533.878400
    523    535    547     1   111.5100476 526.347200
    526    522    529     1   112.3500484 533.878400
    526    538    544     1   111.5100476 526.347200
    529    532    541     1   111.5100476 526.347200
    532    541    550     1   107.9700462 569.024000
    535    547   1159     1   107.9700462 569.024000
    538    544   1130     1   107.9700462 569.024000
    544   1130   1121     1   112.4800480 524.673600
    547   1159   1150     1   112.4800480 524.673600
    551    552    564     1   111.0400475 552.288000
    551    555    567     1   111.0400475 552.288000
    551    558    561     1   111.0400475 552.288000
    552    551    555     1   112.3500484 533.878400
    552    551    558     1   112.3500484 533.878400
    552    564    576     1   111.5100476 526.347200
    555    551    558     1   112.3500484 533.878400
    555    567    573     1   111.5100476 526.347200
    558    561    570     1   111.5100476 526.347200
    561    570    579     1   107.9700462 569.024000
    564    576   1217     1   107.9700462 569.024000
    567    573   1188     1   107.9700462 569.024000
    573   1188   1179     1   112.4800480 524.673600
    576   1217   1208     1   112.4800480 524.673600
    580    581    593     1   111.0400475 552.288000
    580    584    596     1   111.0400475 552.288000
    580    587    590     1   111.0400475 552.288000
    581    580    584     1   112.3500484 533.878400
    581    580    587     1   112.3500484 533.878400
    581    593    605     1   111.5100476 526.347200
    584    580    587     1   112.3500484 533.878400
    584    596    602     1   111.5100476 526.347200
    587    590    599     1   111.5100476 526.347200
    590    599    608     1   107.9700462 569.024000
    593    605   1275     1   107.9700462 569.024000
    596    602   1246     1   107.9700462 569.024000
    602   1246   1237     1   112.4800480 524.673600
    605   1275   1266     1   112.4800480 524.673600
    609    610    622     1   111.0400475 552.288000
    609    613    625     1   111.0400475 552.288000
    609    616    619     1   111.0400475 552.288000
    610    609    613     1   112.3500484 533.878400
    610    609    616     1   112.3500484 533.878400
    610    622    634     1   111.5100476 526.347200
    613    609    616     1   112.3500484 533.878400
    613    625    631     1   111.5100476 526.347200
    616    619    628     1   111.5100476 526.347200
    619    628    637     1   107.9700462 569.024000
    622    634   1333     1   107.9700462 569.024000
    625    631   1304     1   107.9700462 569.024000
    631   1304   1295     1   112.4800480 524.673600
    634   1333   1324     1   112.4800480 524.673600
    638    639    651     1   111.0400475 552.288000
    638    642    654     1   111.0400475 552.288000
    638    645    648     1   111.0400475 552.288000
    639    638    642     1   112.3500484 533.878400
    639    638    645     1   112.3500484 533.878400
    639    651    663     1   111.5100476 526.347200
    642    638    645     1   112.3500484 533.878400
    642    654    660     1   111.5100476 526.347200
    645    648    657     1   111.5100476 526.347200
    648    657    666     1   107.9700462 569.024000
    651    663   1391     1   107.9700462 569.024000
    654    660   1362     1   107.9700462 569.024000
    660   1362   1353     1   112.4800480 524.673600
    663   1391   1382     1   112.4800480 524.673600
    667    668    680     1   111.0400475 552.288000
    667    671    683     1   111.0400475 552.288000
    667    674    677     1   111.0400475 552.288000
    668    667    671     1   112.3500484 533.878400
    668    667    674     1   112.3500484 533.878400
    668    680    692     1   111.5100476 526.347200
    671    667    674     1   112.3500484 533.878400
    671    683    689     1   111.5100476 526.347200
    674    677    686     1   111.5100476 526.347200
    677    686    695     1   107.9700462 569.024000
    680    692   1449     1   107.9700462 569.024000
    683    689   1420     1   107.9700462 569.024000
    689   1420   1411     1   112.4800480 524.673600
    692   1449   1440     1   112.4800480 524.673600
    696    697    709     1   111.0400475 552.288000
    696    700    712     1   111.0400475 552.288000
    696    703    706     1   111.0400475 552.288000
    697    696    700     1   112.3500484 533.878400
    697    696    703     1   112.3500484 533.878400
    697    709    721     1   111.5100476 526.347200
    700    696    703     1   112.3500484 533.878400
    700    712    718     1   111.5100476 526.347200
    703    706    715     1   111.5100476 526.347200
    706    715    724     1   107.9700462 569.024000
    709    721   1507     1   107.9700462 569.024000
    712    718   1478     1   107.9700462 569.024000
    718   1478   1469     1   112.4800480 524.673600
    721   1507   1498     1   112.4800480 524.673600
    725    726    738     1   111.0400475 552.288000
    725    729    741     1   111.0400475 552.288000
    725    732    735     1   111.0400475 552.288000
    726    725    729     1   112.3500484 533.878400
    726    725    732     1   112.3500484 533.878400
    726    738    750     1   111.5100476 526.347200
    729    725    732     1   112.3500484 533.878400
    729    741    747     1   111.5100476 526.347200
    732    735    744     1   111.5100476 526.347200
    735    744    753     1   107.9700462 569.024000
    738    750   1565     1   107.9700462 569.024000
    741    747   1536     1   107.9700462 569.024000
    747   1536   1527     1   112.4800480 524.673600
    750   1565   1556     1   112.4800480 524.673600
    754    755    767     1   111.0400475 552.288000
    754    758    770     1   111.0400475 552.288000
    754    761    764     1   111.0400475 552.288000
    755    754    758     1   112.3500484 533.878400
    755    754    761     1   112.3500484 533.878400
    755    767    779     1   111.5100476 526.347200
    758    754    761     1   112.3500484 533.878400
    758    770    776     1   111.5100476 526.347200
    761    764    773     1   111.5100476 526.347200
    764    773    782     1   107.9700462 569.024000
    767    779   1623     1   107.9700462 569.024000
    770    776   1594     1   107.9700462 569.024000
    776   1594   1585     1   112.4800480 524.673600
    779   1623   1614     1   112.4800480 524.673600
    783    784    796     1   111.0400475 552.288000
    783    787    799     1   111.0400475 552.288000
    783    790    793     1   111.0400475 552.288000
    784    783    787     1   112.3500484 533.878400
    784    783    790     1   112.3500484 533.878400
    784    796    808     1   111.5100476 526.347200
    787    783    790     1   112.3500484 533.878400
    787    799    805     1   111.5100476 526.347200
    790    793    802     1   111.5100476 526.347200
    793    802    811     1   107.9700462 569.024000
    796    808   1681     1   107.9700462 569.024000
    799    805   1652     1   107.9700462 569.024000
    805   1652   1643     1   112.4800480 524.673600
    808   1681   1672     1   112.4800480 524.673600
    812    813    825     1   111.0400475 552.288000
    812    816    828     1   111.0400475 552.288000
    812    819    822     1   111.0400475 552.288000
    813    812    816     1   112.3500484 533.878400
    813    812    819     1   112.3500484 533.878400
    813    825    837     1   111.5100476 526.347200
    816    812    819     1   112.3500484 533.878400
    816    828    834     1   111.5100476 526.347200
    819    822    831     1   111.5100476 526.347200
    822    831    840     1   107.9700462 569.024000
    825    837   1739     1   107.9700462 569.024000
    828    834   1710     1   107.9700462 569.024000
    834   1710   1701     1   112.4800480 524.673600
    837   1739   1730     1   112.4800480 524.673600
    841    842    854     1   111.0400475 552.288000
    841    845    857     1   111.0400475 552.288000
    841    848    851     1   111.0400475 552.288000
    842    841    845     1   112.3500484 533.878400
    842    841    848     1   112.3500484 533.878400
    842    854    866     1   111.5100476 526.347200
    845    841    848     1   112.3500484 533.878400
    845    857    863     1   111.5100476 526.347200
    848    851    860     1   111.5100476 526.347200
    851    860    869     1   107.9700462 569.024000
    854    866   1797     1   107.9700462 569.024000
    857    863   1768     1   107.9700462 569.024000
    863   1768   1759     1   112.4800480 524.673600
    866   1797   1788     1   112.4800480 524.673600
    870    871    883     1   111.0400475 552.288000
    870    874    886     1   111.0400475 552.288000
    870    877    880     1   111.0400475 552.288000
    871    870    874     1   112.3500484 533.878400
    871    870    877     1   112.3500484 533.878400
    871    883    895     1   111.5100476 526.347200
    874    870    877     1   112.3500484 533.878400
    874    886    892     1   111.5100476 526.347200
    877    880    889     1   111.5100476 526.347200
    880    889    898     1   107.9700462 569.024000
    883    895   1855     1   107.9700462 569.024000
    886    892   1826     1   107.9700462 569.024000
    892   1826   1817     1   112.4800480 524.673600
    895   1855   1846     1   112.4800480 524.673600
    899    900    912     1   111.0400475 552.288000
    899    903    915     1   111.0400475 552.288000
    899    906    909     1   111.0400475 552.288000
    900    899    903     1   112.3500484 533.878400
    900    899    906     1   112.3500484 533.878400
    900    912    924     1   111.5100476 526.347200
    903    899    906     1   112.3500484 533.878400
    903    915    921     1   111.5100476 526.347200
    906    909    918     1   111.5100476 526.347200
    909    918    927     1   107.9700462 569.024000
    912    924   1913     1   107.9700462 569.024000
    915    921   1884     1   107.9700462 569.024000
    921   1884   1875     1   112.4800480 524.673600
    924   1913   1904     1   112.4800480 524.673600
    928    929    941     1   111.0400475 552.288000
    928    932    944     1   111.0400475 552.288000
    928    935    938     1   111.0400475 552.288000
    929    928    932     1   112.3500484 533.878400
    929    928    935     1   112.3500484 533.878400
    929    941    953     1   111.5100476 526.347200
    932    928    935     1   112.3500484 533.878400
    932    944    950     1   111.5100476 526.347200
    935    938    947     1   111.5100476 526.347200
    938    947    956     1   107.9700462 569.024000
    941    953   1971     1   107.9700462 569.024000
    944    950   1942     1   107.9700462 569.024000
    950   1942   1933     1   112.4800480 524.673600
    953   1971   1962     1   112.4800480 524.673600
    957    958    970     1   111.0400475 552.288000
    957    961    973     1   111.0400475 552.288000
    957    964    967     1   111.0400475 552.288000
    958    957    961     1   112.3500484 533.878400
    958    957    964     1   112.3500484 533.878400
    958    970    982     1   111.5100476 526.347200
    961    957    964     1   112.3500484 533.878400
    961    973    979     1   111.5100476 526.347200
    964    967    976     1   111.5100476 526.347200
    967    976    985     1   107.9700462 569.024000
    970    982   2029     1   107.9700462 569.024000
    973    979   2000     1   107.9700462 569.024000
    979   2000   1991     1   112.4800480 524.673600
    982   2029   2020     1   112.4800480 524.673600
    986    987    999     1   111.0400475 552.288000
    986    990   1002     1   111.0400475 552.288000
    986    993    996     1   111.0400475 552.288000
    987    986    990     1   112.3500484 533.878400
    987    986    993     1   112.3500484 533.878400
    987    999   1011     1   111.5100476 526.347200
    990    986    993     1   112.3500484 533.878400
    990   1002   1008     1   111.5100476 526.347200
    993    996   1005     1   111.5100476 526.347200
    996   1005   1014     1   107.9700462 569.024000
    999   1011   2087     1   107.9700462 569.024000
   1002   1008   2058     1   107.9700462 569.024000
   1008   2058   2049     1   112.4800480 524.673600
   1011   2087   2078     1   112.4800480 524.673600
   1015   1016   1028     1   111.0400475 552.288000
   1015   1019   1031     1   111.0400475 552.288000
   1015   1022   1025     1   111.0400475 552.288000
   1016   1015   1019     1   112.3500484 533.878400
   1016   1015   1022     1   112.3500484 533.878400
   1016   1028   1040     1   111.5100476 526.347200
   1019   1015   1022     1   112.3500484 533.878400
   1019   1031   1037     1   111.5100476 526.347200
   1022   1025   1034     1   111.5100476 526.347200
   1025   1034   1043     1   107.9700462 569.024000
   1028   1040   2145     1   107.9700462 569.024000
   1031   1037   2116     1   107.9700462 569.024000
   1037   2116   2107     1   112.4800480 524.673600
   1040   2145   2136     1   112.4800480 524.673600
   1044   1045   1057     1   111.0400475 552.288000
   1044   1048   1060     1   111.0400475 552.288000
   1044   1051   1054     1   111.0400475 552.288000
   1045   1044   1048     1   112.3500484 533.878400
   1045   1044   1051     1   112.3500484 533.878400
   1045   1057   1069     1   111.5100476 526.347200
   1048   1044   1051     1   112.3500484 533.878400
   1048   1060   1066     1   111.5100476 526.347200
   1051   1054   1063     1   111.5100476 526.347200
   1054   1063   1072     1   107.9700462 569.024000
   1057   1069   2203     1   107.9700462 569.024000
   1060   1066   2174     1   107.9700462 569.024000
   1066   2174   2165     1   112.4800480 524.673600
   1069   2203   2194     1   112.4800480 524.673600
   1073   1074   1086     1   111.0400475 552.288000
   1073   1077   1089     1   111.0400475 552.288000
   1073   1080   1083     1   111.0400475 552.288000
   1074   1073   1077     1   112.3500484 533.878400
   1074   1073   1080     1   112.3500484 533.878400
   1074   1086   1098     1   111.5100476 526.347200
   1077   1073   1080     1   112.3500484 533.878400
   1077   1089   1095     1   111.5100476 526.347200
   1080   1083   1092     1   111.5100476 526.347200
   1083   1092   1101     1   107.9700462 569.024000
   1086   1098   2261     1   107.9700462 569.024000
   1089   1095   2232     1   107.9700462 569.024000
   1095   2232   2223     1   112.4800480 524.673600
   1098   2261   2252     1   112.4800480 524.673600
   1102   1103   1115     1   111.0400475 552.288000
   1102   1106   1118     1   111.0400475 552.288000
   1102   1109   1112     1   111.0400475 552.288000
   1103   1102   1106     1   112.3500484 533.878400
   1103   1102   1109     1   112.3500484 533.878400
   1103   1115   1127     1   111.5100476 526.347200
   1106   1102   1109     1   112.3500484 533.878400
   1106   1118   1124     1   111.5100476 526.347200
   1109   1112   1121     1   111.5100476 526.347200
   1112   1121   1130     1   107.9700462 569.024000
   1115   1127   2319     1   107.9700462 569.024000
   1118   1124   2290     1   107.9700462 569.024000
   1124   2290   2281     1   112.4800480 524.673600
   1127   2319   2310     1   112.4800480 524.673600
   1131   1132   1144     1   111.0400475 552.288000
   1131   1135   1147     1   111.0400475 552.288000
   1131   1138   1141     1   111.0400475 552.288000
   1132   1131   1135     1   112.3500484 533.878400
   1132   1131   1138     1   112.3500484 533.878400
   1132   1144   1156     1   111.5100476 526.347200
   1135   1131   1138     1   112.3500484 533.878400
   1135   1147   1153     1   111.5100476 526.347200
   1138   1141   1150     1   111.5100476 526.347200
   1141   1150   1159     1   107.9700462 569.024000
   1144   1156   2377     1   107.9700462 569.024000
   1147   1153   2348     1   107.9700462 569.024000
   1153   2348   2339     1   112.4800480 524.673600
   1156   2377   2368     1   112.4800480 524.673600
   1160   1161   1173     1   111.0400475 552.288000
   1160   1164   1176     1   111.0400475 552.288000
   1160   1167   1170     1   111.0400475 552.288000
   1161   1160   1164     1   112.3500484 533.878400
   1161   1160   1167     1   112.3500484 533.878400
   1161   1173   1185     1   111.5100476 526.347200
   1164   1160   1167     1   112.3500484 533.878400
   1164   1176   1182     1   111.5100476 526.347200
   1167   1170   1179     1   111.5100476 526.347200
   1170   1179   1188     1   107.9700462 569.024000
   1173   1185   2435     1   107.9700462 569.024000
   1176   1182   2406     1   107.9700462 569.024000
   1182   2406   2397     1   112.4800480 524.673600
   1185   2435   2426     1   112.4800480 524.673600
   1189   1190   1202     1   111.0400475 552.288000
   1189   1193   1205     1   111.0400475 552.288000
   1189   1196   1199     1   111.0400475 552.288000
   1190   1189   1193     1   112.3500484 533.878400
   1190   1189   1196     1   112.3500484 533.878400
   1190   1202   1214     1   111.5100476 526.347200
   1193   1189   1196     1   112.3500484 533.878400
   1193   1205   1211     1   111.5100476 526.347200
   1196   1199   1208     1   111.5100476 526.347200
   1199   1208   1217     1   107.9700462 569.024000
   1202   1214   2493     1   107.9700462 569.024000
   1205   1211   2464     1   107.9700462 569.024000
   1211   2464   2455     1   112.4800480 524.673600
   1214   2493   2484     1   112.4800480 524.673600
   1218   1219   1231     1   111.0400475 552.288000
   1218   1222   1234     1   111.0400475 552.288000
   1218   1225   1228     1   111.0400475 552.288000
   1219   1218   1222     1   112.3500484 533.878400
   1219   1218   1225     1   112.3500484 533.878400
   1219   1231   1243     1   111.5100476 526.347200
   1222   1218   1225     1   112.3500484 533.878400
   1222   1234   1240     1   111.5100476 526.347200
   1225   1228   1237     1   111.5100476 526.347200
   1228   1237   1246     1   107.9700462 569.024000
   1231   1243   2551     1   107.9700462 569.024000
   1234   1240   2522     1   107.9700462 569.024000
   1240   2522   2513     1   112.4800480 524.673600
   1243   2551   2542     1   112.4800480 524.673600
   1247   1248   1260     1   111.0400475 552.288000
   1247   1251   1263     1   111.0400475 552.288000
   1247   1254   1257     1   111.0400475 552.288000
   1248   1247   1251     1   112.3500484 533.878400
   1248   1247   1254     1   112.3500484 533.878400
   1248   1260   1272     1   111.5100476 526.347200
   1251   1247   1254     1   112.3500484 533.878400
   1251   1263   1269     1   111.5100476 526.347200
   1254   1257   1266     1   111.5100476 526.347200
   1257   1266   1275     1   107.9700462 569.024000
   1260   1272   2609     1   107.9700462 569.024000
   1263   1269   2580     1   107.9700462 569.024000
   1269   2580   2571     1   112.4800480 524.673600
   1272   2609   2600     1   112.4800480 524.673600
   1276   1277   1289     1   111.0400475 552.288000
   1276   1280   1292     1   111.0400475 552.288000
   1276   1283   1286     1   111.0400475 552.288000
   1277   1276   1280     1   112.3500484 533.878400
   1277   1276   1283     1   112.3500484 533.878400
   1277   1289   1301     1   111.5100476 526.347200
   1280   1276   1283     1   112.3500484 533.878400
   1280   1292   1298     1   111.5100476 526.347200
   1283   1286   1295     1   111.5100476 526.347200
   1286   1295   1304     1   107.9700462 569.024000
   1289   1301   2667     1   107.9700462 569.024000
   1292   1298   2638     1   107.9700462 569.024000
   1298   2638   2629     1   112.4800480 524.673600
   1301   2667   2658     1   112.4800480 524.673600
   1305   1306   1318     1   111.0400475 552.288000
   1305   1309   1321     1   111.0400475 552.288000
   1305   1312   1315     1   111.0400475 552.288000
   1306   1305   1309     1   112.3500484 533.878400
   1306   1305   1312     1   112.3500484 533.878400
   1306   1318   1330     1   111.5100476 526.347200
   1309   1305   1312     1   112.3500484 533.878400
   1309   1321   1327     1   111.5100476 526.347200
   1312   1315   1324     1   111.5100476 526.347200
   1315   1324   1333     1   107.9700462 569.024000
   1318   1330   2725     1   107.9700462 569.024000
   1321   1327   2696     1   107.9700462 569.024000
   1327   2696   2687     1   112.4800480 524.673600
   1330   2725   2716     1   112.4800480 524.673600
   1334   1335   1347     1   111.0400475 552.288000
   1334   1338   1350     1   111.0400475 552.288000
   1334   1341   1344     1   111.0400475 552.288000
   1335   1334   1338     1   112.3500484 533.878400
   1335   1334   1341     1   112.3500484 533.878400
   1335   1347   1359     1   111.5100476 526.347200
   1338   1334   1341     1   112.3500484 533.878400
   1338   1350   1356     1   111.5100476 526.347200
   1341   1344   1353     1   111.5100476 526.347200
   1344   1353   1362     1   107.9700462 569.024000
   1347   1359   2759     1   107.9700462 569.024000
   1350   1356   2736     1   107.9700462 569.024000
   1356   2736   2732     1   112.4800480 524.673600
   1359   2759   2755     1   112.4800480 524.673600
   1363   1364   1376     1   111.0400475 552.288000
   1363   1367   1379     1   111.0400475 552.288000
   1363   1370   1373     1   111.0400475 552.288000
   1364   1363   1367     1   112.3500484 533.878400
   1364   1363   1370     1   112.3500484 533.878400
   1364   1376   1388     1   111.5100476 526.347200
   1367   1363   1370     1   112.3500484 533.878400
   1367   1379   1385     1   111.5100476 526.347200
   1370   1373   1382     1   111.5100476 526.347200
   1373   1382   1391     1   107.9700462 569.024000
   1376   1388   2805     1   107.9700462 569.024000
   1379   1385   2782     1   107.9700462 569.024000
   1385   2782   2778     1   112.4800480 524.673600
   1388   2805   2801     1   112.4800480 524.673600
   1392   1393   1405     1   111.0400475 552.288000
   1392   1396   1408     1   111.0400475 552.288000
   1392   1399   1402     1   111.0400475 552.288000
   1393   1392   1396     1   112.3500484 533.878400
   1393   1392   1399     1   112.3500484 533.878400
   1393   1405   1417     1   111.5100476 526.347200
   1396   1392   1399     1   112.3500484 533.878400
   1396   1408   1414     1   111.5100476 526.347200
   1399   1402   1411     1   111.5100476 526.347200
   1402   1411   1420     1   107.9700462 569.024000
   1405   1417   2851     1   107.9700462 569.024000
   1408   1414   2828     1   107.9700462 569.024000
   1414   2828   2824     1   112.4800480 524.673600
   1417   2851   2847     1   112.4800480 524.673600
   1421   1422   1434     1   111.0400475 552.288000
   1421   1425   1437     1   111.0400475 552.288000
   1421   1428   1431     1   111.0400475 552.288000
   1422   1421   1425     1   112.3500484 533.878400
   1422   1421   1428     1   112.3500484 533.878400
   1422   1434   1446     1   111.5100476 526.347200
   1425   1421   1428     1   112.3500484 533.878400
   1425   1437   1443     1   111.5100476 526.347200
   1428   1431   1440     1   111.5100476 526.347200
   1431   1440   1449     1   107.9700462 569.024000
   1434   1446   2897     1   107.9700462 569.024000
   1437   1443   2874     1   107.9700462 569.024000
   1443   2874   2870     1   112.4800480 524.673600
   1446   2897   2893     1   112.4800480 524.673600
   1450   1451   1463     1   111.0400475 552.288000
   1450   1454   1466     1   111.0400475 552.288000
   1450   1457   1460     1   111.0400475 552.288000
   1451   1450   1454     1   112.3500484 533.878400
   1451   1450   1457     1   112.3500484 533.878400
   1451   1463   1475     1   111.5100476 526.347200
   1454   1450   1457     1   112.3500484 533.878400
   1454   1466   1472     1   111.5100476 526.347200
   1457   1460   1469     1   111.5100476 526.347200
   1460   1469   1478     1   107.9700462 569.024000
   1463   1475   2943     1   107.9700462 569.024000
   1466   1472   2920     1   107.9700462 569.024000
   1472   2920   2916     1   112.4800480 524.673600
   1475   2943   2939     1   112.4800480 524.673600
   1479   1480   1492     1   111.0400475 552.288000
   1479   1483   1495     1   111.0400475 552.288000
   1479   1486   1489     1   111.0400475 552.288000
   1480   1479   1483     1   112.3500484 533.878400
   1480   1479   1486     1   112.3500484 533.878400
   1480   1492   1504     1   111.5100476 526.347200
   1483   1479   1486     1   112.3500484 533.878400
   1483   1495   1501     1   111.5100476 526.347200
   1486   1489   1498     1   111.5100476 526.347200
   1489   1498   1507     1   107.9700462 569.024000
   1492   1504   2989     1   107.9700462 569.024000
   1495   1501   2966     1   107.9700462 569.024000
   1501   2966   2962     1   112.4800480 524.673600
   1504   2989   2985     1   112.4800480 524.673600
   1508   1509   1521     1   111.0400475 552.288000
   1508   1512   1524     1   111.0400475 552.288000
   1508   1515   1518     1   111.0400475 552.288000
   1509   1508   1512     1   112.3500484 533.878400
   1509   1508   1515     1   112.3500484 533.878400
   1509   1521   1533     1   111.5100476 526.347200
   1512   1508   1515     1   112.3500484 533.878400
   1512   1524   1530     1   111.5100476 526.347200
   1515   1518   1527     1   111.5100476 526.347200
   1518   1527   1536     1   107.9700462 569.024000
   1521   1533   3035     1   107.9700462 569.024000
   1524   1530   3012     1   107.9700462 569.024000
   1530   3012   3008     1   112.4800480 524.673600
   1533   3035   3031     1   112.4800480 524.673600
   1537   1538   1550     1   111.0400475 552.288000
   1537   1541   1553     1   111.0400475 552.288000
   1537   1544   1547     1   111.0400475 552.288000
   1538   1537   1541     1   112.3500484 533.878400
   1538   1537   1544     1   112.3500484 533.878400
   1538   1550   1562     1   111.5100476 526.347200
   1541   1537   1544     1   112.3500484 533.878400
   1541   1553   1559     1   111.5100476 526.347200
   1544   1547   1556     1   111.5100476 526.347200
   1547   1556   1565     1   107.9700462 569.024000
   1550   1562   3081     1   107.9700462 569.024000
   1553   1559   3058     1   107.9700462 569.024000
   1559   3058   3054     1   112.4800480 524.673600
   1562   3081   3077     1   112.4800480 524.673600
   1566   1567   1579     1   111.0400475 552.288000
   1566   1570   1582     1   111.0400475 552.288000
   1566   1573   1576     1   111.0400475 552.288000
   1567   1566   1570     1   112.3500484 533.878400
   1567   1566   1573     1   112.3500484 533.878400
   1567   1579   1591     1   111.5100476 526.347200
   1570   1566   1573     1   112.3500484 533.878400
   1570   1582   1588     1   111.5100476 526.347200
   1573   1576   1585     1   111.5100476 526.347200
   1576   1585   1594     1   107.9700462 569.024000
   1579   1591   3127     1   107.9700462 569.024000
   1582   1588   3104     1   107.9700462 569.024000
   1588   3104   3100     1   112.4800480 524.673600
   1591   3127   3123     1   112.4800480 524.673600
   1595   1596   1608     1   111.0400475 552.288000
   1595   1599   1611     1   111.0400475 552.288000
   1595   1602   1605     1   111.0400475 552.288000
   1596   1595   1599     1   112.3500484 533.878400
   1596   1595   1602     1   112.3500484 533.878400
   1596   1608   1620     1   111.5100476 526.347200
   1599   1595   1602     1   112.3500484 533.878400
   1599   1611   1617     1   111.5100476 526.347200
   1602   1605   1614     1   111.5100476 526.347200
   1605   1614   1623     1   107.9700462 569.024000
   1608   1620   3173     1   107.9700462 569.024000
   1611   1617   3150     1   107.9700462 569.024000
   1617   3150   3146     1   112.4800480 524.673600
   1620   3173   3169     1   112.4800480 524.673600
   1624   1625   1637     1   111.0400475 552.288000
   1624   1628   1640     1   111.0400475 552.288000
   1624   1631   1634     1   111.0400475 552.288000
   1625   1624   1628     1   112.3500484 533.878400
   1625   1624   1631     1   112.3500484 533.878400
   1625   1637   1649     1   111.5100476 526.347200
   1628   1624   1631     1   112.3500484 533.878400
   1628   1640   1646     1   111.5100476 526.347200
   1631   1634   1643     1   111.5100476 526.347200
   1634   1643   1652     1   107.9700462 569.024000
   1637   1649   3219     1   107.9700462 569.024000
   1640   1646   3196     1   107.9700462 569.024000
   1646   3196   3192     1   112.4800480 524.673600
   1649   3219   3215     1   112.4800480 524.673600
   1653   1654   1666     1   111.0400475 552.288000
   1653   1657   1669     1   111.0400475 552.288000
   1653   1660   1663     1   111.0400475 552.288000
   1654   1653   1657     1   112.3500484 533.878400
   1654   1653   1660     1   112.3500484 533.878400
   1654   1666   1678     1   111.5100476 526.347200
   1657   1653   1660     1   112.3500484 533.878400
   1657   1669   1675     1   111.5100476 526.347200
   1660   1663   1672     1   111.5100476 526.347200
   1663   1672   1681     1   107.9700462 569.024000
   1666   1678   3265     1   107.9700462 569.024000
   1669   1675   3242     1   107.9700462 569.024000
   1675   3242   3238     1   112.4800480 524.673600
   1678   3265   3261     1   112.4800480 524.673600
   1682   1683   1695     1   111.0400475 552.288000
   1682   1686   1698     1   111.0400475 552.288000
   1682   1689   1692     1   111.0400475 552.288000
   1683   1682   1686     1   112.3500484 533.878400
   1683   1682   1689     1   112.3500484 533.878400
   1683   1695   1707     1   111.5100476 526.347200
   1686   1682   1689     1   112.3500484 533.878400
   1686   1698   1704     1   111.5100476 526.347200
   1689   1692   1701     1   111.5100476 526.347200
   1692   1701   1710     1   107.9700462 569.024000
   1695   1707   3311     1   107.9700462 569.024000
   1698   1704   3288     1   107.9700462 569.024000
   1704   3288   3284     1   112.4800480 524.673600
   1707   3311   3307     1   112.4800480 524.673600
   1711   1712   1724     1   111.0400475 552.288000
   1711   1715   1727     1   111.0400475 552.288000
   1711   1718   1721     1   111.0400475 552.288000
   1712   1711   1715     1   112.3500484 533.878400
   1712   1711   1718     1   112.3500484 533.878400
   1712   1724   1736     1   111.5100476 526.347200
   1715   1711   1718     1   112.3500484 533.878400
   1715   1727   1733     1   111.5100476 526.347200
   1718   1721   1730     1   111.5100476 526.347200
   1721   1730   1739     1   107.9700462 569.024000
   1724   1736   3357     1   107.9700462 569.024000
   1727   1733   3334     1   107.9700462 569.024000
   1733   3334   3330     1   112.4800480 524.673600
   1736   3357   3353     1   112.4800480 524.673600
   1740   1741   1753     1   111.0400475 552.288000
   1740   1744   1756     1   111.0400475 552.288000
   1740   1747   1750     1   111.0400475 552.288000
   1741   1740   1744     1   112.3500484 533.878400
   1741   1740   1747     1   112.3500484 533.878400
   1741   1753   1765     1   111.5100476 526.347200
   1744   1740   1747     1   112.3500484 533.878400
   1744   1756   1762     1   111.5100476 526.347200
   1747   1750   1759     1   111.5100476 526.347200
   1750   1759   1768     1   107.9700462 569.024000
   1753   1765   3403     1   107.9700462 569.024000
   1756   1762   3380     1   107.9700462 569.024000
   1762   3380   3376     1   112.4800480 524.673600
   1765   3403   3399     1   112.4800480 524.673600
   1769   1770   1782     1   111.0400475 552.288000
   1769   1773   1785     1   111.0400475 552.288000
   1769   1776   1779     1   111.0400475 552.288000
   1770   1769   1773     1   112.3500484 533.878400
   1770   1769   1776     1   112.3500484 533.878400
   1770   1782   1794     1   111.5100476 526.347200
   1773   1769   1776     1   112.3500484 533.878400
   1773   1785   1791     1   111.5100476 526.347200
   1776   1779   1788     1   111.5100476 526.347200
   1779   1788   1797     1   107.9700462 569.024000
   1782   1794   3449     1   107.9700462 569.024000
   1785   1791   3426     1   107.9700462 569.024000
   1791   3426   3422     1   112.4800480 524.673600
   1794   3449   3445     1   112.4800480 524.673600
   1798   1799   1811     1   111.0400475 552.288000
   1798   1802   1814     1   111.0400475 552.288000
   1798   1805   1808     1   111.0400475 552.288000
   1799   1798   1802     1   112.3500484 533.878400
   1799   1798   1805     1   112.3500484 533.878400
   1799   1811   1823     1   111.5100476 526.347200
   1802   1798   1805     1   112.3500484 533.878400
   1802   1814   1820     1   111.5100476 526.347200
   1805   1808   1817     1   111.5100476 526.347200
   1808   1817   1826     1   107.9700462 569.024000
   1811   1823   3495     1   107.9700462 569.024000
   1814   1820   3472     1   107.9700462 569.024000
   1820   3472   3468     1   112.4800480 524.673600
   1823   3495   3491     1   112.4800480 524.673600
   1827   1828   1840     1   111.0400475 552.288000
   1827   1831   1843     1   111.0400475 552.288000
   1827   1834   1837     1   111.0400475 552.288000
   1828   1827   1831     1   112.3500484 533.878400
   1828   1827   1834     1   112.3500484 533.878400
   1828   1840   1852     1   111.5100476 526.347200
   1831   1827   1834     1   112.3500484 533.878400
   1831   1843   1849     1   111.5100476 526.347200
   1834   1837   1846     1   111.5100476 526.347200
   1837   1846   1855     1   107.9700462 569.024000
   1840   1852   3541     1   107.9700462 569.024000
   1843   1849   3518     1   107.9700462 569.024000
   1849   3518   3514     1   112.4800480 524.673600
   1852   3541   3537     1   112.4800480 524.673600
   1856   1857   1869     1   111.0400475 552.288000
   1856   1860   1872     1   111.0400475 552.288000
   1856   1863   1866     1   111.0400475 552.288000
   1857   1856   1860     1   112.3500484 533.878400
   1857   1856   1863     1   112.3500484 533.878400
   1857   1869   1881     1   111.5100476 526.347200
   1860   1856   1863     1   112.3500484 533.878400
   1860   1872   1878     1   111.5100476 526.347200
   1863   1866   1875     1   111.5100476 526.347200
   1866   1875   1884     1   107.9700462 569.024000
   1869   1881   3587     1   107.9700462 569.024000
   1872   1878   3564     1   107.9700462 569.024000
   1878   3564   3560     1   112.4800480 524.673600
   1881   3587   3583     1   112.4800480 524.673600
   1885   1886   1898     1   111.0400475 552.288000
   1885   1889   1901     1   111.0400475 552.288000
   1885   1892   1895     1   111.0400475 552.288000
   1886   1885   1889     1   112.3500484 533.878400
   1886   1885   1892     1   112.3500484 533.878400
   1886   1898   1910     1   111.5100476 526.347200
   1889   1885   1892     1   112.3500484 533.878400
   1889   1901   1907     1   111.5100476 526.347200
   1892   1895   1904     1   111.5100476 526.347200
   1895   1904   1913     1   107.9700462 569.024000
   1898   1910   3633     1   107.9700462 569.024000
   1901   1907   3610     1   107.9700462 569.024000
   1907   3610   3606     1   112.4800480 524.673600
   1910   3633   3629     1   112.4800480 524.673600
   1914   1915   1927     1   111.0400475 552.288000
   1914   1918   1930     1   111.0400475 552.288000
   1914   1921   1924     1   111.0400475 552.288000
   1915   1914   1918     1   112.3500484 533.878400
   1915   1914   1921     1   112.3500484 533.878400
   1915   1927   1939     1   111.5100476 526.347200
   1918   1914   1921     1   112.3500484 533.878400
   1918   1930   1936     1   111.5100476 526.347200
   1921   1924   1933     1   111.5100476 526.347200
   1924   1933   1942     1   107.9700462 569.024000
   1927   1939   3679     1   107.9700462 569.024000
   1930   1936   3656     1   107.9700462 569.024000
   1936   3656   3652     1   112.4800480 524.673600
   1939   3679   3675     1   112.4800480 524.673600
   1943   1944   1956     1   111.0400475 552.288000
   1943   1947   1959     1   111.0400475 552.288000
   1943   1950   1953     1   111.0400475 552.288000
   1944   1943   1947     1   112.3500484 533.878400
   1944   1943   1950     1   112.3500484 533.878400
   1944   1956   1968     1   111.5100476 526.347200
   1947   1943   1950     1   112.3500484 533.878400
   1947   1959   1965     1   111.5100476 526.347200
   1950   1953   1962     1   111.5100476 526.347200
   1953   1962   1971     1   107.9700462 569.024000
   1956   1968   3725     1   107.9700462 569.024000
   1959   1965   3702     1   107.9700462 569.024000
   1965   3702   3698     1   112.4800480 524.673600
   1968   3725   3721     1   112.4800480 524.673600
   1972   1973   1985     1   111.0400475 552.288000
   1972   1976   1988     1   111.0400475 552.288000
   1972   1979   1982     1   111.0400475 552.288000
   1973   1972   1976     1   112.3500484 533.878400
   1973   1972   1979     1   112.3500484 533.878400
   1973   1985   1997     1   111.5100476 526.347200
   1976   1972   1979     1   112.3500484 533.878400
   1976   1988   1994     1   111.5100476 526.347200
   1979   1982   1991     1   111.5100476 526.347200
   1982   1991   2000     1   107.9700462 569.024000
   1985   1997   3771     1   107.9700462 569.024000
   1988   1994   3748     1   107.9700462 569.024000
   1994   3748   3744     1   112.4800480 524.673600
   1997   3771   3767     1   112.4800480 524.673600
   2001   2002   2014     1   111.0400475 552.288000
   2001   2005   2017     1   111.0400475 552.288000
   2001   2008   2011     1   111.0400475 552.288000
   2002   2001   2005     1   112.3500484 533.878400
   2002   2001   2008     1   112.3500484 533.878400
   2002   2014   2026     1   111.5100476 526.347200
   2005   2001   2008     1   112.3500484 533.878400
   2005   2017   2023     1   111.5100476 526.347200
   2008   2011   2020     1   111.5100476 526.347200
   2011   2020   2029     1   107.9700462 569.024000
   2014   2026   3817     1   107.9700462 569.024000
   2017   2023   3794     1   107.9700462 569.024000
   2023   3794   3790     1   112.4800480 524.673600
   2026   3817   3813     1   112.4800480 524.673600
   2030   2031   2043     1   111.0400475 552.288000
   2030   2034   2046     1   111.0400475 552.288000
   2030   2037   2040     1   111.0400475 552.288000
   2031   2030   2034     1   112.3500484 533.878400
   2031   2030   2037     1   112.3500484 533.878400
   2031   2043   2055     1   111.5100476 526.347200
   2034   2030   2037     1   112.3500484 533.878400
   2034   2046   2052     1   111.5100476 526.347200
   2037   2040   2049     1   111.5100476 526.347200
   2040   2049   2058     1   107.9700462 569.024000
   2043   2055   3863     1   107.9700462 569.024000
   2046   2052   3840     1   107.9700462 569.024000
   2052   3840   3836     1   112.4800480 524.673600
   2055   3863   3859     1   112.4800480 524.673600
   2059   2060   2072     1   111.0400475 552.288000
   2059   2063   2075     1   111.0400475 552.288000
   2059   2066   2069     1   111.0400475 552.288000
   2060   2059   2063     1   112.3500484 533.878400
   2060   2059   2066     1   112.3500484 533.878400
   2060   2072   2084     1   111.5100476 526.347200
   2063   2059   2066     1   112.3500484 533.878400
   2063   2075   2081     1   111.5100476 526.347200
   2066   2069   2078     1   111.5100476 526.347200
   2069   2078   2087     1   107.9700462 569.024000
   2072   2084   3909     1   107.9700462 569.024000
   2075   2081   3886     1   107.9700462 569.024000
   2081   3886   3882     1   112.4800480 524.673600
   2084   3909   3905     1   112.4800480 524.673600
   2088   2089   2101     1   111.0400475 552.288000
   2088   2092   2104     1   111.0400475 552.288000
   2088   2095   2098     1   111.0400475 552.288000
   2089   2088   2092     1   112.3500484 533.878400
   2089   2088   2095     1   112.3500484 533.878400
   2089   2101   2113     1   111.5100476 526.347200
   2092   2088   2095     1   112.3500484 533.878400
   2092   2104   2110     1   111.5100476 526.347200
   2095   2098   2107     1   111.5100476 526.347200
   2098   2107   2116     1   107.9700462 569.024000
   2101   2113   3955     1   107.9700462 569.024000
   2104   2110   3932     1   107.9700462 569.024000
   2110   3932   3928     1   112.4800480 524.673600
   2113   3955   3951     1   112.4800480 524.673600
   2117   2118   2130     1   111.0400475 552.288000
   2117   2121   2133     1   111.0400475 552.288000
   2117   2124   2127     1   111.0400475 552.288000
   2118   2117   2121     1   112.3500484 533.878400
   2118   2117   2124     1   112.3500484 533.878400
   2118   2130   2142     1   111.5100476 526.347200
   2121   2117   2124     1   112.3500484 533.878400
   2121   2133   2139     1   111.5100476 526.347200
   2124   2127   2136     1   111.5100476 526.347200
   2127   2136   2145     1   107.9700462 569.024000
   2130   2142   4001     1   107.9700462 569.024000
   2133   2139   3978     1   107.9700462 569.024000
   2139   3978   3974     1   112.4800480 524.673600
   2142   4001   3997     1   112.4800480 524.673600
   2146   2147   2159     1   111.0400475 552.288000
   2146   2150   2162     1   111.0400475 552.288000
   2146   2153   2156     1   111.0400475 552.288000
   2147   2146   2150     1   112.3500484 533.878400
   2147   2146   2153     1   112.3500484 533.878400
   2147   2159   2171     1   111.5100476 526.347200
   2150   2146   2153     1   112.3500484 533.878400
   2150   2162   2168     1   111.5100476 526.347200
   2153   2156   2165     1   111.5100476 526.347200
   2156   2165   2174     1   107.9700462 569.024000
   2159   2171   4047     1   107.9700462 569.024000
   2162   2168   4024     1   107.9700462 569.024000
   2168   4024   4020     1   112.4800480 524.673600
   2171   4047   4043     1   112.4800480 524.673600
   2175   2176   2188     1   111.0400475 552.288000
   2175   2179   2191     1   111.0400475 552.288000
   2175   2182   2185     1   111.0400475 552.288000
   2176   2175   2179     1   112.3500484 533.878400
   2176   2175   2182     1   112.3500484 533.878400
   2176   2188   2200     1   111.5100476 526.347200
   2179   2175   2182     1   112.3500484 533.878400
   2179   2191   2197     1   111.5100476 526.347200
   2182   2185   2194     1   111.5100476 526.347200
   2185   2194   2203     1   107.9700462 569.024000
   2188   2200   4093     1   107.9700462 569.024000
   2191   2197   4070     1   107.9700462 569.024000
   2197   4070   4066     1   112.4800480 524.673600
   2200   4093   4089     1   112.4800480 524.673600
   2204   2205   2217     1   111.0400475 552.288000
   2204   2208   2220     1   111.0400475 552.288000
   2204   2211   2214     1   111.0400475 552.288000
   2205   2204   2208     1   112.3500484 533.878400
   2205   2204   2211     1   112.3500484 533.878400
   2205   2217   2229     1   111.5100476 526.347200
   2208   2204   2211     1   112.3500484 533.878400
   2208   2220   2226     1   111.5100476 526.347200
   2211   2214   2223     1   111.5100476 526.347200
   2214   2223   2232     1   107.9700462 569.024000
   2217   2229   4139     1   107.9700462 569.024000
   2220   2226   4116     1   107.9700462 569.024000
   2226   4116   4112     1   112.4800480 524.673600
   2229   4139   4135     1   112.4800480 524.673600
   2233   2234   2246     1   111.0400475 552.288000
   2233   2237   2249     1   111.0400475 552.288000
   2233   2240   2243     1   111.0400475 552.288000
   2234   2233   2237     1   112.3500484 533.878400
   2234   2233   2240     1   112.3500484 533.878400
   2234   2246   2258     1   111.5100476 526.347200
   2237   2233   2240     1   112.3500484 533.878400
   2237   2249   2255     1   111.5100476 526.347200
   2240   2243   2252     1   111.5100476 526.347200
   2243   2252   2261     1   107.9700462 569.024000
   2246   2258   4185     1   107.9700462 569.024000
   2249   2255   4162     1   107.9700462 569.024000
   2255   4162   4158     1   112.4800480 524.673600
   2258   4185   4181     1   112.4800480 524.673600
   2262   2263   2275     1   111.0400475 552.288000
   2262   2266   2278     1   111.0400475 552.288000
   2262   2269   2272     1   111.0400475 552.288000
   2263   2262   2266     1   112.3500484 533.878400
   2263   2262   2269     1   112.3500484 533.878400
   2263   2275   2287     1   111.5100476 526.347200
   2266   2262   2269     1   112.3500484 533.878400
   2266   2278   2284     1   111.5100476 526.347200
   2269   2272   2281     1   111.5100476 526.347200
   2272   2281   2290     1   107.9700462 569.024000
   2275   2287   4231     1   107.9700462 569.024000
   2278   2284   4208     1   107.9700462 569.024000
   2284   4208   4204     1   112.4800480 524.673600
   2287   4231   4227     1   112.4800480 524.673600
   2291   2292   2304     1   111.0400475 552.288000
   2291   2295   2307     1   111.0400475 552.288000
   2291   2298   2301     1   111.0400475 552.288000
   2292   2291   2295     1   112.3500484 533.878400
   2292   2291   2298     1   112.3500484 533.878400
   2292   2304   2316     1   111.5100476 526.347200
   2295   2291   2298     1   112.3500484 533.878400
   2295   2307   2313     1   111.5100476 526.347200
   2298   2301   2310     1   111.5100476 526.347200
   2301   2310   2319     1   107.9700462 569.024000
   2304   2316   4277     1   107.9700462 569.024000
   2307   2313   4254     1   107.9700462 569.024000
   2313   4254   4250     1   112.4800480 524.673600
   2316   4277   4273     1   112.4800480 524.673600
   2320   2321   2333     1   111.0400475 552.288000
   2320   2324   2336     1   111.0400475 552.288000
   2320   2327   2330     1   111.0400475 552.288000
   2321   2320   2324     1   112.3500484 533.878400
   2321   2320   2327     1   112.3500484 533.878400
   2321   2333   2345     1   111.5100476 526.347200
   2324   2320   2327     1   112.3500484 533.878400
   2324   2336   2342     1   111.5100476 526.347200
   2327   2330   2339     1   111.5100476 526.347200
   2330   2339   2348     1   107.9700462 569.024000
   2333   2345   4323     1   107.9700462 569.024000
   2336   2342   4300     1   107.9700462 569.024000
   2342   4300   4296     1   112.4800480 524.673600
   2345   4323   4319     1   112.4800480 524.673600
   2349   2350   2362     1   111.0400475 552.288000
   2349   2353   2365     1   111.0400475 552.288000
   2349   2356   2359     1   111.0400475 552.288000
   2350   2349   2353     1   112.3500484 533.878400
   2350   2349   2356     1   112.3500484 533.878400
   2350   2362   2374     1   111.5100476 526.347200
   2353   2349   2356     1   112.3500484 533.878400
   2353   2365   2371     1   111.5100476 526.347200
   2356   2359   2368     1   111.5100476 526.347200
   2359   2368   2377     1   107.9700462 569.024000
   2362   2374   4369     1   107.9700462 569.024000
   2365   2371   4346     1   107.9700462 569.024000
   2371   4346   4342     1   112.4800480 524.673600
   2374   4369   4365     1   112.4800480 524.673600
   2378   2379   2391     1   111.0400475 552.288000
   2378   2382   2394     1   111.0400475 552.288000
   2378   2385   2388     1   111.0400475 552.288000
   2379   2378   2382     1   112.3500484 533.878400
   2379   2378   2385     1   112.3500484 533.878400
   2379   2391   2403     1   111.5100476 526.347200
   2382   2378   2385     1   112.3500484 533.878400
   2382   2394   2400     1   111.5100476 526.347200
   2385   2388   2397     1   111.5100476 526.347200
   2388   2397   2406     1   107.9700462 569.024000
   2391   2403   4415     1   107.9700462 569.024000
   2394   2400   4392     1   107.9700462 569.024000
   2400   4392   4388     1   112.4800480 524.673600
   2403   4415   4411     1   112.4800480 524.673600
   2407   2408   2420     1   111.0400475 552.288000
   2407   2411   2423     1   111.0400475 552.288000
   2407   2414   2417     1   111.0400475 552.288000
   2408   2407   2411     1   112.3500484 533.878400
   2408   2407   2414     1   112.3500484 533.878400
   2408   2420   2432     1   111.5100476 526.347200
   2411   2407   2414     1   112.3500484 533.878400
   2411   2423   2429     1   111.5100476 526.347200
   2414   2417   2426     1   111.5100476 526.347200
   2417   2426   2435     1   107.9700462 569.024000
   2420   2432   4461     1   107.9700462 569.024000
   2423   2429   4438     1   107.9700462 569.024000
   2429   4438   4434     1   112.4800480 524.673600
   2432   4461   4457     1   112.4800480 524.673600
   2436   2437   2449     1   111.0400475 552.288000
   2436   2440   2452     1   111.0400475 552.288000
   2436   2443   2446     1   111.0400475 552.288000
   2437   2436   2440     1   112.3500484 533.878400
   2437   2436   2443     1   112.3500484 533.878400
   2437   2449   2461     1   111.5100476 526.347200
   2440   2436   2443     1   112.3500484 533.878400
   2440   2452   2458     1   111.5100476 526.347200
   2443   2446   2455     1   111.5100476 526.347200
   2446   2455   2464     1   107.9700462 569.024000
   2449   2461   4507     1   107.9700462 569.024000
   2452   2458   4484     1   107.9700462 569.024000
   2458   4484   4480     1   112.4800480 524.673600
   2461   4507   4503     1   112.4800480 524.673600
   2465   2466   2478     1   111.0400475 552.288000
   2465   2469   2481     1   111.0400475 552.288000
   2465   2472   2475     1   111.0400475 552.288000
   2466   2465   2469     1   112.3500484 533.878400
   2466   2465   2472     1   112.3500484 533.878400
   2466   2478   2490     1   111.5100476 526.347200
   2469   2465   2472     1   112.3500484 533.878400
   2469   2481   2487     1   111.5100476 526.347200
   2472   2475   2484     1   111.5100476 526.347200
   2475   2484   2493     1   107.9700462 569.024000
   2478   2490   4553     1   107.9700462 569.024000
   2481   2487   4530     1   107.9700462 569.024000
   2487   4530   4526     1   112.4800480 524.673600
   2490   4553   4549     1   112.4800480 524.673600
   2494   2495   2507     1   111.0400475 552.288000
   2494   2498   2510     1   111.0400475 552.288000
   2494   2501   2504     1   111.0400475 552.288000
   2495   2494   2498     1   112.3500484 533.878400
   2495   2494   2501     1   112.3500484 533.878400
   2495   2507   2519     1   111.5100476 526.347200
   2498   2494   2501     1   112.3500484 533.878400
   2498   2510   2516     1   111.5100476 526.347200
   2501   2504   2513     1   111.5100476 526.347200
   2504   2513   2522     1   107.9700462 569.024000
   2507   2519   4599     1   107.9700462 569.024000
   2510   2516   4576     1   107.9700462 569.024000
   2516   4576   4572     1   112.4800480 524.673600
   2519   4599   4595     1   112.4800480 524.673600
   2523   2524   2536     1   111.0400475 552.288000
   2523   2527   2539     1   111.0400475 552.288000
   2523   2530   2533     1   111.0400475 552.288000
   2524   2523   2527     1   112.3500484 533.878400
   2524   2523   2530     1   112.3500484 533.878400
   2524   2536   2548     1   111.5100476 526.347200
   2527   2523   2530     1   112.3500484 533.878400
   2527   2539   2545     1   111.5100476 526.347200
   2530   2533   2542     1   111.5100476 526.347200
   2533   2542   2551     1   107.9700462 569.024000
   2536   2548   4645     1   107.9700462 569.024000
   2539   2545   4622     1   107.9700462 569.024000
   2545   4622   4618     1   112.4800480 524.673600
   2548   4645   4641     1   112.4800480 524.673600
   2552   2553   2565     1   111.0400475 552.288000
   2552   2556   2568     1   111.0400475 552.288000
   2552   2559   2562     1   111.0400475 552.288000
   2553   2552   2556     1   112.3500484 533.878400
   2553   2552   2559     1   112.3500484 533.878400
   2553   2565   2577     1   111.5100476 526.347200
   2556   2552   2559     1   112.3500484 533.878400
   2556   2568   2574     1   111.5100476 526.347200
   2559   2562   2571     1   111.5100476 526.347200
   2562   2571   2580     1   107.9700462 569.024000
   2565   2577   4691     1   107.9700462 569.024000
   2568   2574   4668     1   107.9700462 569.024000
   2574   4668   4664     1   112.4800480 524.673600
   2577   4691   4687     1   112.4800480 524.673600
   2581   2582   2594     1   111.0400475 552.288000
   2581   2585   2597     1   111.0400475 552.288000
   2581   2588   2591     1   111.0400475 552.288000
   2582   2581   2585     1   112.3500484 533.878400
   2582   2581   2588     1   112.3500484 533.878400
   2582   2594   2606     1   111.5100476 526.347200
   2585   2581   2588     1   112.3500484 533.878400
   2585   2597   2603     1   111.5100476 526.347200
   2588   2591   2600     1   111.5100476 526.347200
   2591   2600   2609     1   107.9700462 569.024000
   2594   2606   4737     1   107.9700462 569.024000
   2597   2603   4714     1   107.9700462 569.024000
   2603   4714   4710     1   112.4800480 524.673600
   2606   4737   4733     1   112.4800480 524.673600
   2610   2611   2623     1   111.0400475 552.288000
   2610   2614   2626     1   111.0400475 552.288000
   2610   2617   2620     1   111.0400475 552.288000
   2611   2610   2614     1   112.3500484 533.878400
   2611   2610   2617     1   112.3500484 533.878400
   2611   2623   2635     1   111.5100476 526.347200
   2614   2610   2617     1   112.3500484 533.878400
   2614   2626   2632     1   111.5100476 526.347200
   2617   2620   2629     1   111.5100476 526.347200
   2620   2629   2638     1   107.9700462 569.024000
   2623   2635   4783     1   107.9700462 569.024000
   2626   2632   4760     1   107.9700462 569.024000
   2632   4760   4756     1   112.4800480 524.673600
   2635   4783   4779     1   112.4800480 524.673600
   2639   2640   2652     1   111.0400475 552.288000
   2639   2643   2655     1   111.0400475 552.288000
   2639   2646   2649     1   111.0400475 552.288000
   2640   2639   2643     1   112.3500484 533.878400
   2640   2639   2646     1   112.3500484 533.878400
   2640   2652   2664     1   111.5100476 526.347200
   2643   2639   2646     1   112.3500484 533.878400
   2643   2655   2661     1   111.5100476 526.347200
   2646   2649   2658     1   111.5100476 526.347200
   2649   2658   2667     1   107.9700462 569.024000
   2652   2664   4829     1   107.9700462 569.024000
   2655   2661   4806     1   107.9700462 569.024000
   2661   4806   4802     1   112.4800480 524.673600
   2664   4829   4825     1   112.4800480 524.673600
   2668   2669   2681     1   111.0400475 552.288000
   2668   2672   2684     1   111.0400475 552.288000
   2668   2675   2678     1   111.0400475 552.288000
   2669   2668   2672     1   112.3500484 533.878400
   2669   2668   2675     1   112.3500484 533.878400
   2669   2681   2693     1   111.5100476 526.347200
   2672   2668   2675     1   112.3500484 533.878400
   2672   2684   2690     1   111.5100476 526.347200
   2675   2678   2687     1   111.5100476 526.347200
   2678   2687   2696     1   107.9700462 569.024000
   2681   2693   4875     1   107.9700462 569.024000
   2684   2690   4852     1   107.9700462 569.024000
   2690   4852   4848     1   112.4800480 524.673600
   2693   4875   4871     1   112.4800480 524.673600
   2697   2698   2710     1   111.0400475 552.288000
   2697   2701   2713     1   111.0400475 552.288000
   2697   2704   2707     1   111.0400475 552.288000
   2698   2697   2701     1   112.3500484 533.878400
   2698   2697   2704     1   112.3500484 533.878400
   2698   2710   2722     1   111.5100476 526.347200
   2701   2697   2704     1   112.3500484 533.878400
   2701   2713   2719     1   111.5100476 526.347200
   2704   2707   2716     1   111.5100476 526.347200
   2707   2716   2725     1   107.9700462 569.024000
   2710   2722   4921     1   107.9700462 569.024000
   2713   2719   4898     1   107.9700462 569.024000
   2719   4898   4894     1   112.4800480 524.673600
   2722   4921   4917     1   112.4800480 524.673600
   2726   2727   2730     1   111.5100476 526.347200
   2726   2727   2739     1   110.1900474 564.840000
   2726   2740   2746     1   110.1900474 564.840000
   2726   2748   2732     1   112.4800480 524.673600
   2727   2726   2740     1   111.5100476 526.347200
   2727   2726   2748     1   107.9700462 569.024000
   2727   2730   2731     1   111.5100476 526.347200
   2727   2730   2738     1   110.1900474 564.840000
   2730   2727   2739     1   110.1900474 564.840000
   2730   2731   2732     1   111.5100476 526.347200
   2730   2731   2737     1   110.1900474 564.840000
   2731   2730   2738     1   110.1900474 564.840000
   2731   2732   2736     1   107.9700462 569.024000
   2731   2732   2748     1   107.9700462 569.024000
   2732   2731   2737     1   110.1900474 564.840000
   2736   2732   2748     1   108.2900466 608.353600
   2740   2726   2748     1   107.9700462 569.024000
   2749   2750   2753     1   111.5100476 526.347200
   2749   2750   2762     1   110.1900474 564.840000
   2749   2763   2769     1   110.1900474 564.840000
   2749   2771   2755     1   112.4800480 524.673600
   2750   2753   2754     1   111.5100476 526.347200
   2750   2753   2761     1   110.1900474 564.840000
   2750   2749   2763     1   111.5100476 526.347200
   2750   2749   2771     1   107.9700462 569.024000
   2753   2754   2755     1   111.5100476 526.347200
   2753   2754   2760     1   110.1900474 564.840000
   2753   2750   2762     1   110.1900474 564.840000
   2754   2755   2759     1   107.9700462 569.024000
   2754   2755   2771     1   107.9700462 569.024000
   2754   2753   2761     1   110.1900474 564.840000
   2755   2754   2760     1   110.1900474 564.840000
   2759   2755   2771     1   108.2900466 608.353600
   2763   2749   2771     1   107.9700462 569.024000
   2772   2773   2776     1   111.5100476 526.347200
   2772   2773   2785     1   110.1900474 564.840000
   2772   2786   2792     1   110.1900474 564.840000
   2772   2794   2778     1   112.4800480 524.673600
   2773   2772   2786     1   111.5100476 526.347200
   2773   2772   2794     1   107.9700462 569.024000
   2773   2776   2777     1   111.5100476 526.347200
   2773   2776   2784     1   110.1900474 564.840000
   2776   2773   2785     1   110.1900474 564.840000
   2776   2777   2778     1   111.5100476 526.347200
   2776   2777   2783     1   110.1900474 564.840000
   2777   2776   2784     1   110.1900474 564.840000
   2777   2778   2782     1   107.9700462 569.024000
   2777   2778   2794     1   107.9700462 569.024000
   2778   2777   2783     1   110.1900474 564.840000
   2782   2778   2794     1   108.2900466 608.353600
   2786   2772   2794     1   107.9700462 569.024000
   2795   2796   2799     1   111.5100476 526.347200
   2795   2796   2808     1   110.1900474 564.840000
   2795   2809   2815     1   110.1900474 564.840000
   2795   2817   2801     1   112.4800480 524.673600
   2796   2799   2800     1   111.5100476 526.347200
   2796   2799   2807     1   110.1900474 564.840000
   2796   2795   2809     1   111.5100476 526.347200
   2796   2795   2817     1   107.9700462 569.024000
   2799   2800   2801     1   111.5100476 526.347200
   2799   2800   2806     1   110.1900474 564.840000
   2799   2796   2808     1   110.1900474 564.840000
   2800   2801   2805     1   107.9700462 569.024000
   2800   2801   2817     1   107.9700462 569.024000
   2800   2799   2807     1   110.1900474 564.840000
   2801   2800   2806     1   110.1900474 564.840000
   2805   2801   2817     1   108.2900466 608.353600
   2809   2795   2817     1   107.9700462 569.024000
   2818   2819   2822     1   111.5100476 526.347200
   2818   2819   2831     1   110.1900474 564.840000
   2818   2832   2838     1   110.1900474 564.840000
   2818   2840   2824     1   112.4800480 524.673600
   2819   2818   2832     1   111.5100476 526.347200
   2819   2818   2840     1   107.9700462 569.024000
   2819   2822   2823     1   111.5100476 526.347200
   2819   2822   2830     1   110.1900474 564.840000
   2822   2819   2831     1   110.1900474 564.840000
   2822   2823   2824     1   111.5100476 526.347200
   2822   2823   2829     1   110.1900474 564.840000
   2823   2822   2830     1   110.1900474 564.840000
   2823   2824   2828     1   107.9700462 569.024000
   2823   2824   2840     1   107.9700462 569.024000
   2824   2823   2829     1   110.1900474 564.840000
   2828   2824   2840     1   108.2900466 608.353600
   2832   2818   2840     1   107.9700462 569.024000
   2841   2842   2845     1   111.5100476 526.347200
   2841   2842   2854     1   110.1900474 564.840000
   2841   2855   2861     1   110.1900474 564.840000
   2841   2863   2847     1   112.4800480 524.673600
   2842   2845   2846     1   111.5100476 526.347200
   2842   2845   2853     1   110.1900474 564.840000
   2842   2841   2855     1   111.5100476 526.347200
   2842   2841   2863     1   107.9700462 569.024000
   2845   2846   2847     1   111.5100476 526.347200
   2845   2846   2852     1   110.1900474 564.840000
   2845   2842   2854     1   110.1900474 564.840000
   2846   2847   2851     1   107.9700462 569.024000
   2846   2847   2863     1   107.9700462 569.024000
   2846   2845   2853     1   110.1900474 564.840000
   2847   2846   2852     1   110.1900474 564.840000
   2851   2847   2863     1   108.2900466 608.353600
   2855   2841   2863     1   107.9700462 569.024000
   2864   2865   2868     1   111.5100476 526.347200
   2864   2865   2877     1   110.1900474 564.840000
   2864   2878   2884     1   110.1900474 564.840000
   2864   2886   2870     1   112.4800480 524.673600
   2865   2864   2878     1   111.5100476 526.347200
   2865   2864   2886     1   107.9700462 569.024000
   2865   2868   2869     1   111.5100476 526.347200
   2865   2868   2876     1   110.1900474 564.840000
   2868   2865   2877     1   110.1900474 564.840000
   2868   2869   2870     1   111.5100476 526.347200
   2868   2869   2875     1   110.1900474 564.840000
   2869   2868   2876     1   110.1900474 564.840000
   2869   2870   2874     1   107.9700462 569.024000
   2869   2870   2886     1   107.9700462 569.024000
   2870   2869   2875     1   110.1900474 564.840000
   2874   2870   2886     1   108.2900466 608.353600
   2878   2864   2886     1   107.9700462 569.024000
   2887   2888   2891     1   111.5100476 526.347200
   2887   2888   2900     1   110.1900474 564.840000
   2887   2901   2907     1   110.1900474 564.840000
   2887   2909   2893     1   112.4800480 524.673600
   2888   2891   2892     1   111.5100476 526.347200
   2888   2891   2899     1   110.1900474 564.840000
   2888   2887   2901     1   111.5100476 526.347200
   2888   2887   2909     1   107.9700462 569.024000
   2891   2892   2893     1   111.5100476 526.347200
   2891   2892   2898     1   110.1900474 564.840000
   2891   2888   2900     1   110.1900474 564.840000
   2892   2893   2897     1   107.9700462 569.024000
   2892   2893   2909     1   107.9700462 569.024000
   2892   2891   2899     1   110.1900474 564.840000
   2893   2892   2898     1   110.1900474 564.840000
   2897   2893   2909     1   108.2900466 608.353600
   2901   2887   2909     1   107.9700462 569.024000
   2910   2911   2914     1   111.5100476 526.347200
   2910   2911   2923     1   110.1900474 564.840000
   2910   2924   2930     1   110.1900474 564.840000
   2910   2932   2916     1   112.4800480 524.673600
   2911   2910   2924     1   111.5100476 526.347200
   2911   2910   2932     1   107.9700462 569.024000
   2911   2914   2915     1   111.5100476 526.347200
   2911   2914   2922     1   110.1900474 564.840000
   2914   2911   2923     1   110.1900474 564.840000
   2914   2915   2916     1   111.5100476 526.347200
   2914   2915   2921     1   110.1900474 564.840000
   2915   2914   2922     1   110.1900474 564.840000
   2915   2916   2920     1   107.9700462 569.024000
   2915   2916   2932     1   107.9700462 569.024000
   2916   2915   2921     1   110.1900474 564.840000
   2920   2916   2932     1   108.2900466 608.353600
   2924   2910   2932     1   107.9700462 569.024000
   2933   2934   2937     1   111.5100476 526.347200
   2933   2934   2946     1   110.1900474 564.840000
   2933   2947   2953     1   110.1900474 564.840000
   2933   2955   2939     1   112.4800480 524.673600
   2934   2937   2938     1   111.5100476 526.347200
   2934   2937   2945     1   110.1900474 564.840000
   2934   2933   2947     1   111.5100476 526.347200
   2934   2933   2955     1   107.9700462 569.024000
   2937   2938   2939     1   111.5100476 526.347200
   2937   2938   2944     1   110.1900474 564.840000
   2937   2934   2946     1   110.1900474 564.840000
   2938   2939   2943     1   107.9700462 569.024000
   2938   2939   2955     1   107.9700462 569.024000
   2938   2937   2945     1   110.1900474 564.840000
   2939   2938   2944     1   110.1900474 564.840000
   2943   2939   2955     1   108.2900466 608.353600
   2947   2933   2955     1   107.9700462 569.024000
   2956   2957   2960     1   111.5100476 526.347200
   2956   2957   2969     1   110.1900474 564.840000
   2956   2970   2976     1   110.1900474 564.840000
   2956   2978   2962     1   112.4800480 524.673600
   2957   2956   2970     1   111.5100476 526.347200
   2957   2956   2978     1   107.9700462 569.024000
   2957   2960   2961     1   111.5100476 526.347200
   2957   2960   2968     1   110.1900474 564.840000
   2960   2957   2969     1   110.1900474 564.840000
   2960   2961   2962     1   111.5100476 526.347200
   2960   2961   2967     1   110.1900474 564.840000
   2961   2960   2968     1   110.1900474 564.840000
   2961   2962   2966     1   107.9700462 569.024000
   2961   2962   2978     1   107.9700462 569.024000
   2962   2961   2967     1   110.1900474 564.840000
   2966   2962   2978     1   108.2900466 608.353600
   2970   2956   2978     1   107.9700462 569.024000
   2979   2980   2983     1   111.5100476 526.347200
   2979   2980   2992     1   110.1900474 564.840000
   2979   2993   2999     1   110.1900474 564.840000
   2979   3001   2985     1   112.4800480 524.673600
   2980   2983   2984     1   111.5100476 526.347200
   2980   2983   2991     1   110.1900474 564.840000
   2980   2979   2993     1   111.5100476 526.347200
   2980   2979   3001     1   107.9700462 569.024000
   2983   2984   2985     1   111.5100476 526.347200
   2983   2984   2990     1   110.1900474 564.840000
   2983   2980   2992     1   110.1900474 564.840000
   2984   2985   2989     1   107.9700462 569.024000
   2984   2985   3001     1   107.9700462 569.024000
   2984   2983   2991     1   110.1900474 564.840000
   2985   2984   2990     1   110.1900474 564.840000
   2989   2985   3001     1   108.2900466 608.353600
   2993   2979   3001     1   107.9700462 569.024000
   3002   3003   3006     1   111.5100476 526.347200
   3002   3003   3015     1   110.1900474 564.840000
   3002   3016   3022     1   110.1900474 564.840000
   3002   3024   3008     1   112.4800480 524.673600
   3003   3002   3016     1   111.5100476 526.347200
   3003   3002   3024     1   107.9700462 569.024000
   3003   3006   3007     1   111.5100476 526.347200
   3003   3006   3014     1   110.1900474 564.840000
   3006   3003   3015     1   110.1900474 564.840000
   3006   3007   3008     1   111.5100476 526.347200
   3006   3007   3013     1   110.1900474 564.840000
   3007   3006   3014     1   110.1900474 564.840000
   3007   3008   3012     1   107.9700462 569.024000
   3007   3008   3024     1   107.9700462 569.024000
   3008   3007   3013     1   110.1900474 564.840000
   3012   3008   3024     1   108.2900466 608.353600
   3016   3002   3024     1   107.9700462 569.024000
   3025   3026   3029     1   111.5100476 526.347200
   3025   3026   3038     1   110.1900474 564.840000
   3025   3039   3045     1   110.1900474 564.840000
   3025   3047   3031     1   112.4800480 524.673600
   3026   3029   3030     1   111.5100476 526.347200
   3026   3029   3037     1   110.1900474 564.840000
   3026   3025   3039     1   111.5100476 526.347200
   3026   3025   3047     1   107.9700462 569.024000
   3029   3030   3031     1   111.5100476 526.347200
   3029   3030   3036     1   110.1900474 564.840000
   3029   3026   3038     1   110.1900474 564.840000
   3030   3031   3035     1   107.9700462 569.024000
   3030   3031   3047     1   107.9700462 569.024000
   3030   3029   3037     1   110.1900474 564.840000
   3031   3030   3036     1   110.1900474 564.840000
   3035   3031   3047     1   108.2900466 608.353600
   3039   3025   3047     1   107.9700462 569.024000
   3048   3049   3052     1   111.5100476 526.347200
   3048   3049   3061     1   110.1900474 564.840000
   3048   3062   3068     1   110.1900474 564.840000
   3048   3070   3054     1   112.4800480 524.673600
   3049   3048   3062     1   111.5100476 526.347200
   3049   3048   3070     1   107.9700462 569.024000
   3049   3052   3053     1   111.5100476 526.347200
   3049   3052   3060     1   110.1900474 564.840000
   3052   3049   3061     1   110.1900474 564.840000
   3052   3053   3054     1   111.5100476 526.347200
   3052   3053   3059     1   110.1900474 564.840000
   3053   3052   3060     1   110.1900474 564.840000
   3053   3054   3058     1   107.9700462 569.024000
   3053   3054   3070     1   107.9700462 569.024000
   3054   3053   3059     1   110.1900474 564.840000
   3058   3054   3070     1   108.2900466 608.353600
   3062   3048   3070     1   107.9700462 569.024000
   3071   3072   3075     1   111.5100476 526.347200
   3071   3072   3084     1   110.1900474 564.840000
   3071   3085   3091     1   110.1900474 564.840000
   3071   3093   3077     1   112.4800480 524.673600
   3072   3075   3076     1   111.5100476 526.347200
   3072   3075   3083     1   110.1900474 564.840000
   3072   3071   3085     1   111.5100476 526.347200
   3072   3071   3093     1   107.9700462 569.024000
   3075   3076   3077     1   111.5100476 526.347200
   3075   3076   3082     1   110.1900474 564.840000
   3075   3072   3084     1   110.1900474 564.840000
   3076   3077   3081     1   107.9700462 569.024000
   3076   3077   3093     1   107.9700462 569.024000
   3076   3075   3083     1   110.1900474 564.840000
   3077   3076   3082     1   110.1900474 564.840000
   3081   3077   3093     1   108.2900466 608.353600
   3085   3071   3093     1   107.9700462 569.024000
   3094   3095   3098     1   111.5100476 526.347200
   3094   3095   3107     1   110.1900474 564.840000
   3094   3108   3114     1   110.1900474 564.840000
   3094   3116   3100     1   112.4800480 524.673600
   3095   3094   3108     1   111.5100476 526.347200
   3095   3094   3116     1   107.9700462 569.024000
   3095   3098   3099     1   111.5100476 526.347200
   3095   3098   3106     1   110.1900474 564.840000
   3098   3095   3107     1   110.1900474 564.840000
   3098   3099   3100     1   111.5100476 526.347200
   3098   3099   3105     1   110.1900474 564.840000
   3099   3098   3106     1   110.1900474 564.840000
   3099   3100   3104     1   107.9700462 569.024000
   3099   3100   3116     1   107.9700462 569.024000
   3100   3099   3105     1   110.1900474 564.840000
   3104   3100   3116     1   108.2900466 608.353600
   3108   3094   3116     1   107.9700462 569.024000
   3117   3118   3121     1   111.5100476 526.347200
   3117   3118   3130     1   110.1900474 564.840000
   3117   3131   3137     1   110.1900474 564.840000
   3117   3139   3123     1   112.4800480 524.673600
   3118   3121   3122     1   111.5100476 526.347200
   3118   3121   3129     1   110.1900474 564.840000
   3118   3117   3131     1   111.5100476 526.347200
   3118   3117   3139     1   107.9700462 569.024000
   3121   3122   3123     1   111.5100476 526.347200
   3121   3122   3128     1   110.1900474 564.840000
   3121   3118   3130     1   110.1900474 564.840000
   3122   3123   3127     1   107.9700462 569.024000
   3122   3123   3139     1   107.9700462 569.024000
   3122   3121   3129     1   110.1900474 564.840000
   3123   3122   3128     1   110.1900474 564.840000
   3127   3123   3139     1   108.2900466 608.353600
   3131   3117   3139     1   107.9700462 569.024000
   3140   3141   3144     1   111.5100476 526.347200
   3140   3141   3153     1   110.1900474 564.840000
   3140   3154   3160     1   110.1900474 564.840000
   3140   3162   3146     1   112.4800480 524.673600
   3141   3140   3154     1   111.5100476 526.347200
   3141   3140   3162     1   107.9700462 569.024000
   3141   3144   3145     1   111.5100476 526.347200
   3141   3144   3152     1   110.1900474 564.840000
   3144   3141   3153     1   110.1900474 564.840000
   3144   3145   3146     1   111.5100476 526.347200
   3144   3145   3151     1   110.1900474 564.840000
   3145   3144   3152     1   110.1900474 564.840000
   3145   3146   3150     1   107.9700462 569.024000
   3145   3146   3162     1   107.9700462 569.024000
   3146   3145   3151     1   110.1900474 564.840000
   3150   3146   3162     1   108.2900466 608.353600
   3154   3140   3162     1   107.9700462 569.024000
   3163   3164   3167     1   111.5100476 526.347200
   3163   3164   3176     1   110.1900474 564.840000
   3163   3177   3183     1   110.1900474 564.840000
   3163   3185   3169     1   112.4800480 524.673600
   3164   3167   3168     1   111.5100476 526.347200
   3164   3167   3175     1   110.1900474 564.840000
   3164   3163   3177     1   111.5100476 526.347200
   3164   3163   3185     1   107.9700462 569.024000
   3167   3168   3169     1   111.5100476 526.347200
   3167   3168   3174     1   110.1900474 564.840000
   3167   3164   3176     1   110.1900474 564.840000
   3168   3169   3173     1   107.9700462 569.024000
   3168   3169   3185     1   107.9700462 569.024000
   3168   3167   3175     1   110.1900474 564.840000
   3169   3168   3174     1   110.1900474 564.840000
   3173   3169   3185     1   108.2900466 608.353600
   3177   3163   3185     1   107.9700462 569.024000
   3186   3187   3190     1   111.5100476 526.347200
   3186   3187   3199     1   110.1900474 564.840000
   3186   3200   3206     1   110.1900474 564.840000
   3186   3208   3192     1   112.4800480 524.673600
   3187   3186   3200     1   111.5100476 526.347200
   3187   3186   3208     1   107.9700462 569.024000
   3187   3190   3191     1   111.5100476 526.347200
   3187   3190   3198     1   110.1900474 564.840000
   3190   3187   3199     1   110.1900474 564.840000
   3190   3191   3192     1   111.5100476 526.347200
   3190   3191   3197     1   110.1900474 564.840000
   3191   3190   3198     1   110.1900474 564.840000
   3191   3192   3196     1   107.9700462 569.024000
   3191   3192   3208     1   107.9700462 569.024000
   3192   3191   3197     1   110.1900474 564.840000
   3196   3192   3208     1   108.2900466 608.353600
   3200   3186   3208     1   107.9700462 569.024000
   3209   3210   3213     1   111.5100476 526.347200
   3209   3210   3222     1   110.1900474 564.840000
   3209   3223   3229     1   110.1900474 564.840000
   3209   3231   3215     1   112.4800480 524.673600
   3210   3213   3214     1   111.5100476 526.347200
   3210   3213   3221     1   110.1900474 564.840000
   3210   3209   3223     1   111.5100476 526.347200
   3210   3209   3231     1   107.9700462 569.024000
   3213   3214   3215     1   111.5100476 526.347200
   3213   3214   3220     1   110.1900474 564.840000
   3213   3210   3222     1   110.1900474 564.840000
   3214   3215   3219     1   107.9700462 569.024000
   3214   3215   3231     1   107.9700462 569.024000
   3214   3213   3221     1   110.1900474 564.840000
   3215   3214   3220     1   110.1900474 564.840000
   3219   3215   3231     1   108.2900466 608.353600
   3223   3209   3231     1   107.9700462 569.024000
   3232   3233   3236     1   111.5100476 526.347200
   3232   3233   3245     1   110.1900474 564.840000
   3232   3246   3252     1   110.1900474 564.840000
   3232   3254   3238     1   112.4800480 524.673600
   3233   3232   3246     1   111.5100476 526.347200
   3233   3232   3254     1   107.9700462 569.024000
   3233   3236   3237     1   111.5100476 526.347200
   3233   3236   3244     1   110.1900474 564.840000
   3236   3233   3245     1   110.1900474 564.840000
   3236   3237   3238     1   111.5100476 526.347200
   3236   3237   3243     1   110.1900474 564.840000
   3237   3236   3244     1   110.1900474 564.840000
   3237   3238   3242     1   107.9700462 569.024000
   3237   3238   3254     1   107.9700462 569.024000
   3238   3237   3243     1   110.1900474 564.840000
   3242   3238   3254     1   108.2900466 608.353600
   3246   3232   3254     1   107.9700462 569.024000
   3255   3256   3259     1   111.5100476 526.347200
   3255   3256   3268     1   110.1900474 564.840000
   3255   3269   3275     1   110.1900474 564.840000
   3255   3277   3261     1   112.4800480 524.673600
   3256   3259   3260     1   111.5100476 526.347200
   3256   3259   3267     1   110.1900474 564.840000
   3256   3255   3269     1   111.5100476 526.347200
   3256   3255   3277     1   107.9700462 569.024000
   3259   3260   3261     1   111.5100476 526.347200
   3259   3260   3266     1   110.1900474 564.840000
   3259   3256   3268     1   110.1900474 564.840000
   3260   3261   3265     1   107.9700462 569.024000
   3260   3261   3277     1   107.9700462 569.024000
   3260   3259   3267     1   110.1900474 564.840000
   3261   3260   3266     1   110.1900474 564.840000
   3265   3261   3277     1   108.2900466 608.353600
   3269   3255   3277     1   107.9700462 569.024000
   3278   3279   3282     1   111.5100476 526.347200
   3278   3279   3291     1   110.1900474 564.840000
   3278   3292   3298     1   110.1900474 564.840000
   3278   3300   3284     1   112.4800480 524.673600
   3279   3278   3292     1   111.5100476 526.347200
   3279   3278   3300     1   107.9700462 569.024000
   3279   3282   3283     1   111.5100476 526.347200
   3279   3282   3290     1   110.1900474 564.840000
   3282   3279   3291     1   110.1900474 564.840000
   3282   3283   3284     1   111.5100476 526.347200
   3282   3283   3289     1   110.1900474 564.840000
   3283   3282   3290     1   110.1900474 564.840000
   3283   3284   3288     1   107.9700462 569.024000
   3283   3284   3300     1   107.9700462 569.024000
   3284   3283   3289     1   110.1900474 564.840000
   3288   3284   3300     1   108.2900466 608.353600
   3292   3278   3300     1   107.9700462 569.024000
   3301   3302   3305     1   111.5100476 526.347200
   3301   3302   3314     1   110.1900474 564.840000
   3301   3315   3321     1   110.1900474 564.840000
   3301   3323   3307     1   112.4800480 524.673600
   3302   3305   3306     1   111.5100476 526.347200
   3302   3305   3313     1   110.1900474 564.840000
   3302   3301   3315     1   111.5100476 526.347200
   3302   3301   3323     1   107.9700462 569.024000
   3305   3306   3307     1   111.5100476 526.347200
   3305   3306   3312     1   110.1900474 564.840000
   3305   3302   3314     1   110.1900474 564.840000
   3306   3307   3311     1   107.9700462 569.024000
   3306   3307   3323     1   107.9700462 569.024000
   3306   3305   3313     1   110.1900474 564.840000
   3307   3306   3312     1   110.1900474 564.840000
   3311   3307   3323     1   108.2900466 608.353600
   3315   3301   3323     1   107.9700462 569.024000
   3324   3325   3328     1   111.5100476 526.347200
   3324   3325   3337     1   110.1900474 564.840000
   3324   3338   3344     1   110.1900474 564.840000
   3324   3346   3330     1   112.4800480 524.673600
   3325   3324   3338     1   111.5100476 526.347200
   3325   3324   3346     1   107.9700462 569.024000
   3325   3328   3329     1   111.5100476 526.347200
   3325   3328   3336     1   110.1900474 564.840000
   3328   3325   3337     1   110.1900474 564.840000
   3328   3329   3330     1   111.5100476 526.347200
   3328   3329   3335     1   110.1900474 564.840000
   3329   3328   3336     1   110.1900474 564.840000
   3329   3330   3334     1   107.9700462 569.024000
   3329   3330   3346     1   107.9700462 569.024000
   3330   3329   3335     1   110.1900474 564.840000
   3334   3330   3346     1   108.2900466 608.353600
   3338   3324   3346     1   107.9700462 569.024000
   3347   3348   3351     1   111.5100476 526.347200
   3347   3348   3360     1   110.1900474 564.840000
   3347   3361   3367     1   110.1900474 564.840000
   3347   3369   3353     1   112.4800480 524.673600
   3348   3351   3352     1   111.5100476 526.347200
   3348   3351   3359     1   110.1900474 564.840000
   3348   3347   3361     1   111.5100476 526.347200
   3348   3347   3369     1   107.9700462 569.024000
   3351   3352   3353     1   111.5100476 526.347200
   3351   3352   3358     1   110.1900474 564.840000
   3351   3348   3360     1   110.1900474 564.840000
   3352   3353   3357     1   107.9700462 569.024000
   3352   3353   3369     1   107.9700462 569.024000
   3352   3351   3359     1   110.1900474 564.840000
   3353   3352   3358     1   110.1900474 564.840000
   3357   3353   3369     1   108.2900466 608.353600
   3361   3347   3369     1   107.9700462 569.024000
   3370   3371   3374     1   111.5100476 526.347200
   3370   3371   3383     1   110.1900474 564.840000
   3370   3384   3390     1   110.1900474 564.840000
   3370   3392   3376     1   112.4800480 524.673600
   3371   3370   3384     1   111.5100476 526.347200
   3371   3370   3392     1   107.9700462 569.024000
   3371   3374   3375     1   111.5100476 526.347200
   3371   3374   3382     1   110.1900474 564.840000
   3374   3371   3383     1   110.1900474 564.840000
   3374   3375   3376     1   111.5100476 526.347200
   3374   3375   3381     1   110.1900474 564.840000
   3375   3374   3382     1   110.1900474 564.840000
   3375   3376   3380     1   107.9700462 569.024000
   3375   3376   3392     1   107.9700462 569.024000
   3376   3375   3381     1   110.1900474 564.840000
   3380   3376   3392     1   108.2900466 608.353600
   3384   3370   3392     1   107.9700462 569.024000
   3393   3394   3397     1   111.5100476 526.347200
   3393   3394   3406     1   110.1900474 564.840000
   3393   3407   3413     1   110.1900474 564.840000
   3393   3415   3399     1   112.4800480 524.673600
   3394   3397   3398     1   111.5100476 526.347200
   3394   3397   3405     1   110.1900474 564.840000
   3394   3393   3407     1   111.5100476 526.347200
   3394   3393   3415     1   107.9700462 569.024000
   3397   3398   3399     1   111.5100476 526.347200
   3397   3398   3404     1   110.1900474 564.840000
   3397   3394   3406     1   110.1900474 564.840000
   3398   3399   3403     1   107.9700462 569.024000
   3398   3399   3415     1   107.9700462 569.024000
   3398   3397   3405     1   110.1900474 564.840000
   3399   3398   3404     1   110.1900474 564.840000
   3403   3399   3415     1   108.2900466 608.353600
   3407   3393   3415     1   107.9700462 569.024000
   3416   3417   3420     1   111.5100476 526.347200
   3416   3417   3429     1   110.1900474 564.840000
   3416   3430   3436     1   110.1900474 564.840000
   3416   3438   3422     1   112.4800480 524.673600
   3417   3416   3430     1   111.5100476 526.347200
   3417   3416   3438     1   107.9700462 569.024000
   3417   3420   3421     1   111.5100476 526.347200
   3417   3420   3428     1   110.1900474 564.840000
   3420   3417   3429     1   110.1900474 564.840000
   3420   3421   3422     1   111.5100476 526.347200
   3420   3421   3427     1   110.1900474 564.840000
   3421   3420   3428     1   110.1900474 564.840000
   3421   3422   3426     1   107.9700462 569.024000
   3421   3422   3438     1   107.9700462 569.024000
   3422   3421   3427     1   110.1900474 564.840000
   3426   3422   3438     1   108.2900466 608.353600
   3430   3416   3438     1   107.9700462 569.024000
   3439   3440   3443     1   111.5100476 526.347200
   3439   3440   3452     1   110.1900474 564.840000
   3439   3453   3459     1   110.1900474 564.840000
   3439   3461   3445     1   112.4800480 524.673600
   3440   3443   3444     1   111.5100476 526.347200
   3440   3443   3451     1   110.1900474 564.840000
   3440   3439   3453     1   111.5100476 526.347200
   3440   3439   3461     1   107.9700462 569.024000
   3443   3444   3445     1   111.5100476 526.347200
   3443   3444   3450     1   110.1900474 564.840000
   3443   3440   3452     1   110.1900474 564.840000
   3444   3445   3449     1   107.9700462 569.024000
   3444   3445   3461     1   107.9700462 569.024000
   3444   3443   3451     1   110.1900474 564.840000
   3445   3444   3450     1   110.1900474 564.840000
   3449   3445   3461     1   108.2900466 608.353600
   3453   3439   3461     1   107.9700462 569.024000
   3462   3463   3466     1   111.5100476 526.347200
   3462   3463   3475     1   110.1900474 564.840000
   3462   3476   3482     1   110.1900474 564.840000
   3462   3484   3468     1   112.4800480 524.673600
   3463   3462   3476     1   111.5100476 526.347200
   3463   3462   3484     1   107.9700462 569.024000
   3463   3466   3467     1   111.5100476 526.347200
   3463   3466   3474     1   110.1900474 564.840000
   3466   3463   3475     1   110.1900474 564.840000
   3466   3467   3468     1   111.5100476 526.347200
   3466   3467   3473     1   110.1900474 564.840000
   3467   3466   3474     1   110.1900474 564.840000
   3467   3468   3472     1   107.9700462 569.024000
   3467   3468   3484     1   107.9700462 569.024000
   3468   3467   3473     1   110.1900474 564.840000
   3472   3468   3484     1   108.2900466 608.353600
   3476   3462   3484     1   107.9700462 569.024000
   3485   3486   3489     1   111.5100476 526.347200
   3485   3486   3498     1   110.1900474 564.840000
   3485   3499   3505     1   110.1900474 564.840000
   3485   3507   3491     1   112.4800480 524.673600
   3486   3489   3490     1   111.5100476 526.347200
   3486   3489   3497     1   110.1900474 564.840000
   3486   3485   3499     1   111.5100476 526.347200
   3486   3485   3507     1   107.9700462 569.024000
   3489   3490   3491     1   111.5100476 526.347200
   3489   3490   3496     1   110.1900474 564.840000
   3489   3486   3498     1   110.1900474 564.840000
   3490   3491   3495     1   107.9700462 569.024000
   3490   3491   3507     1   107.9700462 569.024000
   3490   3489   3497     1   110.1900474 564.840000
   3491   3490   3496     1   110.1900474 564.840000
   3495   3491   3507     1   108.2900466 608.353600
   3499   3485   3507     1   107.9700462 569.024000
   3508   3509   3512     1   111.5100476 526.347200
   3508   3509   3521     1   110.1900474 564.840000
   3508   3522   3528     1   110.1900474 564.840000
   3508   3530   3514     1   112.4800480 524.673600
   3509   3508   3522     1   111.5100476 526.347200
   3509   3508   3530     1   107.9700462 569.024000
   3509   3512   3513     1   111.5100476 526.347200
   3509   3512   3520     1   110.1900474 564.840000
   3512   3509   3521     1   110.1900474 564.840000
   3512   3513   3514     1   111.5100476 526.347200
   3512   3513   3519     1   110.1900474 564.840000
   3513   3512   3520     1   110.1900474 564.840000
   3513   3514   3518     1   107.9700462 569.024000
   3513   3514   3530     1   107.9700462 569.024000
   3514   3513   3519     1   110.1900474 564.840000
   3518   3514   3530     1   108.2900466 608.353600
   3522   3508   3530     1   107.9700462 569.024000
   3531   3532   3535     1   111.5100476 526.347200
   3531   3532   3544     1   110.1900474 564.840000
   3531   3545   3551     1   110.1900474 564.840000
   3531   3553   3537     1   112.4800480 524.673600
   3532   3535   3536     1   111.5100476 526.347200
   3532   3535   3543     1   110.1900474 564.840000
   3532   3531   3545     1   111.5100476 526.347200
   3532   3531   3553     1   107.9700462 569.024000
   3535   3536   3537     1   111.5100476 526.347200
   3535   3536   3542     1   110.1900474 564.840000
   3535   3532   3544     1   110.1900474 564.840000
   3536   3537   3541     1   107.9700462 569.024000
   3536   3537   3553     1   107.9700462 569.024000
   3536   3535   3543     1   110.1900474 564.840000
   3537   3536   3542     1   110.1900474 564.840000
   3541   3537   3553     1   108.2900466 608.353600
   3545   3531   3553     1   107.9700462 569.024000
   3554   3555   3558     1   111.5100476 526.347200
   3554   3555   3567     1   110.1900474 564.840000
   3554   3568   3574     1   110.1900474 564.840000
   3554   3576   3560     1   112.4800480 524.673600
   3555   3554   3568     1   111.5100476 526.347200
   3555   3554   3576     1   107.9700462 569.024000
   3555   3558   3559     1   111.5100476 526.347200
   3555   3558   3566     1   110.1900474 564.840000
   3558   3555   3567     1   110.1900474 564.840000
   3558   3559   3560     1   111.5100476 526.347200
   3558   3559   3565     1   110.1900474 564.840000
   3559   3558   3566     1   110.1900474 564.840000
   3559   3560   3564     1   107.9700462 569.024000
   3559   3560   3576     1   107.9700462 569.024000
   3560   3559   3565     1   110.1900474 564.840000
   3564   3560   3576     1   108.2900466 608.353600
   3568   3554   3576     1   107.9700462 569.024000
   3577   3578   3581     1   111.5100476 526.347200
   3577   3578   3590     1   110.1900474 564.840000
   3577   3591   3597     1   110.1900474 564.840000
   3577   3599   3583     1   112.4800480 524.673600
   3578   3581   3582     1   111.5100476 526.347200
   3578   3581   3589     1   110.1900474 564.840000
   3578   3577   3591     1   111.5100476 526.347200
   3578   3577   3599     1   107.9700462 569.024000
   3581   3582   3583     1   111.5100476 526.347200
   3581   3582   3588     1   110.1900474 564.840000
   3581   3578   3590     1   110.1900474 564.840000
   3582   3583   3587     1   107.9700462 569.024000
   3582   3583   3599     1   107.9700462 569.024000
   3582   3581   3589     1   110.1900474 564.840000
   3583   3582   3588     1   110.1900474 564.840000
   3587   3583   3599     1   108.2900466 608.353600
   3591   3577   3599     1   107.9700462 569.024000
   3600   3601   3604     1   111.5100476 526.347200
   3600   3601   3613     1   110.1900474 564.840000
   3600   3614   3620     1   110.1900474 564.840000
   3600   3622   3606     1   112.4800480 524.673600
   3601   3600   3614     1   111.5100476 526.347200
   3601   3600   3622     1   107.9700462 569.024000
   3601   3604   3605     1   111.5100476 526.347200
   3601   3604   3612     1   110.1900474 564.840000
   3604   3601   3613     1   110.1900474 564.840000
   3604   3605   3606     1   111.5100476 526.347200
   3604   3605   3611     1   110.1900474 564.840000
   3605   3604   3612     1   110.1900474 564.840000
   3605   3606   3610     1   107.9700462 569.024000
   3605   3606   3622     1   107.9700462 569.024000
   3606   3605   3611     1   110.1900474 564.840000
   3610   3606   3622     1   108.2900466 608.353600
   3614   3600   3622     1   107.9700462 569.024000
   3623   3624   3627     1   111.5100476 526.347200
   3623   3624   3636     1   110.1900474 564.840000
   3623   3637   3643     1   110.1900474 564.840000
   3623   3645   3629     1   112.4800480 524.673600
   3624   3627   3628     1   111.5100476 526.347200
   3624   3627   3635     1   110.1900474 564.840000
   3624   3623   3637     1   111.5100476 526.347200
   3624   3623   3645     1   107.9700462 569.024000
   3627   3628   3629     1   111.5100476 526.347200
   3627   3628   3634     1   110.1900474 564.840000
   3627   3624   3636     1   110.1900474 564.840000
   3628   3629   3633     1   107.9700462 569.024000
   3628   3629   3645     1   107.9700462 569.024000
   3628   3627   3635     1   110.1900474 564.840000
   3629   3628   3634     1   110.1900474 564.840000
   3633   3629   3645     1   108.2900466 608.353600
   3637   3623   3645     1   107.9700462 569.024000
   3646   3647   3650     1   111.5100476 526.347200
   3646   3647   3659     1   110.1900474 564.840000
   3646   3660   3666     1   110.1900474 564.840000
   3646   3668   3652     1   112.4800480 524.673600
   3647   3646   3660     1   111.5100476 526.347200
   3647   3646   3668     1   107.9700462 569.024000
   3647   3650   3651     1   111.5100476 526.347200
   3647   3650   3658     1   110.1900474 564.840000
   3650   3647   3659     1   110.1900474 564.840000
   3650   3651   3652     1   111.5100476 526.347200
   3650   3651   3657     1   110.1900474 564.840000
   3651   3650   3658     1   110.1900474 564.840000
   3651   3652   3656     1   107.9700462 569.024000
   3651   3652   3668     1   107.9700462 569.024000
   3652   3651   3657     1   110.1900474 564.840000
   3656   3652   3668     1   108.2900466 608.353600
   3660   3646   3668     1   107.9700462 569.024000
   3669   3670   3673     1   111.5100476 526.347200
   3669   3670   3682     1   110.1900474 564.840000
   3669   3683   3689     1   110.1900474 564.840000
   3669   3691   3675     1   112.4800480 524.673600
   3670   3673   3674     1   111.5100476 526.347200
   3670   3673   3681     1   110.1900474 564.840000
   3670   3669   3683     1   111.5100476 526.347200
   3670   3669   3691     1   107.9700462 569.024000
   3673   3674   3675     1   111.5100476 526.347200
   3673   3674   3680     1   110.1900474 564.840000
   3673   3670   3682     1   110.1900474 564.840000
   3674   3675   3679     1   107.9700462 569.024000
   3674   3675   3691     1   107.9700462 569.024000
   3674   3673   3681     1   110.1900474 564.840000
   3675   3674   3680     1   110.1900474 564.840000
   3679   3675   3691     1   108.2900466 608.353600
   3683   3669   3691     1   107.9700462 569.024000
   3692   3693   3696     1   111.5100476 526.347200
   3692   3693   3705     1   110.1900474 564.840000
   3692   3706   3712     1   110.1900474 564.840000
   3692   3714   3698     1   112.4800480 524.673600
   3693   3692   3706     1   111.5100476 526.347200
   3693   3692   3714     1   107.9700462 569.024000
   3693   3696   3697     1   111.5100476 526.347200
   3693   3696   3704     1   110.1900474 564.840000
   3696   3693   3705     1   110.1900474 564.840000
   3696   3697   3698     1   111.5100476 526.347200
   3696   3697   3703     1   110.1900474 564.840000
   3697   3696   3704     1   110.1900474 564.840000
   3697   3698   3702     1   107.9700462 569.024000
   3697   3698   3714     1   107.9700462 569.024000
   3698   3697   3703     1   110.1900474 564.840000
   3702   3698   3714     1   108.2900466 608.353600
   3706   3692   3714     1   107.9700462 569.024000
   3715   3716   3719     1   111.5100476 526.347200
   3715   3716   3728     1   110.1900474 564.840000
   3715   3729   3735     1   110.1900474 564.840000
   3715   3737   3721     1   112.4800480 524.673600
   3716   3719   3720     1   111.5100476 526.347200
   3716   3719   3727     1   110.1900474 564.840000
   3716   3715   3729     1   111.5100476 526.347200
   3716   3715   3737     1   107.9700462 569.024000
   3719   3720   3721     1   111.5100476 526.347200
   3719   3720   3726     1   110.1900474 564.840000
   3719   3716   3728     1   110.1900474 564.840000
   3720   3721   3725     1   107.9700462 569.024000
   3720   3721   3737     1   107.9700462 569.024000
   3720   3719   3727     1   110.1900474 564.840000
   3721   3720   3726     1   110.1900474 564.840000
   3725   3721   3737     1   108.2900466 608.353600
   3729   3715   3737     1   107.9700462 569.024000
   3738   3739   3742     1   111.5100476 526.347200
   3738   3739   3751     1   110.1900474 564.840000
   3738   3752   3758     1   110.1900474 564.840000
   3738   3760   3744     1   112.4800480 524.673600
   3739   3738   3752     1   111.5100476 526.347200
   3739   3738   3760     1   107.9700462 569.024000
   3739   3742   3743     1   111.5100476 526.347200
   3739   3742   3750     1   110.1900474 564.840000
   3742   3739   3751     1   110.1900474 564.840000
   3742   3743   3744     1   111.5100476 526.347200
   3742   3743   3749     1   110.1900474 564.840000
   3743   3742   3750     1   110.1900474 564.840000
   3743   3744   3748     1   107.9700462 569.024000
   3743   3744   3760     1   107.9700462 569.024000
   3744   3743   3749     1   110.1900474 564.840000
   3748   3744   3760     1   108.2900466 608.353600
   3752   3738   3760     1   107.9700462 569.024000
   3761   3762   3765     1   111.5100476 526.347200
   3761   3762   3774     1   110.1900474 564.840000
   3761   3775   3781     1   110.1900474 564.840000
   3761   3783   3767     1   112.4800480 524.673600
   3762   3765   3766     1   111.5100476 526.347200
   3762   3765   3773     1   110.1900474 564.840000
   3762   3761   3775     1   111.5100476 526.347200
   3762   3761   3783     1   107.9700462 569.024000
   3765   3766   3767     1   111.5100476 526.347200
   3765   3766   3772     1   110.1900474 564.840000
   3765   3762   3774     1   110.1900474 564.840000
   3766   3767   3771     1   107.9700462 569.024000
   3766   3767   3783     1   107.9700462 569.024000
   3766   3765   3773     1   110.1900474 564.840000
   3767   3766   3772     1   110.1900474 564.840000
   3771   3767   3783     1   108.2900466 608.353600
   3775   3761   3783     1   107.9700462 569.024000
   3784   3785   3788     1   111.5100476 526.347200
   3784   3785   3797     1   110.1900474 564.840000
   3784   3798   3804     1   110.1900474 564.840000
   3784   3806   3790     1   112.4800480 524.673600
   3785   3784   3798     1   111.5100476 526.347200
   3785   3784   3806     1   107.9700462 569.024000
   3785   3788   3789     1   111.5100476 526.347200
   3785   3788   3796     1   110.1900474 564.840000
   3788   3785   3797     1   110.1900474 564.840000
   3788   3789   3790     1   111.5100476 526.347200
   3788   3789   3795     1   110.1900474 564.840000
   3789   3788   3796     1   110.1900474 564.840000
   3789   3790   3794     1   107.9700462 569.024000
   3789   3790   3806     1   107.9700462 569.024000
   3790   3789   3795     1   110.1900474 564.840000
   3794   3790   3806     1   108.2900466 608.353600
   3798   3784   3806     1   107.9700462 569.024000
   3807   3808   3811     1   111.5100476 526.347200
   3807   3808   3820     1   110.1900474 564.840000
   3807   3821   3827     1   110.1900474 564.840000
   3807   3829   3813     1   112.4800480 524.673600
   3808   3811   3812     1   111.5100476 526.347200
   3808   3811   3819     1   110.1900474 564.840000
   3808   3807   3821     1   111.5100476 526.347200
   3808   3807   3829     1   107.9700462 569.024000
   3811   3812   3813     1   111.5100476 526.347200
   3811   3812   3818     1   110.1900474 564.840000
   3811   3808   3820     1   110.1900474 564.840000
   3812   3813   3817     1   107.9700462 569.024000
   3812   3813   3829     1   107.9700462 569.024000
   3812   3811   3819     1   110.1900474 564.840000
   3813   3812   3818     1   110.1900474 564.840000
   3817   3813   3829     1   108.2900466 608.353600
   3821   3807   3829     1   107.9700462 569.024000
   3830   3831   3834     1   111.5100476 526.347200
   3830   3831   3843     1   110.1900474 564.840000
   3830   3844   3850     1   110.1900474 564.840000
   3830   3852   3836     1   112.4800480 524.673600
   3831   3830   3844     1   111.5100476 526.347200
   3831   3830   3852     1   107.9700462 569.024000
   3831   3834   3835     1   111.5100476 526.347200
   3831   3834   3842     1   110.1900474 564.840000
   3834   3831   3843     1   110.1900474 564.840000
   3834   3835   3836     1   111.5100476 526.347200
   3834   3835   3841     1   110.1900474 564.840000
   3835   3834   3842     1   110.1900474 564.840000
   3835   3836   3840     1   107.9700462 569.024000
   3835   3836   3852     1   107.9700462 569.024000
   3836   3835   3841     1   110.1900474 564.840000
   3840   3836   3852     1   108.2900466 608.353600
   3844   3830   3852     1   107.9700462 569.024000
   3853   3854   3857     1   111.5100476 526.347200
   3853   3854   3866     1   110.1900474 564.840000
   3853   3867   3873     1   110.1900474 564.840000
   3853   3875   3859     1   112.4800480 524.673600
   3854   3857   3858     1   111.5100476 526.347200
   3854   3857   3865     1   110.1900474 564.840000
   3854   3853   3867     1   111.5100476 526.347200
   3854   3853   3875     1   107.9700462 569.024000
   3857   3858   3859     1   111.5100476 526.347200
   3857   3858   3864     1   110.1900474 564.840000
   3857   3854   3866     1   110.1900474 564.840000
   3858   3859   3863     1   107.9700462 569.024000
   3858   3859   3875     1   107.9700462 569.024000
   3858   3857   3865     1   110.1900474 564.840000
   3859   3858   3864     1   110.1900474 564.840000
   3863   3859   3875     1   108.2900466 608.353600
   3867   3853   3875     1   107.9700462 569.024000
   3876   3877   3880     1   111.5100476 526.347200
   3876   3877   3889     1   110.1900474 564.840000
   3876   3890   3896     1   110.1900474 564.840000
   3876   3898   3882     1   112.4800480 524.673600
   3877   3876   3890     1   111.5100476 526.347200
   3877   3876   3898     1   107.9700462 569.024000
   3877   3880   3881     1   111.5100476 526.347200
   3877   3880   3888     1   110.1900474 564.840000
   3880   3877   3889     1   110.1900474 564.840000
   3880   3881   3882     1   111.5100476 526.347200
   3880   3881   3887     1   110.1900474 564.840000
   3881   3880   3888     1   110.1900474 564.840000
   3881   3882   3886     1   107.9700462 569.024000
   3881   3882   3898     1   107.9700462 569.024000
   3882   3881   3887     1   110.1900474 564.840000
   3886   3882   3898     1   108.2900466 608.353600
   3890   3876   3898     1   107.9700462 569.024000
   3899   3900   3903     1   111.5100476 526.347200
   3899   3900   3912     1   110.1900474 564.840000
   3899   3913   3919     1   110.1900474 564.840000
   3899   3921   3905     1   112.4800480 524.673600
   3900   3903   3904     1   111.5100476 526.347200
   3900   3903   3911     1   110.1900474 564.840000
   3900   3899   3913     1   111.5100476 526.347200
   3900   3899   3921     1   107.9700462 569.024000
   3903   3904   3905     1   111.5100476 526.347200
   3903   3904   3910     1   110.1900474 564.840000
   3903   3900   3912     1   110.1900474 564.840000
   3904   3905   3909     1   107.9700462 569.024000
   3904   3905   3921     1   107.9700462 569.024000
   3904   3903   3911     1   110.1900474 564.840000
   3905   3904   3910     1   110.1900474 564.840000
   3909   3905   3921     1   108.2900466 608.353600
   3913   3899   3921     1   107.9700462 569.024000
   3922   3923   3926     1   111.5100476 526.347200
   3922   3923   3935     1   110.1900474 564.840000
   3922   3936   3942     1   110.1900474 564.840000
   3922   3944   3928     1   112.4800480 524.673600
   3923   3922   3936     1   111.5100476 526.347200
   3923   3922   3944     1   107.9700462 569.024000
   3923   3926   3927     1   111.5100476 526.347200
   3923   3926   3934     1   110.1900474 564.840000
   3926   3923   3935     1   110.1900474 564.840000
   3926   3927   3928     1   111.5100476 526.347200
   3926   3927   3933     1   110.1900474 564.840000
   3927   3926   3934     1   110.1900474 564.840000
   3927   3928   3932     1   107.9700462 569.024000
   3927   3928   3944     1   107.9700462 569.024000
   3928   3927   3933     1   110.1900474 564.840000
   3932   3928   3944     1   108.2900466 608.353600
   3936   3922   3944     1   107.9700462 569.024000
   3945   3946   3949     1   111.5100476 526.347200
   3945   3946   3958     1   110.1900474 564.840000
   3945   3959   3965     1   110.1900474 564.840000
   3945   3967   3951     1   112.4800480 524.673600
   3946   3949   3950     1   111.5100476 526.347200
   3946   3949   3957     1   110.1900474 564.840000
   3946   3945   3959     1   111.5100476 526.347200
   3946   3945   3967     1   107.9700462 569.024000
   3949   3950   3951     1   111.5100476 526.347200
   3949   3950   3956     1   110.1900474 564.840000
   3949   3946   3958     1   110.1900474 564.840000
   3950   3951   3955     1   107.9700462 569.024000
   3950   3951   3967     1   107.9700462 569.024000
   3950   3949   3957     1   110.1900474 564.840000
   3951   3950   3956     1   110.1900474 564.840000
   3955   3951   3967     1   108.2900466 608.353600
   3959   3945   3967     1   107.9700462 569.024000
   3968   3969   3972     1   111.5100476 526.347200
   3968   3969   3981     1   110.1900474 564.840000
   3968   3982   3988     1   110.1900474 564.840000
   3968   3990   3974     1   112.4800480 524.673600
   3969   3968   3982     1   111.5100476 526.347200
   3969   3968   3990     1   107.9700462 569.024000
   3969   3972   3973     1   111.5100476 526.347200
   3969   3972   3980     1   110.1900474 564.840000
   3972   3969   3981     1   110.1900474 564.840000
   3972   3973   3974     1   111.5100476 526.347200
   3972   3973   3979     1   110.1900474 564.840000
   3973   3972   3980     1   110.1900474 564.840000
   3973   3974   3978     1   107.9700462 569.024000
   3973   3974   3990     1   107.9700462 569.024000
   3974   3973   3979     1   110.1900474 564.840000
   3978   3974   3990     1   108.2900466 608.353600
   3982   3968   3990     1   107.9700462 569.024000
   3991   3992   3995     1   111.5100476 526.347200
   3991   3992   4004     1   110.1900474 564.840000
   3991   4005   4011     1   110.1900474 564.840000
   3991   4013   3997     1   112.4800480 524.673600
   3992   3995   3996     1   111.5100476 526.347200
   3992   3995   4003     1   110.1900474 564.840000
   3992   3991   4005     1   111.5100476 526.347200
   3992   3991   4013     1   107.9700462 569.024000
   3995   3996   3997     1   111.5100476 526.347200
   3995   3996   4002     1   110.1900474 564.840000
   3995   3992   4004     1   110.1900474 564.840000
   3996   3997   4001     1   107.9700462 569.024000
   3996   3997   4013     1   107.9700462 569.024000
   3996   3995   4003     1   110.1900474 564.840000
   3997   3996   4002     1   110.1900474 564.840000
   4001   3997   4013     1   108.2900466 608.353600
   4005   3991   4013     1   107.9700462 569.024000
   4014   4015   4018     1   111.5100476 526.347200
   4014   4015   4027     1   110.1900474 564.840000
   4014   4028   4034     1   110.1900474 564.840000
   4014   4036   4020     1   112.4800480 524.673600
   4015   4014   4028     1   111.5100476 526.347200
   4015   4014   4036     1   107.9700462 569.024000
   4015   4018   4019     1   111.5100476 526.347200
   4015   4018   4026     1   110.1900474 564.840000
   4018   4015   4027     1   110.1900474 564.840000
   4018   4019   4020     1   111.5100476 526.347200
   4018   4019   4025     1   110.1900474 564.840000
   4019   4018   4026     1   110.1900474 564.840000
   4019   4020   4024     1   107.9700462 569.024000
   4019   4020   4036     1   107.9700462 569.024000
   4020   4019   4025     1   110.1900474 564.840000
   4024   4020   4036     1   108.2900466 608.353600
   4028   4014   4036     1   107.9700462 569.024000
   4037   4038   4041     1   111.5100476 526.347200
   4037   4038   4050     1   110.1900474 564.840000
   4037   4051   4057     1   110.1900474 564.840000
   4037   4059   4043     1   112.4800480 524.673600
   4038   4041   4042     1   111.5100476 526.347200
   4038   4041   4049     1   110.1900474 564.840000
   4038   4037   4051     1   111.5100476 526.347200
   4038   4037   4059     1   107.9700462 569.024000
   4041   4042   4043     1   111.5100476 526.347200
   4041   4042   4048     1   110.1900474 564.840000
   4041   4038   4050     1   110.1900474 564.840000
   4042   4043   4047     1   107.9700462 569.024000
   4042   4043   4059     1   107.9700462 569.024000
   4042   4041   4049     1   110.1900474 564.840000
   4043   4042   4048     1   110.1900474 564.840000
   4047   4043   4059     1   108.2900466 608.353600
   4051   4037   4059     1   107.9700462 569.024000
   4060   4061   4064     1   111.5100476 526.347200
   4060   4061   4073     1   110.1900474 564.840000
   4060   4074   4080     1   110.1900474 564.840000
   4060   4082   4066     1   112.4800480 524.673600
   4061   4060   4074     1   111.5100476 526.347200
   4061   4060   4082     1   107.9700462 569.024000
   4061   4064   4065     1   111.5100476 526.347200
   4061   4064   4072     1   110.1900474 564.840000
   4064   4061   4073     1   110.1900474 564.840000
   4064   4065   4066     1   111.5100476 526.347200
   4064   4065   4071     1   110.1900474 564.840000
   4065   4064   4072     1   110.1900474 564.840000
   4065   4066   4070     1   107.9700462 569.024000
   4065   4066   4082     1   107.9700462 569.024000
   4066   4065   4071     1   110.1900474 564.840000
   4070   4066   4082     1   108.2900466 608.353600
   4074   4060   4082     1   107.9700462 569.024000
   4083   4084   4087     1   111.5100476 526.347200
   4083   4084   4096     1   110.1900474 564.840000
   4083   4097   4103     1   110.1900474 564.840000
   4083   4105   4089     1   112.4800480 524.673600
   4084   4087   4088     1   111.5100476 526.347200
   4084   4087   4095     1   110.1900474 564.840000
   4084   4083   4097     1   111.5100476 526.347200
   4084   4083   4105     1   107.9700462 569.024000
   4087   4088   4089     1   111.5100476 526.347200
   4087   4088   4094     1   110.1900474 564.840000
   4087   4084   4096     1   110.1900474 564.840000
   4088   4089   4093     1   107.9700462 569.024000
   4088   4089   4105     1   107.9700462 569.024000
   4088   4087   4095     1   110.1900474 564.840000
   4089   4088   4094     1   110.1900474 564.840000
   4093   4089   4105     1   108.2900466 608.353600
   4097   4083   4105     1   107.9700462 569.024000
   4106   4107   4110     1   111.5100476 526.347200
   4106   4107   4119     1   110.1900474 564.840000
   4106   4120   4126     1   110.1900474 564.840000
   4106   4128   4112     1   112.4800480 524.673600
   4107   4106   4120     1   111.5100476 526.347200
   4107   4106   4128     1   107.9700462 569.024000
   4107   4110   4111     1   111.5100476 526.347200
   4107   4110   4118     1   110.1900474 564.840000
   4110   4107   4119     1   110.1900474 564.840000
   4110   4111   4112     1   111.5100476 526.347200
   4110   4111   4117     1   110.1900474 564.840000
   4111   4110   4118     1   110.1900474 564.840000
   4111   4112   4116     1   107.9700462 569.024000
   4111   4112   4128     1   107.9700462 569.024000
   4112   4111   4117     1   110.1900474 564.840000
   4116   4112   4128     1   108.2900466 608.353600
   4120   4106   4128     1   107.9700462 569.024000
   4129   4130   4133     1   111.5100476 526.347200
   4129   4130   4142     1   110.1900474 564.840000
   4129   4143   4149     1   110.1900474 564.840000
   4129   4151   4135     1   112.4800480 524.673600
   4130   4133   4134     1   111.5100476 526.347200
   4130   4133   4141     1   110.1900474 564.840000
   4130   4129   4143     1   111.5100476 526.347200
   4130   4129   4151     1   107.9700462 569.024000
   4133   4134   4135     1   111.5100476 526.347200
   4133   4134   4140     1   110.1900474 564.840000
   4133   4130   4142     1   110.1900474 564.840000
   4134   4135   4139     1   107.9700462 569.024000
   4134   4135   4151     1   107.9700462 569.024000
   4134   4133   4141     1   110.1900474 564.840000
   4135   4134   4140     1   110.1900474 564.840000
   4139   4135   4151     1   108.2900466 608.353600
   4143   4129   4151     1   107.9700462 569.024000
   4152   4153   4156     1   111.5100476 526.347200
   4152   4153   4165     1   110.1900474 564.840000
   4152   4166   4172     1   110.1900474 564.840000
   4152   4174   4158     1   112.4800480 524.673600
   4153   4152   4166     1   111.5100476 526.347200
   4153   4152   4174     1   107.9700462 569.024000
   4153   4156   4157     1   111.5100476 526.347200
   4153   4156   4164     1   110.1900474 564.840000
   4156   4153   4165     1   110.1900474 564.840000
   4156   4157   4158     1   111.5100476 526.347200
   4156   4157   4163     1   110.1900474 564.840000
   4157   4156   4164     1   110.1900474 564.840000
   4157   4158   4162     1   107.9700462 569.024000
   4157   4158   4174     1   107.9700462 569.024000
   4158   4157   4163     1   110.1900474 564.840000
   4162   4158   4174     1   108.2900466 608.353600
   4166   4152   4174     1   107.9700462 569.024000
   4175   4176   4179     1   111.5100476 526.347200
   4175   4176   4188     1   110.1900474 564.840000
   4175   4189   4195     1   110.1900474 564.840000
   4175   4197   4181     1   112.4800480 524.673600
   4176   4179   4180     1   111.5100476 526.347200
   4176   4179   4187     1   110.1900474 564.840000
   4176   4175   4189     1   111.5100476 526.347200
   4176   4175   4197     1   107.9700462 569.024000
   4179   4180   4181     1   111.5100476 526.347200
   4179   4180   4186     1   110.1900474 564.840000
   4179   4176   4188     1   110.1900474 564.840000
   4180   4181   4185     1   107.9700462 569.024000
   4180   4181   4197     1   107.9700462 569.024000
   4180   4179   4187     1   110.1900474 564.840000
   4181   4180   4186     1   110.1900474 564.840000
   4185   4181   4197     1   108.2900466 608.353600
   4189   4175   4197     1   107.9700462 569.024000
   4198   4199   4202     1   111.5100476 526.347200
   4198   4199   4211     1   110.1900474 564.840000
   4198   4212   4218     1   110.1900474 564.840000
   4198   4220   4204     1   112.4800480 524.673600
   4199   4198   4212     1   111.5100476 526.347200
   4199   4198   4220     1   107.9700462 569.024000
   4199   4202   4203     1   111.5100476 526.347200
   4199   4202   4210     1   110.1900474 564.840000
   4202   4199   4211     1   110.1900474 564.840000
   4202   4203   4204     1   111.5100476 526.347200
   4202   4203   4209     1   110.1900474 564.840000
   4203   4202   4210     1   110.1900474 564.840000
   4203   4204   4208     1   107.9700462 569.024000
   4203   4204   4220     1   107.9700462 569.024000
   4204   4203   4209     1   110.1900474 564.840000
   4208   4204   4220     1   108.2900466 608.353600
   4212   4198   4220     1   107.9700462 569.024000
   4221   4222   4225     1   111.5100476 526.347200
   4221   4222   4234     1   110.1900474 564.840000
   4221   4235   4241     1   110.1900474 564.840000
   4221   4243   4227     1   112.4800480 524.673600
   4222   4225   4226     1   111.5100476 526.347200
   4222   4225   4233     1   110.1900474 564.840000
   4222   4221   4235     1   111.5100476 526.347200
   4222   4221   4243     1   107.9700462 569.024000
   4225   4226   4227     1   111.5100476 526.347200
   4225   4226   4232     1   110.1900474 564.840000
   4225   4222   4234     1   110.1900474 564.840000
   4226   4227   4231     1   107.9700462 569.024000
   4226   4227   4243     1   107.9700462 569.024000
   4226   4225   4233     1   110.1900474 564.840000
   4227   4226   4232     1   110.1900474 564.840000
   4231   4227   4243     1   108.2900466 608.353600
   4235   4221   4243     1   107.9700462 569.024000
   4244   4245   4248     1   111.5100476 526.347200
   4244   4245   4257     1   110.1900474 564.840000
   4244   4258   4264     1   110.1900474 564.840000
   4244   4266   4250     1   112.4800480 524.673600
   4245   4244   4258     1   111.5100476 526.347200
   4245   4244   4266     1   107.9700462 569.024000
   4245   4248   4249     1   111.5100476 526.347200
   4245   4248   4256     1   110.1900474 564.840000
   4248   4245   4257     1   110.1900474 564.840000
   4248   4249   4250     1   111.5100476 526.347200
   4248   4249   4255     1   110.1900474 564.840000
   4249   4248   4256     1   110.1900474 564.840000
   4249   4250   4254     1   107.9700462 569.024000
   4249   4250   4266     1   107.9700462 569.024000
   4250   4249   4255     1   110.1900474 564.840000
   4254   4250   4266     1   108.2900466 608.353600
   4258   4244   4266     1   107.9700462 569.024000
   4267   4268   4271     1   111.5100476 526.347200
   4267   4268   4280     1   110.1900474 564.840000
   4267   4281   4287     1   110.1900474 564.840000
   4267   4289   4273     1   112.4800480 524.673600
   4268   4271   4272     1   111.5100476 526.347200
   4268   4271   4279     1   110.1900474 564.840000
   4268   4267   4281     1   111.5100476 526.347200
   4268   4267   4289     1   107.9700462 569.024000
   4271   4272   4273     1   111.5100476 526.347200
   4271   4272   4278     1   110.1900474 564.840000
   4271   4268   4280     1   110.1900474 564.840000
   4272   4273   4277     1   107.9700462 569.024000
   4272   4273   4289     1   107.9700462 569.024000
   4272   4271   4279     1   110.1900474 564.840000
   4273   4272   4278     1   110.1900474 564.840000
   4277   4273   4289     1   108.2900466 608.353600
   4281   4267   4289     1   107.9700462 569.024000
   4290   4291   4294     1   111.5100476 526.347200
   4290   4291   4303     1   110.1900474 564.840000
   4290   4304   4310     1   110.1900474 564.840000
   4290   4312   4296     1   112.4800480 524.673600
   4291   4290   4304     1   111.5100476 526.347200
   4291   4290   4312     1   107.9700462 569.024000
   4291   4294   4295     1   111.5100476 526.347200
   4291   4294   4302     1   110.1900474 564.840000
   4294   4291   4303     1   110.1900474 564.840000
   4294   4295   4296     1   111.5100476 526.347200
   4294   4295   4301     1   110.1900474 564.840000
   4295   4294   4302     1   110.1900474 564.840000
   4295   4296   4300     1   107.9700462 569.024000
   4295   4296   4312     1   107.9700462 569.024000
   4296   4295   4301     1   110.1900474 564.840000
   4300   4296   4312     1   108.2900466 608.353600
   4304   4290   4312     1   107.9700462 569.024000
   4313   4314   4317     1   111.5100476 526.347200
   4313   4314   4326     1   110.1900474 564.840000
   4313   4327   4333     1   110.1900474 564.840000
   4313   4335   4319     1   112.4800480 524.673600
   4314   4317   4318     1   111.5100476 526.347200
   4314   4317   4325     1   110.1900474 564.840000
   4314   4313   4327     1   111.5100476 526.347200
   4314   4313   4335     1   107.9700462 569.024000
   4317   4318   4319     1   111.5100476 526.347200
   4317   4318   4324     1   110.1900474 564.840000
   4317   4314   4326     1   110.1900474 564.840000
   4318   4319   4323     1   107.9700462 569.024000
   4318   4319   4335     1   107.9700462 569.024000
   4318   4317   4325     1   110.1900474 564.840000
   4319   4318   4324     1   110.1900474 564.840000
   4323   4319   4335     1   108.2900466 608.353600
   4327   4313   4335     1   107.9700462 569.024000
   4336   4337   4340     1   111.5100476 526.347200
   4336   4337   4349     1   110.1900474 564.840000
   4336   4350   4356     1   110.1900474 564.840000
   4336   4358   4342     1   112.4800480 524.673600
   4337   4336   4350     1   111.5100476 526.347200
   4337   4336   4358     1   107.9700462 569.024000
   4337   4340   4341     1   111.5100476 526.347200
   4337   4340   4348     1   110.1900474 564.840000
   4340   4337   4349     1   110.1900474 564.840000
   4340   4341   4342     1   111.5100476 526.347200
   4340   4341   4347     1   110.1900474 564.840000
   4341   4340   4348     1   110.1900474 564.840000
   4341   4342   4346     1   107.9700462 569.024000
   4341   4342   4358     1   107.9700462 569.024000
   4342   4341   4347     1   110.1900474 564.840000
   4346   4342   4358     1   108.2900466 608.353600
   4350   4336   4358     1   107.9700462 569.024000
   4359   4360   4363     1   111.5100476 526.347200
   4359   4360   4372     1   110.1900474 564.840000
   4359   4373   4379     1   110.1900474 564.840000
   4359   4381   4365     1   112.4800480 524.673600
   4360   4363   4364     1   111.5100476 526.347200
   4360   4363   4371     1   110.1900474 564.840000
   4360   4359   4373     1   111.5100476 526.347200
   4360   4359   4381     1   107.9700462 569.024000
   4363   4364   4365     1   111.5100476 526.347200
   4363   4364   4370     1   110.1900474 564.840000
   4363   4360   4372     1   110.1900474 564.840000
   4364   4365   4369     1   107.9700462 569.024000
   4364   4365   4381     1   107.9700462 569.024000
   4364   4363   4371     1   110.1900474 564.840000
   4365   4364   4370     1   110.1900474 564.840000
   4369   4365   4381     1   108.2900466 608.353600
   4373   4359   4381     1   107.9700462 569.024000
   4382   4383   4386     1   111.5100476 526.347200
   4382   4383   4395     1   110.1900474 564.840000
   4382   4396   4402     1   110.1900474 564.840000
   4382   4404   4388     1   112.4800480 524.673600
   4383   4382   4396     1   111.5100476 526.347200
   4383   4382   4404     1   107.9700462 569.024000
   4383   4386   4387     1   111.5100476 526.347200
   4383   4386   4394     1   110.1900474 564.840000
   4386   4383   4395     1   110.1900474 564.840000
   4386   4387   4388     1   111.5100476 526.347200
   4386   4387   4393     1   110.1900474 564.840000
   4387   4386   4394     1   110.1900474 564.840000
   4387   4388   4392     1   107.9700462 569.024000
   4387   4388   4404     1   107.9700462 569.024000
   4388   4387   4393     1   110.1900474 564.840000
   4392   4388   4404     1   108.2900466 608.353600
   4396   4382   4404     1   107.9700462 569.024000
   4405   4406   4409     1   111.5100476 526.347200
   4405   4406   4418     1   110.1900474 564.840000
   4405   4419   4425     1   110.1900474 564.840000
   4405   4427   4411     1   112.4800480 524.673600
   4406   4409   4410     1   111.5100476 526.347200
   4406   4409   4417     1   110.1900474 564.840000
   4406   4405   4419     1   111.5100476 526.347200
   4406   4405   4427     1   107.9700462 569.024000
   4409   4410   4411     1   111.5100476 526.347200
   4409   4410   4416     1   110.1900474 564.840000
   4409   4406   4418     1   110.1900474 564.840000
   4410   4411   4415     1   107.9700462 569.024000
   4410   4411   4427     1   107.9700462 569.024000
   4410   4409   4417     1   110.1900474 564.840000
   4411   4410   4416     1   110.1900474 564.840000
   4415   4411   4427     1   108.2900466 608.353600
   4419   4405   4427     1   107.9700462 569.024000
   4428   4429   4432     1   111.5100476 526.347200
   4428   4429   4441     1   110.1900474 564.840000
   4428   4442   4448     1   110.1900474 564.840000
   4428   4450   4434     1   112.4800480 524.673600
   4429   4428   4442     1   111.5100476 526.347200
   4429   4428   4450     1   107.9700462 569.024000
   4429   4432   4433     1   111.5100476 526.347200
   4429   4432   4440     1   110.1900474 564.840000
   4432   4429   4441     1   110.1900474 564.840000
   4432   4433   4434     1   111.5100476 526.347200
   4432   4433   4439     1   110.1900474 564.840000
   4433   4432   4440     1   110.1900474 564.840000
   4433   4434   4438     1   107.9700462 569.024000
   4433   4434   4450     1   107.9700462 569.024000
   4434   4433   4439     1   110.1900474 564.840000
   4438   4434   4450     1   108.2900466 608.353600
   4442   4428   4450     1   107.9700462 569.024000
   4451   4452   4455     1   111.5100476 526.347200
   4451   4452   4464     1   110.1900474 564.840000
   4451   4465   4471     1   110.1900474 564.840000
   4451   4473   4457     1   112.4800480 524.673600
   4452   4455   4456     1   111.5100476 526.347200
   4452   4455   4463     1   110.1900474 564.840000
   4452   4451   4465     1   111.5100476 526.347200
   4452   4451   4473     1   107.9700462 569.024000
   4455   4456   4457     1   111.5100476 526.347200
   4455   4456   4462     1   110.1900474 564.840000
   4455   4452   4464     1   110.1900474 564.840000
   4456   4457   4461     1   107.9700462 569.024000
   4456   4457   4473     1   107.9700462 569.024000
   4456   4455   4463     1   110.1900474 564.840000
   4457   4456   4462     1   110.1900474 564.840000
   4461   4457   4473     1   108.2900466 608.353600
   4465   4451   4473     1   107.9700462 569.024000
   4474   4475   4478     1   111.5100476 526.347200
   4474   4475   4487     1   110.1900474 564.840000
   4474   4488   4494     1   110.1900474 564.840000
   4474   4496   4480     1   112.4800480 524.673600
   4475   4474   4488     1   111.5100476 526.347200
   4475   4474   4496     1   107.9700462 569.024000
   4475   4478   4479     1   111.5100476 526.347200
   4475   4478   4486     1   110.1900474 564.840000
   4478   4475   4487     1   110.1900474 564.840000
   4478   4479   4480     1   111.5100476 526.347200
   4478   4479   4485     1   110.1900474 564.840000
   4479   4478   4486     1   110.1900474 564.840000
   4479   4480   4484     1   107.9700462 569.024000
   4479   4480   4496     1   107.9700462 569.024000
   4480   4479   4485     1   110.1900474 564.840000
   4484   4480   4496     1   108.2900466 608.353600
   4488   4474   4496     1   107.9700462 569.024000
   4497   4498   4501     1   111.5100476 526.347200
   4497   4498   4510     1   110.1900474 564.840000
   4497   4511   4517     1   110.1900474 564.840000
   4497   4519   4503     1   112.4800480 524.673600
   4498   4501   4502     1   111.5100476 526.347200
   4498   4501   4509     1   110.1900474 564.840000
   4498   4497   4511     1   111.5100476 526.347200
   4498   4497   4519     1   107.9700462 569.024000
   4501   4502   4503     1   111.5100476 526.347200
   4501   4502   4508     1   110.1900474 564.840000
   4501   4498   4510     1   110.1900474 564.840000
   4502   4503   4507     1   107.9700462 569.024000
   4502   4503   4519     1   107.9700462 569.024000
   4502   4501   4509     1   110.1900474 564.840000
   4503   4502   4508     1   110.1900474 564.840000
   4507   4503   4519     1   108.2900466 608.353600
   4511   4497   4519     1   107.9700462 569.024000
   4520   4521   4524     1   111.5100476 526.347200
   4520   4521   4533     1   110.1900474 564.840000
   4520   4534   4540     1   110.1900474 564.840000
   4520   4542   4526     1   112.4800480 524.673600
   4521   4520   4534     1   111.5100476 526.347200
   4521   4520   4542     1   107.9700462 569.024000
   4521   4524   4525     1   111.5100476 526.347200
   4521   4524   4532     1   110.1900474 564.840000
   4524   4521   4533     1   110.1900474 564.840000
   4524   4525   4526     1   111.5100476 526.347200
   4524   4525   4531     1   110.1900474 564.840000
   4525   4524   4532     1   110.1900474 564.840000
   4525   4526   4530     1   107.9700462 569.024000
   4525   4526   4542     1   107.9700462 569.024000
   4526   4525   4531     1   110.1900474 564.840000
   4530   4526   4542     1   108.2900466 608.353600
   4534   4520   4542     1   107.9700462 569.024000
   4543   4544   4547     1   111.5100476 526.347200
   4543   4544   4556     1   110.1900474 564.840000
   4543   4557   4563     1   110.1900474 564.840000
   4543   4565   4549     1   112.4800480 524.673600
   4544   4547   4548     1   111.5100476 526.347200
   4544   4547   4555     1   110.1900474 564.840000
   4544   4543   4557     1   111.5100476 526.347200
   4544   4543   4565     1   107.9700462 569.024000
   4547   4548   4549     1   111.5100476 526.347200
   4547   4548   4554     1   110.1900474 564.840000
   4547   4544   4556     1   110.1900474 564.840000
   4548   4549   4553     1   107.9700462 569.024000
   4548   4549   4565     1   107.9700462 569.024000
   4548   4547   4555     1   110.1900474 564.840000
   4549   4548   4554     1   110.1900474 564.840000
   4553   4549   4565     1   108.2900466 608.353600
   4557   4543   4565     1   107.9700462 569.024000
   4566   4567   4570     1   111.5100476 526.347200
   4566   4567   4579     1   110.1900474 564.840000
   4566   4580   4586     1   110.1900474 564.840000
   4566   4588   4572     1   112.4800480 524.673600
   4567   4566   4580     1   111.5100476 526.347200
   4567   4566   4588     1   107.9700462 569.024000
   4567   4570   4571     1   111.5100476 526.347200
   4567   4570   4578     1   110.1900474 564.840000
   4570   4567   4579     1   110.1900474 564.840000
   4570   4571   4572     1   111.5100476 526.347200
   4570   4571   4577     1   110.1900474 564.840000
   4571   4570   4578     1   110.1900474 564.840000
   4571   4572   4576     1   107.9700462 569.024000
   4571   4572   4588     1   107.9700462 569.024000
   4572   4571   4577     1   110.1900474 564.840000
   4576   4572   4588     1   108.2900466 608.353600
   4580   4566   4588     1   107.9700462 569.024000
   4589   4590   4593     1   111.5100476 526.347200
   4589   4590   4602     1   110.1900474 564.840000
   4589   4603   4609     1   110.1900474 564.840000
   4589   4611   4595     1   112.4800480 524.673600
   4590   4593   4594     1   111.5100476 526.347200
   4590   4593   4601     1   110.1900474 564.840000
   4590   4589   4603     1   111.5100476 526.347200
   4590   4589   4611     1   107.9700462 569.024000
   4593   4594   4595     1   111.5100476 526.347200
   4593   4594   4600     1   110.1900474 564.840000
   4593   4590   4602     1   110.1900474 564.840000
   4594   4595   4599     1   107.9700462 569.024000
   4594   4595   4611     1   107.9700462 569.024000
   4594   4593   4601     1   110.1900474 564.840000
   4595   4594   4600     1   110.1900474 564.840000
   4599   4595   4611     1   108.2900466 608.353600
   4603   4589   4611     1   107.9700462 569.024000
   4612   4613   4616     1   111.5100476 526.347200
   4612   4613   4625     1   110.1900474 564.840000
   4612   4626   4632     1   110.1900474 564.840000
   4612   4634   4618     1   112.4800480 524.673600
   4613   4612   4626     1   111.5100476 526.347200
   4613   4612   4634     1   107.9700462 569.024000
   4613   4616   4617     1   111.5100476 526.347200
   4613   4616   4624     1   110.1900474 564.840000
   4616   4613   4625     1   110.1900474 564.840000
   4616   4617   4618     1   111.5100476 526.347200
   4616   4617   4623     1   110.1900474 564.840000
   4617   4616   4624     1   110.1900474 564.840000
   4617   4618   4622     1   107.9700462 569.024000
   4617   4618   4634     1   107.9700462 569.024000
   4618   4617   4623     1   110.1900474 564.840000
   4622   4618   4634     1   108.2900466 608.353600
   4626   4612   4634     1   107.9700462 569.024000
   4635   4636   4639     1   111.5100476 526.347200
   4635   4636   4648     1   110.1900474 564.840000
   4635   4649   4655     1   110.1900474 564.840000
   4635   4657   4641     1   112.4800480 524.673600
   4636   4639   4640     1   111.5100476 526.347200
   4636   4639   4647     1   110.1900474 564.840000
   4636   4635   4649     1   111.5100476 526.347200
   4636   4635   4657     1   107.9700462 569.024000
   4639   4640   4641     1   111.5100476 526.347200
   4639   4640   4646     1   110.1900474 564.840000
   4639   4636   4648     1   110.1900474 564.840000
   4640   4641   4645     1   107.9700462 569.024000
   4640   4641   4657     1   107.9700462 569.024000
   4640   4639   4647     1   110.1900474 564.840000
   4641   4640   4646     1   110.1900474 564.840000
   4645   4641   4657     1   108.2900466 608.353600
   4649   4635   4657     1   107.9700462 569.024000
   4658   4659   4662     1   111.5100476 526.347200
   4658   4659   4671     1   110.1900474 564.840000
   4658   4672   4678     1   110.1900474 564.840000
   4658   4680   4664     1   112.4800480 524.673600
   4659   4658   4672     1   111.5100476 526.347200
   4659   4658   4680     1   107.9700462 569.024000
   4659   4662   4663     1   111.5100476 526.347200
   4659   4662   4670     1   110.1900474 564.840000
   4662   4659   4671     1   110.1900474 564.840000
   4662   4663   4664     1   111.5100476 526.347200
   4662   4663   4669     1   110.1900474 564.840000
   4663   4662   4670     1   110.1900474 564.840000
   4663   4664   4668     1   107.9700462 569.024000
   4663   4664   4680     1   107.9700462 569.024000
   4664   4663   4669     1   110.1900474 564.840000
   4668   4664   4680     1   108.2900466 608.353600
   4672   4658   4680     1   107.9700462 569.024000
   4681   4682   4685     1   111.5100476 526.347200
   4681   4682   4694     1   110.1900474 564.840000
   4681   4695   4701     1   110.1900474 564.840000
   4681   4703   4687     1   112.4800480 524.673600
   4682   4685   4686     1   111.5100476 526.347200
   4682   4685   4693     1   110.1900474 564.840000
   4682   4681   4695     1   111.5100476 526.347200
   4682   4681   4703     1   107.9700462 569.024000
   4685   4686   4687     1   111.5100476 526.347200
   4685   4686   4692     1   110.1900474 564.840000
   4685   4682   4694     1   110.1900474 564.840000
   4686   4687   4691     1   107.9700462 569.024000
   4686   4687   4703     1   107.9700462 569.024000
   4686   4685   4693     1   110.1900474 564.840000
   4687   4686   4692     1   110.1900474 564.840000
   4691   4687   4703     1   108.2900466 608.353600
   4695   4681   4703     1   107.9700462 569.024000
   4704   4705   4708     1   111.5100476 526.347200
   4704   4705   4717     1   110.1900474 564.840000
   4704   4718   4724     1   110.1900474 564.840000
   4704   4726   4710     1   112.4800480 524.673600
   4705   4704   4718     1   111.5100476 526.347200
   4705   4704   4726     1   107.9700462 569.024000
   4705   4708   4709     1   111.5100476 526.347200
   4705   4708   4716     1   110.1900474 564.840000
   4708   4705   4717     1   110.1900474 564.840000
   4708   4709   4710     1   111.5100476 526.347200
   4708   4709   4715     1   110.1900474 564.840000
   4709   4708   4716     1   110.1900474 564.840000
   4709   4710   4714     1   107.9700462 569.024000
   4709   4710   4726     1   107.9700462 569.024000
   4710   4709   4715     1   110.1900474 564.840000
   4714   4710   4726     1   108.2900466 608.353600
   4718   4704   4726     1   107.9700462 569.024000
   4727   4728   4731     1   111.5100476 526.347200
   4727   4728   4740     1   110.1900474 564.840000
   4727   4741   4747     1   110.1900474 564.840000
   4727   4749   4733     1   112.4800480 524.673600
   4728   4731   4732     1   111.5100476 526.347200
   4728   4731   4739     1   110.1900474 564.840000
   4728   4727   4741     1   111.5100476 526.347200
   4728   4727   4749     1   107.9700462 569.024000
   4731   4732   4733     1   111.5100476 526.347200
   4731   4732   4738     1   110.1900474 564.840000
   4731   4728   4740     1   110.1900474 564.840000
   4732   4733   4737     1   107.9700462 569.024000
   4732   4733   4749     1   107.9700462 569.024000
   4732   4731   4739     1   110.1900474 564.840000
   4733   4732   4738     1   110.1900474 564.840000
   4737   4733   4749     1   108.2900466 608.353600
   4741   4727   4749     1   107.9700462 569.024000
   4750   4751   4754     1   111.5100476 526.347200
   4750   4751   4763     1   110.1900474 564.840000
   4750   4764   4770     1   110.1900474 564.840000
   4750   4772   4756     1   112.4800480 524.673600
   4751   4750   4764     1   111.5100476 526.347200
   4751   4750   4772     1   107.9700462 569.024000
   4751   4754   4755     1   111.5100476 526.347200
   4751   4754   4762     1   110.1900474 564.840000
   4754   4751   4763     1   110.1900474 564.840000
   4754   4755   4756     1   111.5100476 526.347200
   4754   4755   4761     1   110.1900474 564.840000
   4755   4754   4762     1   110.1900474 564.840000
   4755   4756   4760     1   107.9700462 569.024000
   4755   4756   4772     1   107.9700462 569.024000
   4756   4755   4761     1   110.1900474 564.840000
   4760   4756   4772     1   108.2900466 608.353600
   4764   4750   4772     1   107.9700462 569.024000
   4773   4774   4777     1   111.5100476 526.347200
   4773   4774   4786     1   110.1900474 564.840000
   4773   4787   4793     1   110.1900474 564.840000
   4773   4795   4779     1   112.4800480 524.673600
   4774   4777   4778     1   111.5100476 526.347200
   4774   4777   4785     1   110.1900474 564.840000
   4774   4773   4787     1   111.5100476 526.347200
   4774   4773   4795     1   107.9700462 569.024000
   4777   4778   4779     1   111.5100476 526.347200
   4777   4778   4784     1   110.1900474 564.840000
   4777   4774   4786     1   110.1900474 564.840000
   4778   4779   4783     1   107.9700462 569.024000
   4778   4779   4795     1   107.9700462 569.024000
   4778   4777   4785     1   110.1900474 564.840000
   4779   4778   4784     1   110.1900474 564.840000
   4783   4779   4795     1   108.2900466 608.353600
   4787   4773   4795     1   107.9700462 569.024000
   4796   4797   4800     1   111.5100476 526.347200
   4796   4797   4809     1   110.1900474 564.840000
   4796   4810   4816     1   110.1900474 564.840000
   4796   4818   4802     1   112.4800480 524.673600
   4797   4796   4810     1   111.5100476 526.347200
   4797   4796   4818     1   107.9700462 569.024000
   4797   4800   4801     1   111.5100476 526.347200
   4797   4800   4808     1   110.1900474 564.840000
   4800   4797   4809     1   110.1900474 564.840000
   4800   4801   4802     1   111.5100476 526.347200
   4800   4801   4807     1   110.1900474 564.840000
   4801   4800   4808     1   110.1900474 564.840000
   4801   4802   4806     1   107.9700462 569.024000
   4801   4802   4818     1   107.9700462 569.024000
   4802   4801   4807     1   110.1900474 564.840000
   4806   4802   4818     1   108.2900466 608.353600
   4810   4796   4818     1   107.9700462 569.024000
   4819   4820   4823     1   111.5100476 526.347200
   4819   4820   4832     1   110.1900474 564.840000
   4819   4833   4839     1   110.1900474 564.840000
   4819   4841   4825     1   112.4800480 524.673600
   4820   4823   4824     1   111.5100476 526.347200
   4820   4823   4831     1   110.1900474 564.840000
   4820   4819   4833     1   111.5100476 526.347200
   4820   4819   4841     1   107.9700462 569.024000
   4823   4824   4825     1   111.5100476 526.347200
   4823   4824   4830     1   110.1900474 564.840000
   4823   4820   4832     1   110.1900474 564.840000
   4824   4825   4829     1   107.9700462 569.024000
   4824   4825   4841     1   107.9700462 569.024000
   4824   4823   4831     1   110.1900474 564.840000
   4825   4824   4830     1   110.1900474 564.840000
   4829   4825   4841     1   108.2900466 608.353600
   4833   4819   4841     1   107.9700462 569.024000
   4842   4843   4846     1   111.5100476 526.347200
   4842   4843   4855     1   110.1900474 564.840000
   4842   4856   4862     1   110.1900474 564.840000
   4842   4864   4848     1   112.4800480 524.673600
   4843   4842   4856     1   111.5100476 526.347200
   4843   4842   4864     1   107.9700462 569.024000
   4843   4846   4847     1   111.5100476 526.347200
   4843   4846   4854     1   110.1900474 564.840000
   4846   4843   4855     1   110.1900474 564.840000
   4846   4847   4848     1   111.5100476 526.347200
   4846   4847   4853     1   110.1900474 564.840000
   4847   4846   4854     1   110.1900474 564.840000
   4847   4848   4852     1   107.9700462 569.024000
   4847   4848   4864     1   107.9700462 569.024000
   4848   4847   4853     1   110.1900474 564.840000
   4852   4848   4864     1   108.2900466 608.353600
   4856   4842   4864     1   107.9700462 569.024000
   4865   4866   4869     1   111.5100476 526.347200
   4865   4866   4878     1   110.1900474 564.840000
   4865   4879   4885     1   110.1900474 564.840000
   4865   4887   4871     1   112.4800480 524.673600
   4866   4869   4870     1   111.5100476 526.347200
   4866   4869   4877     1   110.1900474 564.840000
   4866   4865   4879     1   111.5100476 526.347200
   4866   4865   4887     1   107.9700462 569.024000
   4869   4870   4871     1   111.5100476 526.347200
   4869   4870   4876     1   110.1900474 564.840000
   4869   4866   4878     1   110.1900474 564.840000
   4870   4871   4875     1   107.9700462 569.024000
   4870   4871   4887     1   107.9700462 569.024000
   4870   4869   4877     1   110.1900474 564.840000
   4871   4870   4876     1   110.1900474 564.840000
   4875   4871   4887     1   108.2900466 608.353600
   4879   4865   4887     1   107.9700462 569.024000
   4888   4889   4892     1   111.5100476 526.347200
   4888   4889   4901     1   110.1900474 564.840000
   4888   4902   4908     1   110.1900474 564.840000
   4888   4910   4894     1   112.4800480 524.673600
   4889   4888   4902     1   111.5100476 526.347200
   4889   4888   4910     1   107.9700462 569.024000
   4889   4892   4893     1   111.5100476 526.347200
   4889   4892   4900     1   110.1900474 564.840000
   4892   4889   4901     1   110.1900474 564.840000
   4892   4893   4894     1   111.5100476 526.347200
   4892   4893   4899     1   110.1900474 564.840000
   4893   4892   4900     1   110.1900474 564.840000
   4893   4894   4898     1   107.9700462 569.024000
   4893   4894   4910     1   107.9700462 569.024000
   4894   4893   4899     1   110.1900474 564.840000
   4898   4894   4910     1   108.2900466 608.353600
   4902   4888   4910     1   107.9700462 569.024000
   4911   4912   4915     1   111.5100476 526.347200
   4911   4912   4924     1   110.1900474 564.840000
   4911   4925   4931     1   110.1900474 564.840000
   4911   4933   4917     1   112.4800480 524.673600
   4912   4915   4916     1   111.5100476 526.347200
   4912   4915   4923     1   110.1900474 564.840000
   4912   4911   4925     1   111.5100476 526.347200
   4912   4911   4933     1   107.9700462 569.024000
   4915   4916   4917     1   111.5100476 526.347200
   4915   4916   4922     1   110.1900474 564.840000
   4915   4912   4924     1   110.1900474 564.840000
   4916   4917   4921     1   107.9700462 569.024000
   4916   4917   4933     1   107.9700462 569.024000
   4916   4915   4923     1   110.1900474 564.840000
   4917   4916   4922     1   110.1900474 564.840000
   4921   4917   4933     1   108.2900466 608.353600
   4925   4911   4933     1   107.9700462 569.024000
      1      2      3     1   109.8800469 414.216000
      1      2      4     1   109.8800469 414.216000
      1      5      6     1   109.8800469 414.216000
      1      5      7     1   109.8800469 414.216000
      1      8      9     1   109.8800469 414.216000
      1      8     10     1   109.8800469 414.216000
      2     14     15     1   109.8000471 387.438400
      2     14     16     1   109.8000471 387.438400
      3      2     14     1   109.5600471 388.275200
      3      2      4     1   108.4600466 328.025600
      4      2     14     1   109.5600471 388.275200
      5     17     18     1   109.8000471 387.438400
      5     17     19     1   109.8000471 387.438400
      6      5     17     1   109.5600471 388.275200
      6      5      7     1   108.4600466 328.025600
      7      5     17     1   109.5600471 388.275200
      8     11     12     1   109.8000471 387.438400
      8     11     13     1   109.8000471 387.438400
      9      8     11     1   109.5600471 388.275200
      9      8     10     1   108.4600466 328.025600
     10      8     11     1   109.5600471 388.275200
     11     23     24     1   109.5600471 388.275200
     11     23     25     1   109.5600471 388.275200
     12     11     23     1   109.8000471 387.438400
     12     11     13     1   107.5800459 329.699200
     13     11     23     1   109.8000471 387.438400
     14     26     27     1   109.5600471 388.275200
     14     26     28     1   109.5600471 388.275200
     15     14     26     1   109.8000471 387.438400
     15     14     16     1   107.5800459 329.699200
     16     14     26     1   109.8000471 387.438400
     17     20     21     1   109.5600471 388.275200
     17     20     22     1   109.5600471 388.275200
     18     17     20     1   109.8000471 387.438400
     18     17     19     1   107.5800459 329.699200
     19     17     20     1   109.8000471 387.438400
     21     20     57     1   109.7800468 425.094400
     21     20     22     1   108.4600466 328.025600
     22     20     57     1   109.7800468 425.094400
     24     23     86     1   109.7800468 425.094400
     24     23     25     1   108.4600466 328.025600
     25     23     86     1   109.7800468 425.094400
     27     26    115     1   109.7800468 425.094400
     27     26     28     1   108.4600466 328.025600
     28     26    115     1   109.7800468 425.094400
     29     30     31     1   109.8800469 414.216000
     29     30     32     1   109.8800469 414.216000
     29     33     34     1   109.8800469 414.216000
     29     33     35     1   109.8800469 414.216000
     29     36     37     1   109.8800469 414.216000
     29     36     38     1   109.8800469 414.216000
     30     42     43     1   109.8000471 387.438400
     30     42     44     1   109.8000471 387.438400
     31     30     42     1   109.5600471 388.275200
     31     30     32     1   108.4600466 328.025600
     32     30     42     1   109.5600471 388.275200
     33     45     46     1   109.8000471 387.438400
     33     45     47     1   109.8000471 387.438400
     34     33     45     1   109.5600471 388.275200
     34     33     35     1   108.4600466 328.025600
     35     33     45     1   109.5600471 388.275200
     36     39     40     1   109.8000471 387.438400
     36     39     41     1   109.8000471 387.438400
     37     36     39     1   109.5600471 388.275200
     37     36     38     1   108.4600466 328.025600
     38     36     39     1   109.5600471 388.275200
     39     48     49     1   109.5600471 388.275200
     39     48     50     1   109.5600471 388.275200
     40     39     48     1   109.8000471 387.438400
     40     39     41     1   107.5800459 329.699200
     41     39     48     1   109.8000471 387.438400
     42     54     55     1   109.5600471 388.275200
     42     54     56     1   109.5600471 388.275200
     43     42     54     1   109.8000471 387.438400
     43     42     44     1   107.5800459 329.699200
     44     42     54     1   109.8000471 387.438400
     45     51     52     1   109.5600471 388.275200
     45     51     53     1   109.5600471 388.275200
     46     45     51     1   109.8000471 387.438400
     46     45     47     1   107.5800459 329.699200
     47     45     51     1   109.8000471 387.438400
     49     48     57     1   109.7800468 425.094400
     49     48     50     1   108.4600466 328.025600
     50     48     57     1   109.7800468 425.094400
     52     51    144     1   109.7800468 425.094400
     52     51     53     1   108.4600466 328.025600
     53     51    144     1   109.7800468 425.094400
     55     54    173     1   109.7800468 425.094400
     55     54     56     1   108.4600466 328.025600
     56     54    173     1   109.7800468 425.094400
     58     59     60     1   109.8800469 414.216000
     58     59     61     1   109.8800469 414.216000
     58     62     63     1   109.8800469 414.216000
     58     62     64     1   109.8800469 414.216000
     58     65     66     1   109.8800469 414.216000
     58     65     67     1   109.8800469 414.216000
     59     71     72     1   109.8000471 387.438400
     59     71     73     1   109.8000471 387.438400
     60     59     71     1   109.5600471 388.275200
     60     59     61     1   108.4600466 328.025600
     61     59     71     1   109.5600471 388.275200
     62     74     75     1   109.8000471 387.438400
     62     74     76     1   109.8000471 387.438400
     63     62     74     1   109.5600471 388.275200
     63     62     64     1   108.4600466 328.025600
     64     62     74     1   109.5600471 388.275200
     65     68     69     1   109.8000471 387.438400
     65     68     70     1   109.8000471 387.438400
     66     65     68     1   109.5600471 388.275200
     66     65     67     1   108.4600466 328.025600
     67     65     68     1   109.5600471 388.275200
     68     77     78     1   109.5600471 388.275200
     68     77     79     1   109.5600471 388.275200
     69     68     77     1   109.8000471 387.438400
     69     68     70     1   107.5800459 329.699200
     70     68     77     1   109.8000471 387.438400
     71     83     84     1   109.5600471 388.275200
     71     83     85     1   109.5600471 388.275200
     72     71     83     1   109.8000471 387.438400
     72     71     73     1   107.5800459 329.699200
     73     71     83     1   109.8000471 387.438400
     74     80     81     1   109.5600471 388.275200
     74     80     82     1   109.5600471 388.275200
     75     74     80     1   109.8000471 387.438400
     75     74     76     1   107.5800459 329.699200
     76     74     80     1   109.8000471 387.438400
     78     77     86     1   109.7800468 425.094400
     78     77     79     1   108.4600466 328.025600
     79     77     86     1   109.7800468 425.094400
     81     80    202     1   109.7800468 425.094400
     81     80     82     1   108.4600466 328.025600
     82     80    202     1   109.7800468 425.094400
     84     83    231     1   109.7800468 425.094400
     84     83     85     1   108.4600466 328.025600
     85     83    231     1   109.7800468 425.094400
     87     88     89     1   109.8800469 414.216000
     87     88     90     1   109.8800469 414.216000
     87     91     92     1   109.8800469 414.216000
     87     91     93     1   109.8800469 414.216000
     87     94     95     1   109.8800469 414.216000
     87     94     96     1   109.8800469 414.216000
     88    100    101     1   109.8000471 387.438400
     88    100    102     1   109.8000471 387.438400
     89     88    100     1   109.5600471 388.275200
     89     88     90     1   108.4600466 328.025600
     90     88    100     1   109.5600471 388.275200
     91    103    104     1   109.8000471 387.438400
     91    103    105     1   109.8000471 387.438400
     92     91    103     1   109.5600471 388.275200
     92     91     93     1   108.4600466 328.025600
     93     91    103     1   109.5600471 388.275200
     94     97     98     1   109.8000471 387.438400
     94     97     99     1   109.8000471 387.438400
     95     94     97     1   109.5600471 388.275200
     95     94     96     1   108.4600466 328.025600
     96     94     97     1   109.5600471 388.275200
     97    106    107     1   109.5600471 388.275200
     97    106    108     1   109.5600471 388.275200
     98     97    106     1   109.8000471 387.438400
     98     97     99     1   107.5800459 329.699200
     99     97    106     1   109.8000471 387.438400
    100    112    113     1   109.5600471 388.275200
    100    112    114     1   109.5600471 388.275200
    101    100    112     1   109.8000471 387.438400
    101    100    102     1   107.5800459 329.699200
    102    100    112     1   109.8000471 387.438400
    103    109    110     1   109.5600471 388.275200
    103    109    111     1   109.5600471 388.275200
    104    103    109     1   109.8000471 387.438400
    104    103    105     1   107.5800459 329.699200
    105    103    109     1   109.8000471 387.438400
    107    106    115     1   109.7800468 425.094400
    107    106    108     1   108.4600466 328.025600
    108    106    115     1   109.7800468 425.094400
    110    109    260     1   109.7800468 425.094400
    110    109    111     1   108.4600466 328.025600
    111    109    260     1   109.7800468 425.094400
    113    112    289     1   109.7800468 425.094400
    113    112    114     1   108.4600466 328.025600
    114    112    289     1   109.7800468 425.094400
    116    117    118     1   109.8800469 414.216000
    116    117    119     1   109.8800469 414.216000
    116    120    121     1   109.8800469 414.216000
    116    120    122     1   109.8800469 414.216000
    116    123    124     1   109.8800469 414.216000
    116    123    125     1   109.8800469 414.216000
    117    129    130     1   109.8000471 387.438400
    117    129    131     1   109.8000471 387.438400
    118    117    129     1   109.5600471 388.275200
    118    117    119     1   108.4600466 328.025600
    119    117    129     1   109.5600471 388.275200
    120    132    133     1   109.8000471 387.438400
    120    132    134     1   109.8000471 387.438400
    121    120    132     1   109.5600471 388.275200
    121    120    122     1   108.4600466 328.025600
    122    120    132     1   109.5600471 388.275200
    123    126    127     1   109.8000471 387.438400
    123    126    128     1   109.8000471 387.438400
    124    123    126     1   109.5600471 388.275200
    124    123    125     1   108.4600466 328.025600
    125    123    126     1   109.5600471 388.275200
    126    135    136     1   109.5600471 388.275200
    126    135    137     1   109.5600471 388.275200
    127    126    135     1   109.8000471 387.438400
    127    126    128     1   107.5800459 329.699200
    128    126    135     1   109.8000471 387.438400
    129    141    142     1   109.5600471 388.275200
    129    141    143     1   109.5600471 388.275200
    130    129    141     1   109.8000471 387.438400
    130    129    131     1   107.5800459 329.699200
    131    129    141     1   109.8000471 387.438400
    132    138    139     1   109.5600471 388.275200
    132    138    140     1   109.5600471 388.275200
    133    132    138     1   109.8000471 387.438400
    133    132    134     1   107.5800459 329.699200
    134    132    138     1   109.8000471 387.438400
    136    135    144     1   109.7800468 425.094400
    136    135    137     1   108.4600466 328.025600
    137    135    144     1   109.7800468 425.094400
    139    138    318     1   109.7800468 425.094400
    139    138    140     1   108.4600466 328.025600
    140    138    318     1   109.7800468 425.094400
    142    141    347     1   109.7800468 425.094400
    142    141    143     1   108.4600466 328.025600
    143    141    347     1   109.7800468 425.094400
    145    146    147     1   109.8800469 414.216000
    145    146    148     1   109.8800469 414.216000
    145    149    150     1   109.8800469 414.216000
    145    149    151     1   109.8800469 414.216000
    145    152    153     1   109.8800469 414.216000
    145    152    154     1   109.8800469 414.216000
    146    158    159     1   109.8000471 387.438400
    146    158    160     1   109.8000471 387.438400
    147    146    158     1   109.5600471 388.275200
    147    146    148     1   108.4600466 328.025600
    148    146    158     1   109.5600471 388.275200
    149    161    162     1   109.8000471 387.438400
    149    161    163     1   109.8000471 387.438400
    150    149    161     1   109.5600471 388.275200
    150    149    151     1   108.4600466 328.025600
    151    149    161     1   109.5600471 388.275200
    152    155    156     1   109.8000471 387.438400
    152    155    157     1   109.8000471 387.438400
    153    152    155     1   109.5600471 388.275200
    153    152    154     1   108.4600466 328.025600
    154    152    155     1   109.5600471 388.275200
    155    164    165     1   109.5600471 388.275200
    155    164    166     1   109.5600471 388.275200
    156    155    164     1   109.8000471 387.438400
    156    155    157     1   107.5800459 329.699200
    157    155    164     1   109.8000471 387.438400
    158    170    171     1   109.5600471 388.275200
    158    170    172     1   109.5600471 388.275200
    159    158    170     1   109.8000471 387.438400
    159    158    160     1   107.5800459 329.699200
    160    158    170     1   109.8000471 387.438400
    161    167    168     1   109.5600471 388.275200
    161    167    169     1   109.5600471 388.275200
    162    161    167     1   109.8000471 387.438400
    162    161    163     1   107.5800459 329.699200
    163    161    167     1   109.8000471 387.438400
    165    164    173     1   109.7800468 425.094400
    165    164    166     1   108.4600466 328.025600
    166    164    173     1   109.7800468 425.094400
    168    167    376     1   109.7800468 425.094400
    168    167    169     1   108.4600466 328.025600
    169    167    376     1   109.7800468 425.094400
    171    170    405     1   109.7800468 425.094400
    171    170    172     1   108.4600466 328.025600
    172    170    405     1   109.7800468 425.094400
    174    175    176     1   109.8800469 414.216000
    174    175    177     1   109.8800469 414.216000
    174    178    179     1   109.8800469 414.216000
    174    178    180     1   109.8800469 414.216000
    174    181    182     1   109.8800469 414.216000
    174    181    183     1   109.8800469 414.216000
    175    187    188     1   109.8000471 387.438400
    175    187    189     1   109.8000471 387.438400
    176    175    187     1   109.5600471 388.275200
    176    175    177     1   108.4600466 328.025600
    177    175    187     1   109.5600471 388.275200
    178    190    191     1   109.8000471 387.438400
    178    190    192     1   109.8000471 387.438400
    179    178    190     1   109.5600471 388.275200
    179    178    180     1   108.4600466 328.025600
    180    178    190     1   109.5600471 388.275200
    181    184    185     1   109.8000471 387.438400
    181    184    186     1   109.8000471 387.438400
    182    181    184     1   109.5600471 388.275200
    182    181    183     1   108.4600466 328.025600
    183    181    184     1   109.5600471 388.275200
    184    193    194     1   109.5600471 388.275200
    184    193    195     1   109.5600471 388.275200
    185    184    193     1   109.8000471 387.438400
    185    184    186     1   107.5800459 329.699200
    186    184    193     1   109.8000471 387.438400
    187    199    200     1   109.5600471 388.275200
    187    199    201     1   109.5600471 388.275200
    188    187    199     1   109.8000471 387.438400
    188    187    189     1   107.5800459 329.699200
    189    187    199     1   109.8000471 387.438400
    190    196    197     1   109.5600471 388.275200
    190    196    198     1   109.5600471 388.275200
    191    190    196     1   109.8000471 387.438400
    191    190    192     1   107.5800459 329.699200
    192    190    196     1   109.8000471 387.438400
    194    193    202     1   109.7800468 425.094400
    194    193    195     1   108.4600466 328.025600
    195    193    202     1   109.7800468 425.094400
    197    196    434     1   109.7800468 425.094400
    197    196    198     1   108.4600466 328.025600
    198    196    434     1   109.7800468 425.094400
    200    199    463     1   109.7800468 425.094400
    200    199    201     1   108.4600466 328.025600
    201    199    463     1   109.7800468 425.094400
    203    204    205     1   109.8800469 414.216000
    203    204    206     1   109.8800469 414.216000
    203    207    208     1   109.8800469 414.216000
    203    207    209     1   109.8800469 414.216000
    203    210    211     1   109.8800469 414.216000
    203    210    212     1   109.8800469 414.216000
    204    216    217     1   109.8000471 387.438400
    204    216    218     1   109.8000471 387.438400
    205    204    216     1   109.5600471 388.275200
    205    204    206     1   108.4600466 328.025600
    206    204    216     1   109.5600471 388.275200
    207    219    220     1   109.8000471 387.438400
    207    219    221     1   109.8000471 387.438400
    208    207    219     1   109.5600471 388.275200
    208    207    209     1   108.4600466 328.025600
    209    207    219     1   109.5600471 388.275200
    210    213    214     1   109.8000471 387.438400
    210    213    215     1   109.8000471 387.438400
    211    210    213     1   109.5600471 388.275200
    211    210    212     1   108.4600466 328.025600
    212    210    213     1   109.5600471 388.275200
    213    222    223     1   109.5600471 388.275200
    213    222    224     1   109.5600471 388.275200
    214    213    222     1   109.8000471 387.438400
    214    213    215     1   107.5800459 329.699200
    215    213    222     1   109.8000471 387.438400
    216    228    229     1   109.5600471 388.275200
    216    228    230     1   109.5600471 388.275200
    217    216    228     1   109.8000471 387.438400
    217    216    218     1   107.5800459 329.699200
    218    216    228     1   109.8000471 387.438400
    219    225    226     1   109.5600471 388.275200
    219    225    227     1   109.5600471 388.275200
    220    219    225     1   109.8000471 387.438400
    220    219    221     1   107.5800459 329.699200
    221    219    225     1   109.8000471 387.438400
    223    222    231     1   109.7800468 425.094400
    223    222    224     1   108.4600466 328.025600
    224    222    231     1   109.7800468 425.094400
    226    225    492     1   109.7800468 425.094400
    226    225    227     1   108.4600466 328.025600
    227    225    492     1   109.7800468 425.094400
    229    228    521     1   109.7800468 425.094400
    229    228    230     1   108.4600466 328.025600
    230    228    521     1   109.7800468 425.094400
    232    233    234     1   109.8800469 414.216000
    232    233    235     1   109.8800469 414.216000
    232    236    237     1   109.8800469 414.216000
    232    236    238     1   109.8800469 414.216000
    232    239    240     1   109.8800469 414.216000
    232    239    241     1   109.8800469 414.216000
    233    245    246     1   109.8000471 387.438400
    233    245    247     1   109.8000471 387.438400
    234    233    245     1   109.5600471 388.275200
    234    233    235     1   108.4600466 328.025600
    235    233    245     1   109.5600471 388.275200
    236    248    249     1   109.8000471 387.438400
    236    248    250     1   109.8000471 387.438400
    237    236    248     1   109.5600471 388.275200
    237    236    238     1   108.4600466 328.025600
    238    236    248     1   109.5600471 388.275200
    239    242    243     1   109.8000471 387.438400
    239    242    244     1   109.8000471 387.438400
    240    239    242     1   109.5600471 388.275200
    240    239    241     1   108.4600466 328.025600
    241    239    242     1   109.5600471 388.275200
    242    251    252     1   109.5600471 388.275200
    242    251    253     1   109.5600471 388.275200
    243    242    251     1   109.8000471 387.438400
    243    242    244     1   107.5800459 329.699200
    244    242    251     1   109.8000471 387.438400
    245    257    258     1   109.5600471 388.275200
    245    257    259     1   109.5600471 388.275200
    246    245    257     1   109.8000471 387.438400
    246    245    247     1   107.5800459 329.699200
    247    245    257     1   109.8000471 387.438400
    248    254    255     1   109.5600471 388.275200
    248    254    256     1   109.5600471 388.275200
    249    248    254     1   109.8000471 387.438400
    249    248    250     1   107.5800459 329.699200
    250    248    254     1   109.8000471 387.438400
    252    251    260     1   109.7800468 425.094400
    252    251    253     1   108.4600466 328.025600
    253    251    260     1   109.7800468 425.094400
    255    254    550     1   109.7800468 425.094400
    255    254    256     1   108.4600466 328.025600
    256    254    550     1   109.7800468 425.094400
    258    257    579     1   109.7800468 425.094400
    258    257    259     1   108.4600466 328.025600
    259    257    579     1   109.7800468 425.094400
    261    262    263     1   109.8800469 414.216000
    261    262    264     1   109.8800469 414.216000
    261    265    266     1   109.8800469 414.216000
    261    265    267     1   109.8800469 414.216000
    261    268    269     1   109.8800469 414.216000
    261    268    270     1   109.8800469 414.216000
    262    274    275     1   109.8000471 387.438400
    262    274    276     1   109.8000471 387.438400
    263    262    274     1   109.5600471 388.275200
    263    262    264     1   108.4600466 328.025600
    264    262    274     1   109.5600471 388.275200
    265    277    278     1   109.8000471 387.438400
    265    277    279     1   109.8000471 387.438400
    266    265    277     1   109.5600471 388.275200
    266    265    267     1   108.4600466 328.025600
    267    265    277     1   109.5600471 388.275200
    268    271    272     1   109.8000471 387.438400
    268    271    273     1   109.8000471 387.438400
    269    268    271     1   109.5600471 388.275200
    269    268    270     1   108.4600466 328.025600
    270    268    271     1   109.5600471 388.275200
    271    280    281     1   109.5600471 388.275200
    271    280    282     1   109.5600471 388.275200
    272    271    280     1   109.8000471 387.438400
    272    271    273     1   107.5800459 329.699200
    273    271    280     1   109.8000471 387.438400
    274    286    287     1   109.5600471 388.275200
    274    286    288     1   109.5600471 388.275200
    275    274    286     1   109.8000471 387.438400
    275    274    276     1   107.5800459 329.699200
    276    274    286     1   109.8000471 387.438400
    277    283    284     1   109.5600471 388.275200
    277    283    285     1   109.5600471 388.275200
    278    277    283     1   109.8000471 387.438400
    278    277    279     1   107.5800459 329.699200
    279    277    283     1   109.8000471 387.438400
    281    280    289     1   109.7800468 425.094400
    281    280    282     1   108.4600466 328.025600
    282    280    289     1   109.7800468 425.094400
    284    283    608     1   109.7800468 425.094400
    284    283    285     1   108.4600466 328.025600
    285    283    608     1   109.7800468 425.094400
    287    286    637     1   109.7800468 425.094400
    287    286    288     1   108.4600466 328.025600
    288    286    637     1   109.7800468 425.094400
    290    291    292     1   109.8800469 414.216000
    290    291    293     1   109.8800469 414.216000
    290    294    295     1   109.8800469 414.216000
    290    294    296     1   109.8800469 414.216000
    290    297    298     1   109.8800469 414.216000
    290    297    299     1   109.8800469 414.216000
    291    303    304     1   109.8000471 387.438400
    291    303    305     1   109.8000471 387.438400
    292    291    303     1   109.5600471 388.275200
    292    291    293     1   108.4600466 328.025600
    293    291    303     1   109.5600471 388.275200
    294    306    307     1   109.8000471 387.438400
    294    306    308     1   109.8000471 387.438400
    295    294    306     1   109.5600471 388.275200
    295    294    296     1   108.4600466 328.025600
    296    294    306     1   109.5600471 388.275200
    297    300    301     1   109.8000471 387.438400
    297    300    302     1   109.8000471 387.438400
    298    297    300     1   109.5600471 388.275200
    298    297    299     1   108.4600466 328.025600
    299    297    300     1   109.5600471 388.275200
    300    309    310     1   109.5600471 388.275200
    300    309    311     1   109.5600471 388.275200
    301    300    309     1   109.8000471 387.438400
    301    300    302     1   107.5800459 329.699200
    302    300    309     1   109.8000471 387.438400
    303    315    316     1   109.5600471 388.275200
    303    315    317     1   109.5600471 388.275200
    304    303    315     1   109.8000471 387.438400
    304    303    305     1   107.5800459 329.699200
    305    303    315     1   109.8000471 387.438400
    306    312    313     1   109.5600471 388.275200
    306    312    314     1   109.5600471 388.275200
    307    306    312     1   109.8000471 387.438400
    307    306    308     1   107.5800459 329.699200
    308    306    312     1   109.8000471 387.438400
    310    309    318     1   109.7800468 425.094400
    310    309    311     1   108.4600466 328.025600
    311    309    318     1   109.7800468 425.094400
    313    312    666     1   109.7800468 425.094400
    313    312    314     1   108.4600466 328.025600
    314    312    666     1   109.7800468 425.094400
    316    315    695     1   109.7800468 425.094400
    316    315    317     1   108.4600466 328.025600
    317    315    695     1   109.7800468 425.094400
    319    320    321     1   109.8800469 414.216000
    319    320    322     1   109.8800469 414.216000
    319    323    324     1   109.8800469 414.216000
    319    323    325     1   109.8800469 414.216000
    319    326    327     1   109.8800469 414.216000
    319    326    328     1   109.8800469 414.216000
    320    332    333     1   109.8000471 387.438400
    320    332    334     1   109.8000471 387.438400
    321    320    332     1   109.5600471 388.275200
    321    320    322     1   108.4600466 328.025600
    322    320    332     1   109.5600471 388.275200
    323    335    336     1   109.8000471 387.438400
    323    335    337     1   109.8000471 387.438400
    324    323    335     1   109.5600471 388.275200
    324    323    325     1   108.4600466 328.025600
    325    323    335     1   109.5600471 388.275200
    326    329    330     1   109.8000471 387.438400
    326    329    331     1   109.8000471 387.438400
    327    326    329     1   109.5600471 388.275200
    327    326    328     1   108.4600466 328.025600
    328    326    329     1   109.5600471 388.275200
    329    338    339     1   109.5600471 388.275200
    329    338    340     1   109.5600471 388.275200
    330    329    338     1   109.8000471 387.438400
    330    329    331     1   107.5800459 329.699200
    331    329    338     1   109.8000471 387.438400
    332    344    345     1   109.5600471 388.275200
    332    344    346     1   109.5600471 388.275200
    333    332    344     1   109.8000471 387.438400
    333    332    334     1   107.5800459 329.699200
    334    332    344     1   109.8000471 387.438400
    335    341    342     1   109.5600471 388.275200
    335    341    343     1   109.5600471 388.275200
    336    335    341     1   109.8000471 387.438400
    336    335    337     1   107.5800459 329.699200
    337    335    341     1   109.8000471 387.438400
    339    338    347     1   109.7800468 425.094400
    339    338    340     1   108.4600466 328.025600
    340    338    347     1   109.7800468 425.094400
    342    341    724     1   109.7800468 425.094400
    342    341    343     1   108.4600466 328.025600
    343    341    724     1   109.7800468 425.094400
    345    344    753     1   109.7800468 425.094400
    345    344    346     1   108.4600466 328.025600
    346    344    753     1   109.7800468 425.094400
    348    349    350     1   109.8800469 414.216000
    348    349    351     1   109.8800469 414.216000
    348    352    353     1   109.8800469 414.216000
    348    352    354     1   109.8800469 414.216000
    348    355    356     1   109.8800469 414.216000
    348    355    357     1   109.8800469 414.216000
    349    361    362     1   109.8000471 387.438400
    349    361    363     1   109.8000471 387.438400
    350    349    361     1   109.5600471 388.275200
    350    349    351     1   108.4600466 328.025600
    351    349    361     1   109.5600471 388.275200
    352    364    365     1   109.8000471 387.438400
    352    364    366     1   109.8000471 387.438400
    353    352    364     1   109.5600471 388.275200
    353    352    354     1   108.4600466 328.025600
    354    352    364     1   109.5600471 388.275200
    355    358    359     1   109.8000471 387.438400
    355    358    360     1   109.8000471 387.438400
    356    355    358     1   109.5600471 388.275200
    356    355    357     1   108.4600466 328.025600
    357    355    358     1   109.5600471 388.275200
    358    367    368     1   109.5600471 388.275200
    358    367    369     1   109.5600471 388.275200
    359    358    367     1   109.8000471 387.438400
    359    358    360     1   107.5800459 329.699200
    360    358    367     1   109.8000471 387.438400
    361    373    374     1   109.5600471 388.275200
    361    373    375     1   109.5600471 388.275200
    362    361    373     1   109.8000471 387.438400
    362    361    363     1   107.5800459 329.699200
    363    361    373     1   109.8000471 387.438400
    364    370    371     1   109.5600471 388.275200
    364    370    372     1   109.5600471 388.275200
    365    364    370     1   109.8000471 387.438400
    365    364    366     1   107.5800459 329.699200
    366    364    370     1   109.8000471 387.438400
    368    367    376     1   109.7800468 425.094400
    368    367    369     1   108.4600466 328.025600
    369    367    376     1   109.7800468 425.094400
    371    370    782     1   109.7800468 425.094400
    371    370    372     1   108.4600466 328.025600
    372    370    782     1   109.7800468 425.094400
    374    373    811     1   109.7800468 425.094400
    374    373    375     1   108.4600466 328.025600
    375    373    811     1   109.7800468 425.094400
    377    378    379     1   109.8800469 414.216000
    377    378    380     1   109.8800469 414.216000
    377    381    382     1   109.8800469 414.216000
    377    381    383     1   109.8800469 414.216000
    377    384    385     1   109.8800469 414.216000
    377    384    386     1   109.8800469 414.216000
    378    390    391     1   109.8000471 387.438400
    378    390    392     1   109.8000471 387.438400
    379    378    390     1   109.5600471 388.275200
    379    378    380     1   108.4600466 328.025600
    380    378    390     1   109.5600471 388.275200
    381    393    394     1   109.8000471 387.438400
    381    393    395     1   109.8000471 387.438400
    382    381    393     1   109.5600471 388.275200
    382    381    383     1   108.4600466 328.025600
    383    381    393     1   109.5600471 388.275200
    384    387    388     1   109.8000471 387.438400
    384    387    389     1   109.8000471 387.438400
    385    384    387     1   109.5600471 388.275200
    385    384    386     1   108.4600466 328.025600
    386    384    387     1   109.5600471 388.275200
    387    396    397     1   109.5600471 388.275200
    387    396    398     1   109.5600471 388.275200
    388    387    396     1   109.8000471 387.438400
    388    387    389     1   107.5800459 329.699200
    389    387    396     1   109.8000471 387.438400
    390    402    403     1   109.5600471 388.275200
    390    402    404     1   109.5600471 388.275200
    391    390    402     1   109.8000471 387.438400
    391    390    392     1   107.5800459 329.699200
    392    390    402     1   109.8000471 387.438400
    393    399    400     1   109.5600471 388.275200
    393    399    401     1   109.5600471 388.275200
    394    393    399     1   109.8000471 387.438400
    394    393    395     1   107.5800459 329.699200
    395    393    399     1   109.8000471 387.438400
    397    396    405     1   109.7800468 425.094400
    397    396    398     1   108.4600466 328.025600
    398    396    405     1   109.7800468 425.094400
    400    399    840     1   109.7800468 425.094400
    400    399    401     1   108.4600466 328.025600
    401    399    840     1   109.7800468 425.094400
    403    402    869     1   109.7800468 425.094400
    403    402    404     1   108.4600466 328.025600
    404    402    869     1   109.7800468 425.094400
    406    407    408     1   109.8800469 414.216000
    406    407    409     1   109.8800469 414.216000
    406    410    411     1   109.8800469 414.216000
    406    410    412     1   109.8800469 414.216000
    406    413    414     1   109.8800469 414.216000
    406    413    415     1   109.8800469 414.216000
    407    419    420     1   109.8000471 387.438400
    407    419    421     1   109.8000471 387.438400
    408    407    419     1   109.5600471 388.275200
    408    407    409     1   108.4600466 328.025600
    409    407    419     1   109.5600471 388.275200
    410    422    423     1   109.8000471 387.438400
    410    422    424     1   109.8000471 387.438400
    411    410    422     1   109.5600471 388.275200
    411    410    412     1   108.4600466 328.025600
    412    410    422     1   109.5600471 388.275200
    413    416    417     1   109.8000471 387.438400
    413    416    418     1   109.8000471 387.438400
    414    413    416     1   109.5600471 388.275200
    414    413    415     1   108.4600466 328.025600
    415    413    416     1   109.5600471 388.275200
    416    425    426     1   109.5600471 388.275200
    416    425    427     1   109.5600471 388.275200
    417    416    425     1   109.8000471 387.438400
    417    416    418     1   107.5800459 329.699200
    418    416    425     1   109.8000471 387.438400
    419    431    432     1   109.5600471 388.275200
    419    431    433     1   109.5600471 388.275200
    420    419    431     1   109.8000471 387.438400
    420    419    421     1   107.5800459 329.699200
    421    419    431     1   109.8000471 387.438400
    422    428    429     1   109.5600471 388.275200
    422    428    430     1   109.5600471 388.275200
    423    422    428     1   109.8000471 387.438400
    423    422    424     1   107.5800459 329.699200
    424    422    428     1   109.8000471 387.438400
    426    425    434     1   109.7800468 425.094400
    426    425    427     1   108.4600466 328.025600
    427    425    434     1   109.7800468 425.094400
    429    428    898     1   109.7800468 425.094400
    429    428    430     1   108.4600466 328.025600
    430    428    898     1   109.7800468 425.094400
    432    431    927     1   109.7800468 425.094400
    432    431    433     1   108.4600466 328.025600
    433    431    927     1   109.7800468 425.094400
    435    436    437     1   109.8800469 414.216000
    435    436    438     1   109.8800469 414.216000
    435    439    440     1   109.8800469 414.216000
    435    439    441     1   109.8800469 414.216000
    435    442    443     1   109.8800469 414.216000
    435    442    444     1   109.8800469 414.216000
    436    448    449     1   109.8000471 387.438400
    436    448    450     1   109.8000471 387.438400
    437    436    448     1   109.5600471 388.275200
    437    436    438     1   108.4600466 328.025600
    438    436    448     1   109.5600471 388.275200
    439    451    452     1   109.8000471 387.438400
    439    451    453     1   109.8000471 387.438400
    440    439    451     1   109.5600471 388.275200
    440    439    441     1   108.4600466 328.025600
    441    439    451     1   109.5600471 388.275200
    442    445    446     1   109.8000471 387.438400
    442    445    447     1   109.8000471 387.438400
    443    442    445     1   109.5600471 388.275200
    443    442    444     1   108.4600466 328.025600
    444    442    445     1   109.5600471 388.275200
    445    454    455     1   109.5600471 388.275200
    445    454    456     1   109.5600471 388.275200
    446    445    454     1   109.8000471 387.438400
    446    445    447     1   107.5800459 329.699200
    447    445    454     1   109.8000471 387.438400
    448    460    461     1   109.5600471 388.275200
    448    460    462     1   109.5600471 388.275200
    449    448    460     1   109.8000471 387.438400
    449    448    450     1   107.5800459 329.699200
    450    448    460     1   109.8000471 387.438400
    451    457    458     1   109.5600471 388.275200
    451    457    459     1   109.5600471 388.275200
    452    451    457     1   109.8000471 387.438400
    452    451    453     1   107.5800459 329.699200
    453    451    457     1   109.8000471 387.438400
    455    454    463     1   109.7800468 425.094400
    455    454    456     1   108.4600466 328.025600
    456    454    463     1   109.7800468 425.094400
    458    457    956     1   109.7800468 425.094400
    458    457    459     1   108.4600466 328.025600
    459    457    956     1   109.7800468 425.094400
    461    460    985     1   109.7800468 425.094400
    461    460    462     1   108.4600466 328.025600
    462    460    985     1   109.7800468 425.094400
    464    465    466     1   109.8800469 414.216000
    464    465    467     1   109.8800469 414.216000
    464    468    469     1   109.8800469 414.216000
    464    468    470     1   109.8800469 414.216000
    464    471    472     1   109.8800469 414.216000
    464    471    473     1   109.8800469 414.216000
    465    477    478     1   109.8000471 387.438400
    465    477    479     1   109.8000471 387.438400
    466    465    477     1   109.5600471 388.275200
    466    465    467     1   108.4600466 328.025600
    467    465    477     1   109.5600471 388.275200
    468    480    481     1   109.8000471 387.438400
    468    480    482     1   109.8000471 387.438400
    469    468    480     1   109.5600471 388.275200
    469    468    470     1   108.4600466 328.025600
    470    468    480     1   109.5600471 388.275200
    471    474    475     1   109.8000471 387.438400
    471    474    476     1   109.8000471 387.438400
    472    471    474     1   109.5600471 388.275200
    472    471    473     1   108.4600466 328.025600
    473    471    474     1   109.5600471 388.275200
    474    483    484     1   109.5600471 388.275200
    474    483    485     1   109.5600471 388.275200
    475    474    483     1   109.8000471 387.438400
    475    474    476     1   107.5800459 329.699200
    476    474    483     1   109.8000471 387.438400
    477    489    490     1   109.5600471 388.275200
    477    489    491     1   109.5600471 388.275200
    478    477    489     1   109.8000471 387.438400
    478    477    479     1   107.5800459 329.699200
    479    477    489     1   109.8000471 387.438400
    480    486    487     1   109.5600471 388.275200
    480    486    488     1   109.5600471 388.275200
    481    480    486     1   109.8000471 387.438400
    481    480    482     1   107.5800459 329.699200
    482    480    486     1   109.8000471 387.438400
    484    483    492     1   109.7800468 425.094400
    484    483    485     1   108.4600466 328.025600
    485    483    492     1   109.7800468 425.094400
    487    486   1014     1   109.7800468 425.094400
    487    486    488     1   108.4600466 328.025600
    488    486   1014     1   109.7800468 425.094400
    490    489   1043     1   109.7800468 425.094400
    490    489    491     1   108.4600466 328.025600
    491    489   1043     1   109.7800468 425.094400
    493    494    495     1   109.8800469 414.216000
    493    494    496     1   109.8800469 414.216000
    493    497    498     1   109.8800469 414.216000
    493    497    499     1   109.8800469 414.216000
    493    500    501     1   109.8800469 414.216000
    493    500    502     1   109.8800469 414.216000
    494    506    507     1   109.8000471 387.438400
    494    506    508     1   109.8000471 387.438400
    495    494    506     1   109.5600471 388.275200
    495    494    496     1   108.4600466 328.025600
    496    494    506     1   109.5600471 388.275200
    497    509    510     1   109.8000471 387.438400
    497    509    511     1   109.8000471 387.438400
    498    497    509     1   109.5600471 388.275200
    498    497    499     1   108.4600466 328.025600
    499    497    509     1   109.5600471 388.275200
    500    503    504     1   109.8000471 387.438400
    500    503    505     1   109.8000471 387.438400
    501    500    503     1   109.5600471 388.275200
    501    500    502     1   108.4600466 328.025600
    502    500    503     1   109.5600471 388.275200
    503    512    513     1   109.5600471 388.275200
    503    512    514     1   109.5600471 388.275200
    504    503    512     1   109.8000471 387.438400
    504    503    505     1   107.5800459 329.699200
    505    503    512     1   109.8000471 387.438400
    506    518    519     1   109.5600471 388.275200
    506    518    520     1   109.5600471 388.275200
    507    506    518     1   109.8000471 387.438400
    507    506    508     1   107.5800459 329.699200
    508    506    518     1   109.8000471 387.438400
    509    515    516     1   109.5600471 388.275200
    509    515    517     1   109.5600471 388.275200
    510    509    515     1   109.8000471 387.438400
    510    509    511     1   107.5800459 329.699200
    511    509    515     1   109.8000471 387.438400
    513    512    521     1   109.7800468 425.094400
    513    512    514     1   108.4600466 328.025600
    514    512    521     1   109.7800468 425.094400
    516    515   1072     1   109.7800468 425.094400
    516    515    517     1   108.4600466 328.025600
    517    515   1072     1   109.7800468 425.094400
    519    518   1101     1   109.7800468 425.094400
    519    518    520     1   108.4600466 328.025600
    520    518   1101     1   109.7800468 425.094400
    522    523    524     1   109.8800469 414.216000
    522    523    525     1   109.8800469 414.216000
    522    526    527     1   109.8800469 414.216000
    522    526    528     1   109.8800469 414.216000
    522    529    530     1   109.8800469 414.216000
    522    529    531     1   109.8800469 414.216000
    523    535    536     1   109.8000471 387.438400
    523    535    537     1   109.8000471 387.438400
    524    523    535     1   109.5600471 388.275200
    524    523    525     1   108.4600466 328.025600
    525    523    535     1   109.5600471 388.275200
    526    538    539     1   109.8000471 387.438400
    526    538    540     1   109.8000471 387.438400
    527    526    538     1   109.5600471 388.275200
    527    526    528     1   108.4600466 328.025600
    528    526    538     1   109.5600471 388.275200
    529    532    533     1   109.8000471 387.438400
    529    532    534     1   109.8000471 387.438400
    530    529    532     1   109.5600471 388.275200
    530    529    531     1   108.4600466 328.025600
    531    529    532     1   109.5600471 388.275200
    532    541    542     1   109.5600471 388.275200
    532    541    543     1   109.5600471 388.275200
    533    532    541     1   109.8000471 387.438400
    533    532    534     1   107.5800459 329.699200
    534    532    541     1   109.8000471 387.438400
    535    547    548     1   109.5600471 388.275200
    535    547    549     1   109.5600471 388.275200
    536    535    547     1   109.8000471 387.438400
    536    535    537     1   107.5800459 329.699200
    537    535    547     1   109.8000471 387.438400
    538    544    545     1   109.5600471 388.275200
    538    544    546     1   109.5600471 388.275200
    539    538    544     1   109.8000471 387.438400
    539    538    540     1   107.5800459 329.699200
    540    538    544     1   109.8000471 387.438400
    542    541    550     1   109.7800468 425.094400
    542    541    543     1   108.4600466 328.025600
    543    541    550     1   109.7800468 425.094400
    545    544   1130     1   109.7800468 425.094400
    545    544    546     1   108.4600466 328.025600
    546    544   1130     1   109.7800468 425.094400
    548    547   1159     1   109.7800468 425.094400
    548    547    549     1   108.4600466 328.025600
    549    547   1159     1   109.7800468 425.094400
    551    552    553     1   109.8800469 414.216000
    551    552    554     1   109.8800469 414.216000
    551    555    556     1   109.8800469 414.216000
    551    555    557     1   109.8800469 414.216000
    551    558    559     1   109.8800469 414.216000
    551    558    560     1   109.8800469 414.216000
    552    564    565     1   109.8000471 387.438400
    552    564    566     1   109.8000471 387.438400
    553    552    564     1   109.5600471 388.275200
    553    552    554     1   108.4600466 328.025600
    554    552    564     1   109.5600471 388.275200
    555    567    568     1   109.8000471 387.438400
    555    567    569     1   109.8000471 387.438400
    556    555    567     1   109.5600471 388.275200
    556    555    557     1   108.4600466 328.025600
    557    555    567     1   109.5600471 388.275200
    558    561    562     1   109.8000471 387.438400
    558    561    563     1   109.8000471 387.438400
    559    558    561     1   109.5600471 388.275200
    559    558    560     1   108.4600466 328.025600
    560    558    561     1   109.5600471 388.275200
    561    570    571     1   109.5600471 388.275200
    561    570    572     1   109.5600471 388.275200
    562    561    570     1   109.8000471 387.438400
    562    561    563     1   107.5800459 329.699200
    563    561    570     1   109.8000471 387.438400
    564    576    577     1   109.5600471 388.275200
    564    576    578     1   109.5600471 388.275200
    565    564    576     1   109.8000471 387.438400
    565    564    566     1   107.5800459 329.699200
    566    564    576     1   109.8000471 387.438400
    567    573    574     1   109.5600471 388.275200
    567    573    575     1   109.5600471 388.275200
    568    567    573     1   109.8000471 387.438400
    568    567    569     1   107.5800459 329.699200
    569    567    573     1   109.8000471 387.438400
    571    570    579     1   109.7800468 425.094400
    571    570    572     1   108.4600466 328.025600
    572    570    579     1   109.7800468 425.094400
    574    573   1188     1   109.7800468 425.094400
    574    573    575     1   108.4600466 328.025600
    575    573   1188     1   109.7800468 425.094400
    577    576   1217     1   109.7800468 425.094400
    577    576    578     1   108.4600466 328.025600
    578    576   1217     1   109.7800468 425.094400
    580    581    582     1   109.8800469 414.216000
    580    581    583     1   109.8800469 414.216000
    580    584    585     1   109.8800469 414.216000
    580    584    586     1   109.8800469 414.216000
    580    587    588     1   109.8800469 414.216000
    580    587    589     1   109.8800469 414.216000
    581    593    594     1   109.8000471 387.438400
    581    593    595     1   109.8000471 387.438400
    582    581    593     1   109.5600471 388.275200
    582    581    583     1   108.4600466 328.025600
    583    581    593     1   109.5600471 388.275200
    584    596    597     1   109.8000471 387.438400
    584    596    598     1   109.8000471 387.438400
    585    584    596     1   109.5600471 388.275200
    585    584    586     1   108.4600466 328.025600
    586    584    596     1   109.5600471 388.275200
    587    590    591     1   109.8000471 387.438400
    587    590    592     1   109.8000471 387.438400
    588    587    590     1   109.5600471 388.275200
    588    587    589     1   108.4600466 328.025600
    589    587    590     1   109.5600471 388.275200
    590    599    600     1   109.5600471 388.275200
    590    599    601     1   109.5600471 388.275200
    591    590    599     1   109.8000471 387.438400
    591    590    592     1   107.5800459 329.699200
    592    590    599     1   109.8000471 387.438400
    593    605    606     1   109.5600471 388.275200
    593    605    607     1   109.5600471 388.275200
    594    593    605     1   109.8000471 387.438400
    594    593    595     1   107.5800459 329.699200
    595    593    605     1   109.8000471 387.438400
    596    602    603     1   109.5600471 388.275200
    596    602    604     1   109.5600471 388.275200
    597    596    602     1   109.8000471 387.438400
    597    596    598     1   107.5800459 329.699200
    598    596    602     1   109.8000471 387.438400
    600    599    608     1   109.7800468 425.094400
    600    599    601     1   108.4600466 328.025600
    601    599    608     1   109.7800468 425.094400
    603    602   1246     1   109.7800468 425.094400
    603    602    604     1   108.4600466 328.025600
    604    602   1246     1   109.7800468 425.094400
    606    605   1275     1   109.7800468 425.094400
    606    605    607     1   108.4600466 328.025600
    607    605   1275     1   109.7800468 425.094400
    609    610    611     1   109.8800469 414.216000
    609    610    612     1   109.8800469 414.216000
    609    613    614     1   109.8800469 414.216000
    609    613    615     1   109.8800469 414.216000
    609    616    617     1   109.8800469 414.216000
    609    616    618     1   109.8800469 414.216000
    610    622    623     1   109.8000471 387.438400
    610    622    624     1   109.8000471 387.438400
    611    610    622     1   109.5600471 388.275200
    611    610    612     1   108.4600466 328.025600
    612    610    622     1   109.5600471 388.275200
    613    625    626     1   109.8000471 387.438400
    613    625    627     1   109.8000471 387.438400
    614    613    625     1   109.5600471 388.275200
    614    613    615     1   108.4600466 328.025600
    615    613    625     1   109.5600471 388.275200
    616    619    620     1   109.8000471 387.438400
    616    619    621     1   109.8000471 387.438400
    617    616    619     1   109.5600471 388.275200
    617    616    618     1   108.4600466 328.025600
    618    616    619     1   109.5600471 388.275200
    619    628    629     1   109.5600471 388.275200
    619    628    630     1   109.5600471 388.275200
    620    619    628     1   109.8000471 387.438400
    620    619    621     1   107.5800459 329.699200
    621    619    628     1   109.8000471 387.438400
    622    634    635     1   109.5600471 388.275200
    622    634    636     1   109.5600471 388.275200
    623    622    634     1   109.8000471 387.438400
    623    622    624     1   107.5800459 329.699200
    624    622    634     1   109.8000471 387.438400
    625    631    632     1   109.5600471 388.275200
    625    631    633     1   109.5600471 388.275200
    626    625    631     1   109.8000471 387.438400
    626    625    627     1   107.5800459 329.699200
    627    625    631     1   109.8000471 387.438400
    629    628    637     1   109.7800468 425.094400
    629    628    630     1   108.4600466 328.025600
    630    628    637     1   109.7800468 425.094400
    632    631   1304     1   109.7800468 425.094400
    632    631    633     1   108.4600466 328.025600
    633    631   1304     1   109.7800468 425.094400
    635    634   1333     1   109.7800468 425.094400
    635    634    636     1   108.4600466 328.025600
    636    634   1333     1   109.7800468 425.094400
    638    639    640     1   109.8800469 414.216000
    638    639    641     1   109.8800469 414.216000
    638    642    643     1   109.8800469 414.216000
    638    642    644     1   109.8800469 414.216000
    638    645    646     1   109.8800469 414.216000
    638    645    647     1   109.8800469 414.216000
    639    651    652     1   109.8000471 387.438400
    639    651    653     1   109.8000471 387.438400
    640    639    651     1   109.5600471 388.275200
    640    639    641     1   108.4600466 328.025600
    641    639    651     1   109.5600471 388.275200
    642    654    655     1   109.8000471 387.438400
    642    654    656     1   109.8000471 387.438400
    643    642    654     1   109.5600471 388.275200
    643    642    644     1   108.4600466 328.025600
    644    642    654     1   109.5600471 388.275200
    645    648    649     1   109.8000471 387.438400
    645    648    650     1   109.8000471 387.438400
    646    645    648     1   109.5600471 388.275200
    646    645    647     1   108.4600466 328.025600
    647    645    648     1   109.5600471 388.275200
    648    657    658     1   109.5600471 388.275200
    648    657    659     1   109.5600471 388.275200
    649    648    657     1   109.8000471 387.438400
    649    648    650     1   107.5800459 329.699200
    650    648    657     1   109.8000471 387.438400
    651    663    664     1   109.5600471 388.275200
    651    663    665     1   109.5600471 388.275200
    652    651    663     1   109.8000471 387.438400
    652    651    653     1   107.5800459 329.699200
    653    651    663     1   109.8000471 387.438400
    654    660    661     1   109.5600471 388.275200
    654    660    662     1   109.5600471 388.275200
    655    654    660     1   109.8000471 387.438400
    655    654    656     1   107.5800459 329.699200
    656    654    660     1   109.8000471 387.438400
    658    657    666     1   109.7800468 425.094400
    658    657    659     1   108.4600466 328.025600
    659    657    666     1   109.7800468 425.094400
    661    660   1362     1   109.7800468 425.094400
    661    660    662     1   108.4600466 328.025600
    662    660   1362     1   109.7800468 425.094400
    664    663   1391     1   109.7800468 425.094400
    664    663    665     1   108.4600466 328.025600
    665    663   1391     1   109.7800468 425.094400
    667    668    669     1   109.8800469 414.216000
    667    668    670     1   109.8800469 414.216000
    667    671    672     1   109.8800469 414.216000
    667    671    673     1   109.8800469 414.216000
    667    674    675     1   109.8800469 414.216000
    667    674    676     1   109.8800469 414.216000
    668    680    681     1   109.8000471 387.438400
    668    680    682     1   109.8000471 387.438400
    669    668    680     1   109.5600471 388.275200
    669    668    670     1   108.4600466 328.025600
    670    668    680     1   109.5600471 388.275200
    671    683    684     1   109.8000471 387.438400
    671    683    685     1   109.8000471 387.438400
    672    671    683     1   109.5600471 388.275200
    672    671    673     1   108.4600466 328.025600
    673    671    683     1   109.5600471 388.275200
    674    677    678     1   109.8000471 387.438400
    674    677    679     1   109.8000471 387.438400
    675    674    677     1   109.5600471 388.275200
    675    674    676     1   108.4600466 328.025600
    676    674    677     1   109.5600471 388.275200
    677    686    687     1   109.5600471 388.275200
    677    686    688     1   109.5600471 388.275200
    678    677    686     1   109.8000471 387.438400
    678    677    679     1   107.5800459 329.699200
    679    677    686     1   109.8000471 387.438400
    680    692    693     1   109.5600471 388.275200
    680    692    694     1   109.5600471 388.275200
    681    680    692     1   109.8000471 387.438400
    681    680    682     1   107.5800459 329.699200
    682    680    692     1   109.8000471 387.438400
    683    689    690     1   109.5600471 388.275200
    683    689    691     1   109.5600471 388.275200
    684    683    689     1   109.8000471 387.438400
    684    683    685     1   107.5800459 329.699200
    685    683    689     1   109.8000471 387.438400
    687    686    695     1   109.7800468 425.094400
    687    686    688     1   108.4600466 328.025600
    688    686    695     1   109.7800468 425.094400
    690    689   1420     1   109.7800468 425.094400
    690    689    691     1   108.4600466 328.025600
    691    689   1420     1   109.7800468 425.094400
    693    692   1449     1   109.7800468 425.094400
    693    692    694     1   108.4600466 328.025600
    694    692   1449     1   109.7800468 425.094400
    696    697    698     1   109.8800469 414.216000
    696    697    699     1   109.8800469 414.216000
    696    700    701     1   109.8800469 414.216000
    696    700    702     1   109.8800469 414.216000
    696    703    704     1   109.8800469 414.216000
    696    703    705     1   109.8800469 414.216000
    697    709    710     1   109.8000471 387.438400
    697    709    711     1   109.8000471 387.438400
    698    697    709     1   109.5600471 388.275200
    698    697    699     1   108.4600466 328.025600
    699    697    709     1   109.5600471 388.275200
    700    712    713     1   109.8000471 387.438400
    700    712    714     1   109.8000471 387.438400
    701    700    712     1   109.5600471 388.275200
    701    700    702     1   108.4600466 328.025600
    702    700    712     1   109.5600471 388.275200
    703    706    707     1   109.8000471 387.438400
    703    706    708     1   109.8000471 387.438400
    704    703    706     1   109.5600471 388.275200
    704    703    705     1   108.4600466 328.025600
    705    703    706     1   109.5600471 388.275200
    706    715    716     1   109.5600471 388.275200
    706    715    717     1   109.5600471 388.275200
    707    706    715     1   109.8000471 387.438400
    707    706    708     1   107.5800459 329.699200
    708    706    715     1   109.8000471 387.438400
    709    721    722     1   109.5600471 388.275200
    709    721    723     1   109.5600471 388.275200
    710    709    721     1   109.8000471 387.438400
    710    709    711     1   107.5800459 329.699200
    711    709    721     1   109.8000471 387.438400
    712    718    719     1   109.5600471 388.275200
    712    718    720     1   109.5600471 388.275200
    713    712    718     1   109.8000471 387.438400
    713    712    714     1   107.5800459 329.699200
    714    712    718     1   109.8000471 387.438400
    716    715    724     1   109.7800468 425.094400
    716    715    717     1   108.4600466 328.025600
    717    715    724     1   109.7800468 425.094400
    719    718   1478     1   109.7800468 425.094400
    719    718    720     1   108.4600466 328.025600
    720    718   1478     1   109.7800468 425.094400
    722    721   1507     1   109.7800468 425.094400
    722    721    723     1   108.4600466 328.025600
    723    721   1507     1   109.7800468 425.094400
    725    726    727     1   109.8800469 414.216000
    725    726    728     1   109.8800469 414.216000
    725    729    730     1   109.8800469 414.216000
    725    729    731     1   109.8800469 414.216000
    725    732    733     1   109.8800469 414.216000
    725    732    734     1   109.8800469 414.216000
    726    738    739     1   109.8000471 387.438400
    726    738    740     1   109.8000471 387.438400
    727    726    738     1   109.5600471 388.275200
    727    726    728     1   108.4600466 328.025600
    728    726    738     1   109.5600471 388.275200
    729    741    742     1   109.8000471 387.438400
    729    741    743     1   109.8000471 387.438400
    730    729    741     1   109.5600471 388.275200
    730    729    731     1   108.4600466 328.025600
    731    729    741     1   109.5600471 388.275200
    732    735    736     1   109.8000471 387.438400
    732    735    737     1   109.8000471 387.438400
    733    732    735     1   109.5600471 388.275200
    733    732    734     1   108.4600466 328.025600
    734    732    735     1   109.5600471 388.275200
    735    744    745     1   109.5600471 388.275200
    735    744    746     1   109.5600471 388.275200
    736    735    744     1   109.8000471 387.438400
    736    735    737     1   107.5800459 329.699200
    737    735    744     1   109.8000471 387.438400
    738    750    751     1   109.5600471 388.275200
    738    750    752     1   109.5600471 388.275200
    739    738    750     1   109.8000471 387.438400
    739    738    740     1   107.5800459 329.699200
    740    738    750     1   109.8000471 387.438400
    741    747    748     1   109.5600471 388.275200
    741    747    749     1   109.5600471 388.275200
    742    741    747     1   109.8000471 387.438400
    742    741    743     1   107.5800459 329.699200
    743    741    747     1   109.8000471 387.438400
    745    744    753     1   109.7800468 425.094400
    745    744    746     1   108.4600466 328.025600
    746    744    753     1   109.7800468 425.094400
    748    747   1536     1   109.7800468 425.094400
    748    747    749     1   108.4600466 328.025600
    749    747   1536     1   109.7800468 425.094400
    751    750   1565     1   109.7800468 425.094400
    751    750    752     1   108.4600466 328.025600
    752    750   1565     1   109.7800468 425.094400
    754    755    756     1   109.8800469 414.216000
    754    755    757     1   109.8800469 414.216000
    754    758    759     1   109.8800469 414.216000
    754    758    760     1   109.8800469 414.216000
    754    761    762     1   109.8800469 414.216000
    754    761    763     1   109.8800469 414.216000
    755    767    768     1   109.8000471 387.438400
    755    767    769     1   109.8000471 387.438400
    756    755    767     1   109.5600471 388.275200
    756    755    757     1   108.4600466 328.025600
    757    755    767     1   109.5600471 388.275200
    758    770    771     1   109.8000471 387.438400
    758    770    772     1   109.8000471 387.438400
    759    758    770     1   109.5600471 388.275200
    759    758    760     1   108.4600466 328.025600
    760    758    770     1   109.5600471 388.275200
    761    764    765     1   109.8000471 387.438400
    761    764    766     1   109.8000471 387.438400
    762    761    764     1   109.5600471 388.275200
    762    761    763     1   108.4600466 328.025600
    763    761    764     1   109.5600471 388.275200
    764    773    774     1   109.5600471 388.275200
    764    773    775     1   109.5600471 388.275200
    765    764    773     1   109.8000471 387.438400
    765    764    766     1   107.5800459 329.699200
    766    764    773     1   109.8000471 387.438400
    767    779    780     1   109.5600471 388.275200
    767    779    781     1   109.5600471 388.275200
    768    767    779     1   109.8000471 387.438400
    768    767    769     1   107.5800459 329.699200
    769    767    779     1   109.8000471 387.438400
    770    776    777     1   109.5600471 388.275200
    770    776    778     1   109.5600471 388.275200
    771    770    776     1   109.8000471 387.438400
    771    770    772     1   107.5800459 329.699200
    772    770    776     1   109.8000471 387.438400
    774    773    782     1   109.7800468 425.094400
    774    773    775     1   108.4600466 328.025600
    775    773    782     1   109.7800468 425.094400
    777    776   1594     1   109.7800468 425.094400
    777    776    778     1   108.4600466 328.025600
    778    776   1594     1   109.7800468 425.094400
    780    779   1623     1   109.7800468 425.094400
    780    779    781     1   108.4600466 328.025600
    781    779   1623     1   109.7800468 425.094400
    783    784    785     1   109.8800469 414.216000
    783    784    786     1   109.8800469 414.216000
    783    787    788     1   109.8800469 414.216000
    783    787    789     1   109.8800469 414.216000
    783    790    791     1   109.8800469 414.216000
    783    790    792     1   109.8800469 414.216000
    784    796    797     1   109.8000471 387.438400
    784    796    798     1   109.8000471 387.438400
    785    784    796     1   109.5600471 388.275200
    785    784    786     1   108.4600466 328.025600
    786    784    796     1   109.5600471 388.275200
    787    799    800     1   109.8000471 387.438400
    787    799    801     1   109.8000471 387.438400
    788    787    799     1   109.5600471 388.275200
    788    787    789     1   108.4600466 328.025600
    789    787    799     1   109.5600471 388.275200
    790    793    794     1   109.8000471 387.438400
    790    793    795     1   109.8000471 387.438400
    791    790    793     1   109.5600471 388.275200
    791    790    792     1   108.4600466 328.025600
    792    790    793     1   109.5600471 388.275200
    793    802    803     1   109.5600471 388.275200
    793    802    804     1   109.5600471 388.275200
    794    793    802     1   109.8000471 387.438400
    794    793    795     1   107.5800459 329.699200
    795    793    802     1   109.8000471 387.438400
    796    808    809     1   109.5600471 388.275200
    796    808    810     1   109.5600471 388.275200
    797    796    808     1   109.8000471 387.438400
    797    796    798     1   107.5800459 329.699200
    798    796    808     1   109.8000471 387.438400
    799    805    806     1   109.5600471 388.275200
    799    805    807     1   109.5600471 388.275200
    800    799    805     1   109.8000471 387.438400
    800    799    801     1   107.5800459 329.699200
    801    799    805     1   109.8000471 387.438400
    803    802    811     1   109.7800468 425.094400
    803    802    804     1   108.4600466 328.025600
    804    802    811     1   109.7800468 425.094400
    806    805   1652     1   109.7800468 425.094400
    806    805    807     1   108.4600466 328.025600
    807    805   1652     1   109.7800468 425.094400
    809    808   1681     1   109.7800468 425.094400
    809    808    810     1   108.4600466 328.025600
    810    808   1681     1   109.7800468 425.094400
    812    813    814     1   109.8800469 414.216000
    812    813    815     1   109.8800469 414.216000
    812    816    817     1   109.8800469 414.216000
    812    816    818     1   109.8800469 414.216000
    812    819    820     1   109.8800469 414.216000
    812    819    821     1   109.8800469 414.216000
    813    825    826     1   109.8000471 387.438400
    813    825    827     1   109.8000471 387.438400
    814    813    825     1   109.5600471 388.275200
    814    813    815     1   108.4600466 328.025600
    815    813    825     1   109.5600471 388.275200
    816    828    829     1   109.8000471 387.438400
    816    828    830     1   109.8000471 387.438400
    817    816    828     1   109.5600471 388.275200
    817    816    818     1   108.4600466 328.025600
    818    816    828     1   109.5600471 388.275200
    819    822    823     1   109.8000471 387.438400
    819    822    824     1   109.8000471 387.438400
    820    819    822     1   109.5600471 388.275200
    820    819    821     1   108.4600466 328.025600
    821    819    822     1   109.5600471 388.275200
    822    831    832     1   109.5600471 388.275200
    822    831    833     1   109.5600471 388.275200
    823    822    831     1   109.8000471 387.438400
    823    822    824     1   107.5800459 329.699200
    824    822    831     1   109.8000471 387.438400
    825    837    838     1   109.5600471 388.275200
    825    837    839     1   109.5600471 388.275200
    826    825    837     1   109.8000471 387.438400
    826    825    827     1   107.5800459 329.699200
    827    825    837     1   109.8000471 387.438400
    828    834    835     1   109.5600471 388.275200
    828    834    836     1   109.5600471 388.275200
    829    828    834     1   109.8000471 387.438400
    829    828    830     1   107.5800459 329.699200
    830    828    834     1   109.8000471 387.438400
    832    831    840     1   109.7800468 425.094400
    832    831    833     1   108.4600466 328.025600
    833    831    840     1   109.7800468 425.094400
    835    834   1710     1   109.7800468 425.094400
    835    834    836     1   108.4600466 328.025600
    836    834   1710     1   109.7800468 425.094400
    838    837   1739     1   109.7800468 425.094400
    838    837    839     1   108.4600466 328.025600
    839    837   1739     1   109.7800468 425.094400
    841    842    843     1   109.8800469 414.216000
    841    842    844     1   109.8800469 414.216000
    841    845    846     1   109.8800469 414.216000
    841    845    847     1   109.8800469 414.216000
    841    848    849     1   109.8800469 414.216000
    841    848    850     1   109.8800469 414.216000
    842    854    855     1   109.8000471 387.438400
    842    854    856     1   109.8000471 387.438400
    843    842    854     1   109.5600471 388.275200
    843    842    844     1   108.4600466 328.025600
    844    842    854     1   109.5600471 388.275200
    845    857    858     1   109.8000471 387.438400
    845    857    859     1   109.8000471 387.438400
    846    845    857     1   109.5600471 388.275200
    846    845    847     1   108.4600466 328.025600
    847    845    857     1   109.5600471 388.275200
    848    851    852     1   109.8000471 387.438400
    848    851    853     1   109.8000471 387.438400
    849    848    851     1   109.5600471 388.275200
    849    848    850     1   108.4600466 328.025600
    850    848    851     1   109.5600471 388.275200
    851    860    861     1   109.5600471 388.275200
    851    860    862     1   109.5600471 388.275200
    852    851    860     1   109.8000471 387.438400
    852    851    853     1   107.5800459 329.699200
    853    851    860     1   109.8000471 387.438400
    854    866    867     1   109.5600471 388.275200
    854    866    868     1   109.5600471 388.275200
    855    854    866     1   109.8000471 387.438400
    855    854    856     1   107.5800459 329.699200
    856    854    866     1   109.8000471 387.438400
    857    863    864     1   109.5600471 388.275200
    857    863    865     1   109.5600471 388.275200
    858    857    863     1   109.8000471 387.438400
    858    857    859     1   107.5800459 329.699200
    859    857    863     1   109.8000471 387.438400
    861    860    869     1   109.7800468 425.094400
    861    860    862     1   108.4600466 328.025600
    862    860    869     1   109.7800468 425.094400
    864    863   1768     1   109.7800468 425.094400
    864    863    865     1   108.4600466 328.025600
    865    863   1768     1   109.7800468 425.094400
    867    866   1797     1   109.7800468 425.094400
    867    866    868     1   108.4600466 328.025600
    868    866   1797     1   109.7800468 425.094400
    870    871    872     1   109.8800469 414.216000
    870    871    873     1   109.8800469 414.216000
    870    874    875     1   109.8800469 414.216000
    870    874    876     1   109.8800469 414.216000
    870    877    878     1   109.8800469 414.216000
    870    877    879     1   109.8800469 414.216000
    871    883    884     1   109.8000471 387.438400
    871    883    885     1   109.8000471 387.438400
    872    871    883     1   109.5600471 388.275200
    872    871    873     1   108.4600466 328.025600
    873    871    883     1   109.5600471 388.275200
    874    886    887     1   109.8000471 387.438400
    874    886    888     1   109.8000471 387.438400
    875    874    886     1   109.5600471 388.275200
    875    874    876     1   108.4600466 328.025600
    876    874    886     1   109.5600471 388.275200
    877    880    881     1   109.8000471 387.438400
    877    880    882     1   109.8000471 387.438400
    878    877    880     1   109.5600471 388.275200
    878    877    879     1   108.4600466 328.025600
    879    877    880     1   109.5600471 388.275200
    880    889    890     1   109.5600471 388.275200
    880    889    891     1   109.5600471 388.275200
    881    880    889     1   109.8000471 387.438400
    881    880    882     1   107.5800459 329.699200
    882    880    889     1   109.8000471 387.438400
    883    895    896     1   109.5600471 388.275200
    883    895    897     1   109.5600471 388.275200
    884    883    895     1   109.8000471 387.438400
    884    883    885     1   107.5800459 329.699200
    885    883    895     1   109.8000471 387.438400
    886    892    893     1   109.5600471 388.275200
    886    892    894     1   109.5600471 388.275200
    887    886    892     1   109.8000471 387.438400
    887    886    888     1   107.5800459 329.699200
    888    886    892     1   109.8000471 387.438400
    890    889    898     1   109.7800468 425.094400
    890    889    891     1   108.4600466 328.025600
    891    889    898     1   109.7800468 425.094400
    893    892   1826     1   109.7800468 425.094400
    893    892    894     1   108.4600466 328.025600
    894    892   1826     1   109.7800468 425.094400
    896    895   1855     1   109.7800468 425.094400
    896    895    897     1   108.4600466 328.025600
    897    895   1855     1   109.7800468 425.094400
    899    900    901     1   109.8800469 414.216000
    899    900    902     1   109.8800469 414.216000
    899    903    904     1   109.8800469 414.216000
    899    903    905     1   109.8800469 414.216000
    899    906    907     1   109.8800469 414.216000
    899    906    908     1   109.8800469 414.216000
    900    912    913     1   109.8000471 387.438400
    900    912    914     1   109.8000471 387.438400
    901    900    912     1   109.5600471 388.275200
    901    900    902     1   108.4600466 328.025600
    902    900    912     1   109.5600471 388.275200
    903    915    916     1   109.8000471 387.438400
    903    915    917     1   109.8000471 387.438400
    904    903    915     1   109.5600471 388.275200
    904    903    905     1   108.4600466 328.025600
    905    903    915     1   109.5600471 388.275200
    906    909    910     1   109.8000471 387.438400
    906    909    911     1   109.8000471 387.438400
    907    906    909     1   109.5600471 388.275200
    907    906    908     1   108.4600466 328.025600
    908    906    909     1   109.5600471 388.275200
    909    918    919     1   109.5600471 388.275200
    909    918    920     1   109.5600471 388.275200
    910    909    918     1   109.8000471 387.438400
    910    909    911     1   107.5800459 329.699200
    911    909    918     1   109.8000471 387.438400
    912    924    925     1   109.5600471 388.275200
    912    924    926     1   109.5600471 388.275200
    913    912    924     1   109.8000471 387.438400
    913    912    914     1   107.5800459 329.699200
    914    912    924     1   109.8000471 387.438400
    915    921    922     1   109.5600471 388.275200
    915    921    923     1   109.5600471 388.275200
    916    915    921     1   109.8000471 387.438400
    916    915    917     1   107.5800459 329.699200
    917    915    921     1   109.8000471 387.438400
    919    918    927     1   109.7800468 425.094400
    919    918    920     1   108.4600466 328.025600
    920    918    927     1   109.7800468 425.094400
    922    921   1884     1   109.7800468 425.094400
    922    921    923     1   108.4600466 328.025600
    923    921   1884     1   109.7800468 425.094400
    925    924   1913     1   109.7800468 425.094400
    925    924    926     1   108.4600466 328.025600
    926    924   1913     1   109.7800468 425.094400
    928    929    930     1   109.8800469 414.216000
    928    929    931     1   109.8800469 414.216000
    928    932    933     1   109.8800469 414.216000
    928    932    934     1   109.8800469 414.216000
    928    935    936     1   109.8800469 414.216000
    928    935    937     1   109.8800469 414.216000
    929    941    942     1   109.8000471 387.438400
    929    941    943     1   109.8000471 387.438400
    930    929    941     1   109.5600471 388.275200
    930    929    931     1   108.4600466 328.025600
    931    929    941     1   109.5600471 388.275200
    932    944    945     1   109.8000471 387.438400
    932    944    946     1   109.8000471 387.438400
    933    932    944     1   109.5600471 388.275200
    933    932    934     1   108.4600466 328.025600
    934    932    944     1   109.5600471 388.275200
    935    938    939     1   109.8000471 387.438400
    935    938    940     1   109.8000471 387.438400
    936    935    938     1   109.5600471 388.275200
    936    935    937     1   108.4600466 328.025600
    937    935    938     1   109.5600471 388.275200
    938    947    948     1   109.5600471 388.275200
    938    947    949     1   109.5600471 388.275200
    939    938    947     1   109.8000471 387.438400
    939    938    940     1   107.5800459 329.699200
    940    938    947     1   109.8000471 387.438400
    941    953    954     1   109.5600471 388.275200
    941    953    955     1   109.5600471 388.275200
    942    941    953     1   109.8000471 387.438400
    942    941    943     1   107.5800459 329.699200
    943    941    953     1   109.8000471 387.438400
    944    950    951     1   109.5600471 388.275200
    944    950    952     1   109.5600471 388.275200
    945    944    950     1   109.8000471 387.438400
    945    944    946     1   107.5800459 329.699200
    946    944    950     1   109.8000471 387.438400
    948    947    956     1   109.7800468 425.094400
    948    947    949     1   108.4600466 328.025600
    949    947    956     1   109.7800468 425.094400
    951    950   1942     1   109.7800468 425.094400
    951    950    952     1   108.4600466 328.025600
    952    950   1942     1   109.7800468 425.094400
    954    953   1971     1   109.7800468 425.094400
    954    953    955     1   108.4600466 328.025600
    955    953   1971     1   109.7800468 425.094400
    957    958    959     1   109.8800469 414.216000
    957    958    960     1   109.8800469 414.216000
    957    961    962     1   109.8800469 414.216000
    957    961    963     1   109.8800469 414.216000
    957    964    965     1   109.8800469 414.216000
    957    964    966     1   109.8800469 414.216000
    958    970    971     1   109.8000471 387.438400
    958    970    972     1   109.8000471 387.438400
    959    958    970     1   109.5600471 388.275200
    959    958    960     1   108.4600466 328.025600
    960    958    970     1   109.5600471 388.275200
    961    973    974     1   109.8000471 387.438400
    961    973    975     1   109.8000471 387.438400
    962    961    973     1   109.5600471 388.275200
    962    961    963     1   108.4600466 328.025600
    963    961    973     1   109.5600471 388.275200
    964    967    968     1   109.8000471 387.438400
    964    967    969     1   109.8000471 387.438400
    965    964    967     1   109.5600471 388.275200
    965    964    966     1   108.4600466 328.025600
    966    964    967     1   109.5600471 388.275200
    967    976    977     1   109.5600471 388.275200
    967    976    978     1   109.5600471 388.275200
    968    967    976     1   109.8000471 387.438400
    968    967    969     1   107.5800459 329.699200
    969    967    976     1   109.8000471 387.438400
    970    982    983     1   109.5600471 388.275200
    970    982    984     1   109.5600471 388.275200
    971    970    982     1   109.8000471 387.438400
    971    970    972     1   107.5800459 329.699200
    972    970    982     1   109.8000471 387.438400
    973    979    980     1   109.5600471 388.275200
    973    979    981     1   109.5600471 388.275200
    974    973    979     1   109.8000471 387.438400
    974    973    975     1   107.5800459 329.699200
    975    973    979     1   109.8000471 387.438400
    977    976    985     1   109.7800468 425.094400
    977    976    978     1   108.4600466 328.025600
    978    976    985     1   109.7800468 425.094400
    980    979   2000     1   109.7800468 425.094400
    980    979    981     1   108.4600466 328.025600
    981    979   2000     1   109.7800468 425.094400
    983    982   2029     1   109.7800468 425.094400
    983    982    984     1   108.4600466 328.025600
    984    982   2029     1   109.7800468 425.094400
    986    987    988     1   109.8800469 414.216000
    986    987    989     1   109.8800469 414.216000
    986    990    991     1   109.8800469 414.216000
    986    990    992     1   109.8800469 414.216000
    986    993    994     1   109.8800469 414.216000
    986    993    995     1   109.8800469 414.216000
    987    999   1000     1   109.8000471 387.438400
    987    999   1001     1   109.8000471 387.438400
    988    987    999     1   109.5600471 388.275200
    988    987    989     1   108.4600466 328.025600
    989    987    999     1   109.5600471 388.275200
    990   1002   1003     1   109.8000471 387.438400
    990   1002   1004     1   109.8000471 387.438400
    991    990   1002     1   109.5600471 388.275200
    991    990    992     1   108.4600466 328.025600
    992    990   1002     1   109.5600471 388.275200
    993    996    997     1   109.8000471 387.438400
    993    996    998     1   109.8000471 387.438400
    994    993    996     1   109.5600471 388.275200
    994    993    995     1   108.4600466 328.025600
    995    993    996     1   109.5600471 388.275200
    996   1005   1006     1   109.5600471 388.275200
    996   1005   1007     1   109.5600471 388.275200
    997    996   1005     1   109.8000471 387.438400
    997    996    998     1   107.5800459 329.699200
    998    996   1005     1   109.8000471 387.438400
    999   1011   1012     1   109.5600471 388.275200
    999   1011   1013     1   109.5600471 388.275200
   1000    999   1011     1   109.8000471 387.438400
   1000    999   1001     1   107.5800459 329.699200
   1001    999   1011     1   109.8000471 387.438400
   1002   1008   1009     1   109.5600471 388.275200
   1002   1008   1010     1   109.5600471 388.275200
   1003   1002   1008     1   109.8000471 387.438400
   1003   1002   1004     1   107.5800459 329.699200
   1004   1002   1008     1   109.8000471 387.438400
   1006   1005   1014     1   109.7800468 425.094400
   1006   1005   1007     1   108.4600466 328.025600
   1007   1005   1014     1   109.7800468 425.094400
   1009   1008   2058     1   109.7800468 425.094400
   1009   1008   1010     1   108.4600466 328.025600
   1010   1008   2058     1   109.7800468 425.094400
   1012   1011   2087     1   109.7800468 425.094400
   1012   1011   1013     1   108.4600466 328.025600
   1013   1011   2087     1   109.7800468 425.094400
   1015   1016   1017     1   109.8800469 414.216000
   1015   1016   1018     1   109.8800469 414.216000
   1015   1019   1020     1   109.8800469 414.216000
   1015   1019   1021     1   109.8800469 414.216000
   1015   1022   1023     1   109.8800469 414.216000
   1015   1022   1024     1   109.8800469 414.216000
   1016   1028   1029     1   109.8000471 387.438400
   1016   1028   1030     1   109.8000471 387.438400
   1017   1016   1028     1   109.5600471 388.275200
   1017   1016   1018     1   108.4600466 328.025600
   1018   1016   1028     1   109.5600471 388.275200
   1019   1031   1032     1   109.8000471 387.438400
   1019   1031   1033     1   109.8000471 387.438400
   1020   1019   1031     1   109.5600471 388.275200
   1020   1019   1021     1   108.4600466 328.025600
   1021   1019   1031     1   109.5600471 388.275200
   1022   1025   1026     1   109.8000471 387.438400
   1022   1025   1027     1   109.8000471 387.438400
   1023   1022   1025     1   109.5600471 388.275200
   1023   1022   1024     1   108.4600466 328.025600
   1024   1022   1025     1   109.5600471 388.275200
   1025   1034   1035     1   109.5600471 388.275200
   1025   1034   1036     1   109.5600471 388.275200
   1026   1025   1034     1   109.8000471 387.438400
   1026   1025   1027     1   107.5800459 329.699200
   1027   1025   1034     1   109.8000471 387.438400
   1028   1040   1041     1   109.5600471 388.275200
   1028   1040   1042     1   109.5600471 388.275200
   1029   1028   1040     1   109.8000471 387.438400
   1029   1028   1030     1   107.5800459 329.699200
   1030   1028   1040     1   109.8000471 387.438400
   1031   1037   1038     1   109.5600471 388.275200
   1031   1037   1039     1   109.5600471 388.275200
   1032   1031   1037     1   109.8000471 387.438400
   1032   1031   1033     1   107.5800459 329.699200
   1033   1031   1037     1   109.8000471 387.438400
   1035   1034   1043     1   109.7800468 425.094400
   1035   1034   1036     1   108.4600466 328.025600
   1036   1034   1043     1   109.7800468 425.094400
   1038   1037   2116     1   109.7800468 425.094400
   1038   1037   1039     1   108.4600466 328.025600
   1039   1037   2116     1   109.7800468 425.094400
   1041   1040   2145     1   109.7800468 425.094400
   1041   1040   1042     1   108.4600466 328.025600
   1042   1040   2145     1   109.7800468 425.094400
   1044   1045   1046     1   109.8800469 414.216000
   1044   1045   1047     1   109.8800469 414.216000
   1044   1048   1049     1   109.8800469 414.216000
   1044   1048   1050     1   109.8800469 414.216000
   1044   1051   1052     1   109.8800469 414.216000
   1044   1051   1053     1   109.8800469 414.216000
   1045   1057   1058     1   109.8000471 387.438400
   1045   1057   1059     1   109.8000471 387.438400
   1046   1045   1057     1   109.5600471 388.275200
   1046   1045   1047     1   108.4600466 328.025600
   1047   1045   1057     1   109.5600471 388.275200
   1048   1060   1061     1   109.8000471 387.438400
   1048   1060   1062     1   109.8000471 387.438400
   1049   1048   1060     1   109.5600471 388.275200
   1049   1048   1050     1   108.4600466 328.025600
   1050   1048   1060     1   109.5600471 388.275200
   1051   1054   1055     1   109.8000471 387.438400
   1051   1054   1056     1   109.8000471 387.438400
   1052   1051   1054     1   109.5600471 388.275200
   1052   1051   1053     1   108.4600466 328.025600
   1053   1051   1054     1   109.5600471 388.275200
   1054   1063   1064     1   109.5600471 388.275200
   1054   1063   1065     1   109.5600471 388.275200
   1055   1054   1063     1   109.8000471 387.438400
   1055   1054   1056     1   107.5800459 329.699200
   1056   1054   1063     1   109.8000471 387.438400
   1057   1069   1070     1   109.5600471 388.275200
   1057   1069   1071     1   109.5600471 388.275200
   1058   1057   1069     1   109.8000471 387.438400
   1058   1057   1059     1   107.5800459 329.699200
   1059   1057   1069     1   109.8000471 387.438400
   1060   1066   1067     1   109.5600471 388.275200
   1060   1066   1068     1   109.5600471 388.275200
   1061   1060   1066     1   109.8000471 387.438400
   1061   1060   1062     1   107.5800459 329.699200
   1062   1060   1066     1   109.8000471 387.438400
   1064   1063   1072     1   109.7800468 425.094400
   1064   1063   1065     1   108.4600466 328.025600
   1065   1063   1072     1   109.7800468 425.094400
   1067   1066   2174     1   109.7800468 425.094400
   1067   1066   1068     1   108.4600466 328.025600
   1068   1066   2174     1   109.7800468 425.094400
   1070   1069   2203     1   109.7800468 425.094400
   1070   1069   1071     1   108.4600466 328.025600
   1071   1069   2203     1   109.7800468 425.094400
   1073   1074   1075     1   109.8800469 414.216000
   1073   1074   1076     1   109.8800469 414.216000
   1073   1077   1078     1   109.8800469 414.216000
   1073   1077   1079     1   109.8800469 414.216000
   1073   1080   1081     1   109.8800469 414.216000
   1073   1080   1082     1   109.8800469 414.216000
   1074   1086   1087     1   109.8000471 387.438400
   1074   1086   1088     1   109.8000471 387.438400
   1075   1074   1086     1   109.5600471 388.275200
   1075   1074   1076     1   108.4600466 328.025600
   1076   1074   1086     1   109.5600471 388.275200
   1077   1089   1090     1   109.8000471 387.438400
   1077   1089   1091     1   109.8000471 387.438400
   1078   1077   1089     1   109.5600471 388.275200
   1078   1077   1079     1   108.4600466 328.025600
   1079   1077   1089     1   109.5600471 388.275200
   1080   1083   1084     1   109.8000471 387.438400
   1080   1083   1085     1   109.8000471 387.438400
   1081   1080   1083     1   109.5600471 388.275200
   1081   1080   1082     1   108.4600466 328.025600
   1082   1080   1083     1   109.5600471 388.275200
   1083   1092   1093     1   109.5600471 388.275200
   1083   1092   1094     1   109.5600471 388.275200
   1084   1083   1092     1   109.8000471 387.438400
   1084   1083   1085     1   107.5800459 329.699200
   1085   1083   1092     1   109.8000471 387.438400
   1086   1098   1099     1   109.5600471 388.275200
   1086   1098   1100     1   109.5600471 388.275200
   1087   1086   1098     1   109.8000471 387.438400
   1087   1086   1088     1   107.5800459 329.699200
   1088   1086   1098     1   109.8000471 387.438400
   1089   1095   1096     1   109.5600471 388.275200
   1089   1095   1097     1   109.5600471 388.275200
   1090   1089   1095     1   109.8000471 387.438400
   1090   1089   1091     1   107.5800459 329.699200
   1091   1089   1095     1   109.8000471 387.438400
   1093   1092   1101     1   109.7800468 425.094400
   1093   1092   1094     1   108.4600466 328.025600
   1094   1092   1101     1   109.7800468 425.094400
   1096   1095   2232     1   109.7800468 425.094400
   1096   1095   1097     1   108.4600466 328.025600
   1097   1095   2232     1   109.7800468 425.094400
   1099   1098   2261     1   109.7800468 425.094400
   1099   1098   1100     1   108.4600466 328.025600
   1100   1098   2261     1   109.7800468 425.094400
   1102   1103   1104     1   109.8800469 414.216000
   1102   1103   1105     1   109.8800469 414.216000
   1102   1106   1107     1   109.8800469 414.216000
   1102   1106   1108     1   109.8800469 414.216000
   1102   1109   1110     1   109.8800469 414.216000
   1102   1109   1111     1   109.8800469 414.216000
   1103   1115   1116     1   109.8000471 387.438400
   1103   1115   1117     1   109.8000471 387.438400
   1104   1103   1115     1   109.5600471 388.275200
   1104   1103   1105     1   108.4600466 328.025600
   1105   1103   1115     1   109.5600471 388.275200
   1106   1118   1119     1   109.8000471 387.438400
   1106   1118   1120     1   109.8000471 387.438400
   1107   1106   1118     1   109.5600471 388.275200
   1107   1106   1108     1   108.4600466 328.025600
   1108   1106   1118     1   109.5600471 388.275200
   1109   1112   1113     1   109.8000471 387.438400
   1109   1112   1114     1   109.8000471 387.438400
   1110   1109   1112     1   109.5600471 388.275200
   1110   1109   1111     1   108.4600466 328.025600
   1111   1109   1112     1   109.5600471 388.275200
   1112   1121   1122     1   109.5600471 388.275200
   1112   1121   1123     1   109.5600471 388.275200
   1113   1112   1121     1   109.8000471 387.438400
   1113   1112   1114     1   107.5800459 329.699200
   1114   1112   1121     1   109.8000471 387.438400
   1115   1127   1128     1   109.5600471 388.275200
   1115   1127   1129     1   109.5600471 388.275200
   1116   1115   1127     1   109.8000471 387.438400
   1116   1115   1117     1   107.5800459 329.699200
   1117   1115   1127     1   109.8000471 387.438400
   1118   1124   1125     1   109.5600471 388.275200
   1118   1124   1126     1   109.5600471 388.275200
   1119   1118   1124     1   109.8000471 387.438400
   1119   1118   1120     1   107.5800459 329.699200
   1120   1118   1124     1   109.8000471 387.438400
   1122   1121   1130     1   109.7800468 425.094400
   1122   1121   1123     1   108.4600466 328.025600
   1123   1121   1130     1   109.7800468 425.094400
   1125   1124   2290     1   109.7800468 425.094400
   1125   1124   1126     1   108.4600466 328.025600
   1126   1124   2290     1   109.7800468 425.094400
   1128   1127   2319     1   109.7800468 425.094400
   1128   1127   1129     1   108.4600466 328.025600
   1129   1127   2319     1   109.7800468 425.094400
   1131   1132   1133     1   109.8800469 414.216000
   1131   1132   1134     1   109.8800469 414.216000
   1131   1135   1136     1   109.8800469 414.216000
   1131   1135   1137     1   109.8800469 414.216000
   1131   1138   1139     1   109.8800469 414.216000
   1131   1138   1140     1   109.8800469 414.216000
   1132   1144   1145     1   109.8000471 387.438400
   1132   1144   1146     1   109.8000471 387.438400
   1133   1132   1144     1   109.5600471 388.275200
   1133   1132   1134     1   108.4600466 328.025600
   1134   1132   1144     1   109.5600471 388.275200
   1135   1147   1148     1   109.8000471 387.438400
   1135   1147   1149     1   109.8000471 387.438400
   1136   1135   1147     1   109.5600471 388.275200
   1136   1135   1137     1   108.4600466 328.025600
   1137   1135   1147     1   109.5600471 388.275200
   1138   1141   1142     1   109.8000471 387.438400
   1138   1141   1143     1   109.8000471 387.438400
   1139   1138   1141     1   109.5600471 388.275200
   1139   1138   1140     1   108.4600466 328.025600
   1140   1138   1141     1   109.5600471 388.275200
   1141   1150   1151     1   109.5600471 388.275200
   1141   1150   1152     1   109.5600471 388.275200
   1142   1141   1150     1   109.8000471 387.438400
   1142   1141   1143     1   107.5800459 329.699200
   1143   1141   1150     1   109.8000471 387.438400
   1144   1156   1157     1   109.5600471 388.275200
   1144   1156   1158     1   109.5600471 388.275200
   1145   1144   1156     1   109.8000471 387.438400
   1145   1144   1146     1   107.5800459 329.699200
   1146   1144   1156     1   109.8000471 387.438400
   1147   1153   1154     1   109.5600471 388.275200
   1147   1153   1155     1   109.5600471 388.275200
   1148   1147   1153     1   109.8000471 387.438400
   1148   1147   1149     1   107.5800459 329.699200
   1149   1147   1153     1   109.8000471 387.438400
   1151   1150   1159     1   109.7800468 425.094400
   1151   1150   1152     1   108.4600466 328.025600
   1152   1150   1159     1   109.7800468 425.094400
   1154   1153   2348     1   109.7800468 425.094400
   1154   1153   1155     1   108.4600466 328.025600
   1155   1153   2348     1   109.7800468 425.094400
   1157   1156   2377     1   109.7800468 425.094400
   1157   1156   1158     1   108.4600466 328.025600
   1158   1156   2377     1   109.7800468 425.094400
   1160   1161   1162     1   109.8800469 414.216000
   1160   1161   1163     1   109.8800469 414.216000
   1160   1164   1165     1   109.8800469 414.216000
   1160   1164   1166     1   109.8800469 414.216000
   1160   1167   1168     1   109.8800469 414.216000
   1160   1167   1169     1   109.8800469 414.216000
   1161   1173   1174     1   109.8000471 387.438400
   1161   1173   1175     1   109.8000471 387.438400
   1162   1161   1173     1   109.5600471 388.275200
   1162   1161   1163     1   108.4600466 328.025600
   1163   1161   1173     1   109.5600471 388.275200
   1164   1176   1177     1   109.8000471 387.438400
   1164   1176   1178     1   109.8000471 387.438400
   1165   1164   1176     1   109.5600471 388.275200
   1165   1164   1166     1   108.4600466 328.025600
   1166   1164   1176     1   109.5600471 388.275200
   1167   1170   1171     1   109.8000471 387.438400
   1167   1170   1172     1   109.8000471 387.438400
   1168   1167   1170     1   109.5600471 388.275200
   1168   1167   1169     1   108.4600466 328.025600
   1169   1167   1170     1   109.5600471 388.275200
   1170   1179   1180     1   109.5600471 388.275200
   1170   1179   1181     1   109.5600471 388.275200
   1171   1170   1179     1   109.8000471 387.438400
   1171   1170   1172     1   107.5800459 329.699200
   1172   1170   1179     1   109.8000471 387.438400
   1173   1185   1186     1   109.5600471 388.275200
   1173   1185   1187     1   109.5600471 388.275200
   1174   1173   1185     1   109.8000471 387.438400
   1174   1173   1175     1   107.5800459 329.699200
   1175   1173   1185     1   109.8000471 387.438400
   1176   1182   1183     1   109.5600471 388.275200
   1176   1182   1184     1   109.5600471 388.275200
   1177   1176   1182     1   109.8000471 387.438400
   1177   1176   1178     1   107.5800459 329.699200
   1178   1176   1182     1   109.8000471 387.438400
   1180   1179   1188     1   109.7800468 425.094400
   1180   1179   1181     1   108.4600466 328.025600
   1181   1179   1188     1   109.7800468 425.094400
   1183   1182   2406     1   109.7800468 425.094400
   1183   1182   1184     1   108.4600466 328.025600
   1184   1182   2406     1   109.7800468 425.094400
   1186   1185   2435     1   109.7800468 425.094400
   1186   1185   1187     1   108.4600466 328.025600
   1187   1185   2435     1   109.7800468 425.094400
   1189   1190   1191     1   109.8800469 414.216000
   1189   1190   1192     1   109.8800469 414.216000
   1189   1193   1194     1   109.8800469 414.216000
   1189   1193   1195     1   109.8800469 414.216000
   1189   1196   1197     1   109.8800469 414.216000
   1189   1196   1198     1   109.8800469 414.216000
   1190   1202   1203     1   109.8000471 387.438400
   1190   1202   1204     1   109.8000471 387.438400
   1191   1190   1202     1   109.5600471 388.275200
   1191   1190   1192     1   108.4600466 328.025600
   1192   1190   1202     1   109.5600471 388.275200
   1193   1205   1206     1   109.8000471 387.438400
   1193   1205   1207     1   109.8000471 387.438400
   1194   1193   1205     1   109.5600471 388.275200
   1194   1193   1195     1   108.4600466 328.025600
   1195   1193   1205     1   109.5600471 388.275200
   1196   1199   1200     1   109.8000471 387.438400
   1196   1199   1201     1   109.8000471 387.438400
   1197   1196   1199     1   109.5600471 388.275200
   1197   1196   1198     1   108.4600466 328.025600
   1198   1196   1199     1   109.5600471 388.275200
   1199   1208   1209     1   109.5600471 388.275200
   1199   1208   1210     1   109.5600471 388.275200
   1200   1199   1208     1   109.8000471 387.438400
   1200   1199   1201     1   107.5800459 329.699200
   1201   1199   1208     1   109.8000471 387.438400
   1202   1214   1215     1   109.5600471 388.275200
   1202   1214   1216     1   109.5600471 388.275200
   1203   1202   1214     1   109.8000471 387.438400
   1203   1202   1204     1   107.5800459 329.699200
   1204   1202   1214     1   109.8000471 387.438400
   1205   1211   1212     1   109.5600471 388.275200
   1205   1211   1213     1   109.5600471 388.275200
   1206   1205   1211     1   109.8000471 387.438400
   1206   1205   1207     1   107.5800459 329.699200
   1207   1205   1211     1   109.8000471 387.438400
   1209   1208   1217     1   109.7800468 425.094400
   1209   1208   1210     1   108.4600466 328.025600
   1210   1208   1217     1   109.7800468 425.094400
   1212   1211   2464     1   109.7800468 425.094400
   1212   1211   1213     1   108.4600466 328.025600
   1213   1211   2464     1   109.7800468 425.094400
   1215   1214   2493     1   109.7800468 425.094400
   1215   1214   1216     1   108.4600466 328.025600
   1216   1214   2493     1   109.7800468 425.094400
   1218   1219   1220     1   109.8800469 414.216000
   1218   1219   1221     1   109.8800469 414.216000
   1218   1222   1223     1   109.8800469 414.216000
   1218   1222   1224     1   109.8800469 414.216000
   1218   1225   1226     1   109.8800469 414.216000
   1218   1225   1227     1   109.8800469 414.216000
   1219   1231   1232     1   109.8000471 387.438400
   1219   1231   1233     1   109.8000471 387.438400
   1220   1219   1231     1   109.5600471 388.275200
   1220   1219   1221     1   108.4600466 328.025600
   1221   1219   1231     1   109.5600471 388.275200
   1222   1234   1235     1   109.8000471 387.438400
   1222   1234   1236     1   109.8000471 387.438400
   1223   1222   1234     1   109.5600471 388.275200
   1223   1222   1224     1   108.4600466 328.025600
   1224   1222   1234     1   109.5600471 388.275200
   1225   1228   1229     1   109.8000471 387.438400
   1225   1228   1230     1   109.8000471 387.438400
   1226   1225   1228     1   109.5600471 388.275200
   1226   1225   1227     1   108.4600466 328.025600
   1227   1225   1228     1   109.5600471 388.275200
   1228   1237   1238     1   109.5600471 388.275200
   1228   1237   1239     1   109.5600471 388.275200
   1229   1228   1237     1   109.8000471 387.438400
   1229   1228   1230     1   107.5800459 329.699200
   1230   1228   1237     1   109.8000471 387.438400
   1231   1243   1244     1   109.5600471 388.275200
   1231   1243   1245     1   109.5600471 388.275200
   1232   1231   1243     1   109.8000471 387.438400
   1232   1231   1233     1   107.5800459 329.699200
   1233   1231   1243     1   109.8000471 387.438400
   1234   1240   1241     1   109.5600471 388.275200
   1234   1240   1242     1   109.5600471 388.275200
   1235   1234   1240     1   109.8000471 387.438400
   1235   1234   1236     1   107.5800459 329.699200
   1236   1234   1240     1   109.8000471 387.438400
   1238   1237   1246     1   109.7800468 425.094400
   1238   1237   1239     1   108.4600466 328.025600
   1239   1237   1246     1   109.7800468 425.094400
   1241   1240   2522     1   109.7800468 425.094400
   1241   1240   1242     1   108.4600466 328.025600
   1242   1240   2522     1   109.7800468 425.094400
   1244   1243   2551     1   109.7800468 425.094400
   1244   1243   1245     1   108.4600466 328.025600
   1245   1243   2551     1   109.7800468 425.094400
   1247   1248   1249     1   109.8800469 414.216000
   1247   1248   1250     1   109.8800469 414.216000
   1247   1251   1252     1   109.8800469 414.216000
   1247   1251   1253     1   109.8800469 414.216000
   1247   1254   1255     1   109.8800469 414.216000
   1247   1254   1256     1   109.8800469 414.216000
   1248   1260   1261     1   109.8000471 387.438400
   1248   1260   1262     1   109.8000471 387.438400
   1249   1248   1260     1   109.5600471 388.275200
   1249   1248   1250     1   108.4600466 328.025600
   1250   1248   1260     1   109.5600471 388.275200
   1251   1263   1264     1   109.8000471 387.438400
   1251   1263   1265     1   109.8000471 387.438400
   1252   1251   1263     1   109.5600471 388.275200
   1252   1251   1253     1   108.4600466 328.025600
   1253   1251   1263     1   109.5600471 388.275200
   1254   1257   1258     1   109.8000471 387.438400
   1254   1257   1259     1   109.8000471 387.438400
   1255   1254   1257     1   109.5600471 388.275200
   1255   1254   1256     1   108.4600466 328.025600
   1256   1254   1257     1   109.5600471 388.275200
   1257   1266   1267     1   109.5600471 388.275200
   1257   1266   1268     1   109.5600471 388.275200
   1258   1257   1266     1   109.8000471 387.438400
   1258   1257   1259     1   107.5800459 329.699200
   1259   1257   1266     1   109.8000471 387.438400
   1260   1272   1273     1   109.5600471 388.275200
   1260   1272   1274     1   109.5600471 388.275200
   1261   1260   1272     1   109.8000471 387.438400
   1261   1260   1262     1   107.5800459 329.699200
   1262   1260   1272     1   109.8000471 387.438400
   1263   1269   1270     1   109.5600471 388.275200
   1263   1269   1271     1   109.5600471 388.275200
   1264   1263   1269     1   109.8000471 387.438400
   1264   1263   1265     1   107.5800459 329.699200
   1265   1263   1269     1   109.8000471 387.438400
   1267   1266   1275     1   109.7800468 425.094400
   1267   1266   1268     1   108.4600466 328.025600
   1268   1266   1275     1   109.7800468 425.094400
   1270   1269   2580     1   109.7800468 425.094400
   1270   1269   1271     1   108.4600466 328.025600
   1271   1269   2580     1   109.7800468 425.094400
   1273   1272   2609     1   109.7800468 425.094400
   1273   1272   1274     1   108.4600466 328.025600
   1274   1272   2609     1   109.7800468 425.094400
   1276   1277   1278     1   109.8800469 414.216000
   1276   1277   1279     1   109.8800469 414.216000
   1276   1280   1281     1   109.8800469 414.216000
   1276   1280   1282     1   109.8800469 414.216000
   1276   1283   1284     1   109.8800469 414.216000
   1276   1283   1285     1   109.8800469 414.216000
   1277   1289   1290     1   109.8000471 387.438400
   1277   1289   1291     1   109.8000471 387.438400
   1278   1277   1289     1   109.5600471 388.275200
   1278   1277   1279     1   108.4600466 328.025600
   1279   1277   1289     1   109.5600471 388.275200
   1280   1292   1293     1   109.8000471 387.438400
   1280   1292   1294     1   109.8000471 387.438400
   1281   1280   1292     1   109.5600471 388.275200
   1281   1280   1282     1   108.4600466 328.025600
   1282   1280   1292     1   109.5600471 388.275200
   1283   1286   1287     1   109.8000471 387.438400
   1283   1286   1288     1   109.8000471 387.438400
   1284   1283   1286     1   109.5600471 388.275200
   1284   1283   1285     1   108.4600466 328.025600
   1285   1283   1286     1   109.5600471 388.275200
   1286   1295   1296     1   109.5600471 388.275200
   1286   1295   1297     1   109.5600471 388.275200
   1287   1286   1295     1   109.8000471 387.438400
   1287   1286   1288     1   107.5800459 329.699200
   1288   1286   1295     1   109.8000471 387.438400
   1289   1301   1302     1   109.5600471 388.275200
   1289   1301   1303     1   109.5600471 388.275200
   1290   1289   1301     1   109.8000471 387.438400
   1290   1289   1291     1   107.5800459 329.699200
   1291   1289   1301     1   109.8000471 387.438400
   1292   1298   1299     1   109.5600471 388.275200
   1292   1298   1300     1   109.5600471 388.275200
   1293   1292   1298     1   109.8000471 387.438400
   1293   1292   1294     1   107.5800459 329.699200
   1294   1292   1298     1   109.8000471 387.438400
   1296   1295   1304     1   109.7800468 425.094400
   1296   1295   1297     1   108.4600466 328.025600
   1297   1295   1304     1   109.7800468 425.094400
   1299   1298   2638     1   109.7800468 425.094400
   1299   1298   1300     1   108.4600466 328.025600
   1300   1298   2638     1   109.7800468 425.094400
   1302   1301   2667     1   109.7800468 425.094400
   1302   1301   1303     1   108.4600466 328.025600
   1303   1301   2667     1   109.7800468 425.094400
   1305   1306   1307     1   109.8800469 414.216000
   1305   1306   1308     1   109.8800469 414.216000
   1305   1309   1310     1   109.8800469 414.216000
   1305   1309   1311     1   109.8800469 414.216000
   1305   1312   1313     1   109.8800469 414.216000
   1305   1312   1314     1   109.8800469 414.216000
   1306   1318   1319     1   109.8000471 387.438400
   1306   1318   1320     1   109.8000471 387.438400
   1307   1306   1318     1   109.5600471 388.275200
   1307   1306   1308     1   108.4600466 328.025600
   1308   1306   1318     1   109.5600471 388.275200
   1309   1321   1322     1   109.8000471 387.438400
   1309   1321   1323     1   109.8000471 387.438400
   1310   1309   1321     1   109.5600471 388.275200
   1310   1309   1311     1   108.4600466 328.025600
   1311   1309   1321     1   109.5600471 388.275200
   1312   1315   1316     1   109.8000471 387.438400
   1312   1315   1317     1   109.8000471 387.438400
   1313   1312   1315     1   109.5600471 388.275200
   1313   1312   1314     1   108.4600466 328.025600
   1314   1312   1315     1   109.5600471 388.275200
   1315   1324   1325     1   109.5600471 388.275200
   1315   1324   1326     1   109.5600471 388.275200
   1316   1315   1324     1   109.8000471 387.438400
   1316   1315   1317     1   107.5800459 329.699200
   1317   1315   1324     1   109.8000471 387.438400
   1318   1330   1331     1   109.5600471 388.275200
   1318   1330   1332     1   109.5600471 388.275200
   1319   1318   1330     1   109.8000471 387.438400
   1319   1318   1320     1   107.5800459 329.699200
   1320   1318   1330     1   109.8000471 387.438400
   1321   1327   1328     1   109.5600471 388.275200
   1321   1327   1329     1   109.5600471 388.275200
   1322   1321   1327     1   109.8000471 387.438400
   1322   1321   1323     1   107.5800459 329.699200
   1323   1321   1327     1   109.8000471 387.438400
   1325   1324   1333     1   109.7800468 425.094400
   1325   1324   1326     1   108.4600466 328.025600
   1326   1324   1333     1   109.7800468 425.094400
   1328   1327   2696     1   109.7800468 425.094400
   1328   1327   1329     1   108.4600466 328.025600
   1329   1327   2696     1   109.7800468 425.094400
   1331   1330   2725     1   109.7800468 425.094400
   1331   1330   1332     1   108.4600466 328.025600
   1332   1330   2725     1   109.7800468 425.094400
   1334   1335   1336     1   109.8800469 414.216000
   1334   1335   1337     1   109.8800469 414.216000
   1334   1338   1339     1   109.8800469 414.216000
   1334   1338   1340     1   109.8800469 414.216000
   1334   1341   1342     1   109.8800469 414.216000
   1334   1341   1343     1   109.8800469 414.216000
   1335   1347   1348     1   109.8000471 387.438400
   1335   1347   1349     1   109.8000471 387.438400
   1336   1335   1347     1   109.5600471 388.275200
   1336   1335   1337     1   108.4600466 328.025600
   1337   1335   1347     1   109.5600471 388.275200
   1338   1350   1351     1   109.8000471 387.438400
   1338   1350   1352     1   109.8000471 387.438400
   1339   1338   1350     1   109.5600471 388.275200
   1339   1338   1340     1   108.4600466 328.025600
   1340   1338   1350     1   109.5600471 388.275200
   1341   1344   1345     1   109.8000471 387.438400
   1341   1344   1346     1   109.8000471 387.438400
   1342   1341   1344     1   109.5600471 388.275200
   1342   1341   1343     1   108.4600466 328.025600
   1343   1341   1344     1   109.5600471 388.275200
   1344   1353   1354     1   109.5600471 388.275200
   1344   1353   1355     1   109.5600471 388.275200
   1345   1344   1353     1   109.8000471 387.438400
   1345   1344   1346     1   107.5800459 329.699200
   1346   1344   1353     1   109.8000471 387.438400
   1347   1359   1360     1   109.5600471 388.275200
   1347   1359   1361     1   109.5600471 388.275200
   1348   1347   1359     1   109.8000471 387.438400
   1348   1347   1349     1   107.5800459 329.699200
   1349   1347   1359     1   109.8000471 387.438400
   1350   1356   1357     1   109.5600471 388.275200
   1350   1356   1358     1   109.5600471 388.275200
   1351   1350   1356     1   109.8000471 387.438400
   1351   1350   1352     1   107.5800459 329.699200
   1352   1350   1356     1   109.8000471 387.438400
   1354   1353   1362     1   109.7800468 425.094400
   1354   1353   1355     1   108.4600466 328.025600
   1355   1353   1362     1   109.7800468 425.094400
   1357   1356   2736     1   109.7800468 425.094400
   1357   1356   1358     1   108.4600466 328.025600
   1358   1356   2736     1   109.7800468 425.094400
   1360   1359   2759     1   109.7800468 425.094400
   1360   1359   1361     1   108.4600466 328.025600
   1361   1359   2759     1   109.7800468 425.094400
   1363   1364   1365     1   109.8800469 414.216000
   1363   1364   1366     1   109.8800469 414.216000
   1363   1367   1368     1   109.8800469 414.216000
   1363   1367   1369     1   109.8800469 414.216000
   1363   1370   1371     1   109.8800469 414.216000
   1363   1370   1372     1   109.8800469 414.216000
   1364   1376   1377     1   109.8000471 387.438400
   1364   1376   1378     1   109.8000471 387.438400
   1365   1364   1376     1   109.5600471 388.275200
   1365   1364   1366     1   108.4600466 328.025600
   1366   1364   1376     1   109.5600471 388.275200
   1367   1379   1380     1   109.8000471 387.438400
   1367   1379   1381     1   109.8000471 387.438400
   1368   1367   1379     1   109.5600471 388.275200
   1368   1367   1369     1   108.4600466 328.025600
   1369   1367   1379     1   109.5600471 388.275200
   1370   1373   1374     1   109.8000471 387.438400
   1370   1373   1375     1   109.8000471 387.438400
   1371   1370   1373     1   109.5600471 388.275200
   1371   1370   1372     1   108.4600466 328.025600
   1372   1370   1373     1   109.5600471 388.275200
   1373   1382   1383     1   109.5600471 388.275200
   1373   1382   1384     1   109.5600471 388.275200
   1374   1373   1382     1   109.8000471 387.438400
   1374   1373   1375     1   107.5800459 329.699200
   1375   1373   1382     1   109.8000471 387.438400
   1376   1388   1389     1   109.5600471 388.275200
   1376   1388   1390     1   109.5600471 388.275200
   1377   1376   1388     1   109.8000471 387.438400
   1377   1376   1378     1   107.5800459 329.699200
   1378   1376   1388     1   109.8000471 387.438400
   1379   1385   1386     1   109.5600471 388.275200
   1379   1385   1387     1   109.5600471 388.275200
   1380   1379   1385     1   109.8000471 387.438400
   1380   1379   1381     1   107.5800459 329.699200
   1381   1379   1385     1   109.8000471 387.438400
   1383   1382   1391     1   109.7800468 425.094400
   1383   1382   1384     1   108.4600466 328.025600
   1384   1382   1391     1   109.7800468 425.094400
   1386   1385   2782     1   109.7800468 425.094400
   1386   1385   1387     1   108.4600466 328.025600
   1387   1385   2782     1   109.7800468 425.094400
   1389   1388   2805     1   109.7800468 425.094400
   1389   1388   1390     1   108.4600466 328.025600
   1390   1388   2805     1   109.7800468 425.094400
   1392   1393   1394     1   109.8800469 414.216000
   1392   1393   1395     1   109.8800469 414.216000
   1392   1396   1397     1   109.8800469 414.216000
   1392   1396   1398     1   109.8800469 414.216000
   1392   1399   1400     1   109.8800469 414.216000
   1392   1399   1401     1   109.8800469 414.216000
   1393   1405   1406     1   109.8000471 387.438400
   1393   1405   1407     1   109.8000471 387.438400
   1394   1393   1405     1   109.5600471 388.275200
   1394   1393   1395     1   108.4600466 328.025600
   1395   1393   1405     1   109.5600471 388.275200
   1396   1408   1409     1   109.8000471 387.438400
   1396   1408   1410     1   109.8000471 387.438400
   1397   1396   1408     1   109.5600471 388.275200
   1397   1396   1398     1   108.4600466 328.025600
   1398   1396   1408     1   109.5600471 388.275200
   1399   1402   1403     1   109.8000471 387.438400
   1399   1402   1404     1   109.8000471 387.438400
   1400   1399   1402     1   109.5600471 388.275200
   1400   1399   1401     1   108.4600466 328.025600
   1401   1399   1402     1   109.5600471 388.275200
   1402   1411   1412     1   109.5600471 388.275200
   1402   1411   1413     1   109.5600471 388.275200
   1403   1402   1411     1   109.8000471 387.438400
   1403   1402   1404     1   107.5800459 329.699200
   1404   1402   1411     1   109.8000471 387.438400
   1405   1417   1418     1   109.5600471 388.275200
   1405   1417   1419     1   109.5600471 388.275200
   1406   1405   1417     1   109.8000471 387.438400
   1406   1405   1407     1   107.5800459 329.699200
   1407   1405   1417     1   109.8000471 387.438400
   1408   1414   1415     1   109.5600471 388.275200
   1408   1414   1416     1   109.5600471 388.275200
   1409   1408   1414     1   109.8000471 387.438400
   1409   1408   1410     1   107.5800459 329.699200
   1410   1408   1414     1   109.8000471 387.438400
   1412   1411   1420     1   109.7800468 425.094400
   1412   1411   1413     1   108.4600466 328.025600
   1413   1411   1420     1   109.7800468 425.094400
   1415   1414   2828     1   109.7800468 425.094400
   1415   1414   1416     1   108.4600466 328.025600
   1416   1414   2828     1   109.7800468 425.094400
   1418   1417   2851     1   109.7800468 425.094400
   1418   1417   1419     1   108.4600466 328.025600
   1419   1417   2851     1   109.7800468 425.094400
   1421   1422   1423     1   109.8800469 414.216000
   1421   1422   1424     1   109.8800469 414.216000
   1421   1425   1426     1   109.8800469 414.216000
   1421   1425   1427     1   109.8800469 414.216000
   1421   1428   1429     1   109.8800469 414.216000
   1421   1428   1430     1   109.8800469 414.216000
   1422   1434   1435     1   109.8000471 387.438400
   1422   1434   1436     1   109.8000471 387.438400
   1423   1422   1434     1   109.5600471 388.275200
   1423   1422   1424     1   108.4600466 328.025600
   1424   1422   1434     1   109.5600471 388.275200
   1425   1437   1438     1   109.8000471 387.438400
   1425   1437   1439     1   109.8000471 387.438400
   1426   1425   1437     1   109.5600471 388.275200
   1426   1425   1427     1   108.4600466 328.025600
   1427   1425   1437     1   109.5600471 388.275200
   1428   1431   1432     1   109.8000471 387.438400
   1428   1431   1433     1   109.8000471 387.438400
   1429   1428   1431     1   109.5600471 388.275200
   1429   1428   1430     1   108.4600466 328.025600
   1430   1428   1431     1   109.5600471 388.275200
   1431   1440   1441     1   109.5600471 388.275200
   1431   1440   1442     1   109.5600471 388.275200
   1432   1431   1440     1   109.8000471 387.438400
   1432   1431   1433     1   107.5800459 329.699200
   1433   1431   1440     1   109.8000471 387.438400
   1434   1446   1447     1   109.5600471 388.275200
   1434   1446   1448     1   109.5600471 388.275200
   1435   1434   1446     1   109.8000471 387.438400
   1435   1434   1436     1   107.5800459 329.699200
   1436   1434   1446     1   109.8000471 387.438400
   1437   1443   1444     1   109.5600471 388.275200
   1437   1443   1445     1   109.5600471 388.275200
   1438   1437   1443     1   109.8000471 387.438400
   1438   1437   1439     1   107.5800459 329.699200
   1439   1437   1443     1   109.8000471 387.438400
   1441   1440   1449     1   109.7800468 425.094400
   1441   1440   1442     1   108.4600466 328.025600
   1442   1440   1449     1   109.7800468 425.094400
   1444   1443   2874     1   109.7800468 425.094400
   1444   1443   1445     1   108.4600466 328.025600
   1445   1443   2874     1   109.7800468 425.094400
   1447   1446   2897     1   109.7800468 425.094400
   1447   1446   1448     1   108.4600466 328.025600
   1448   1446   2897     1   109.7800468 425.094400
   1450   1451   1452     1   109.8800469 414.216000
   1450   1451   1453     1   109.8800469 414.216000
   1450   1454   1455     1   109.8800469 414.216000
   1450   1454   1456     1   109.8800469 414.216000
   1450   1457   1458     1   109.8800469 414.216000
   1450   1457   1459     1   109.8800469 414.216000
   1451   1463   1464     1   109.8000471 387.438400
   1451   1463   1465     1   109.8000471 387.438400
   1452   1451   1463     1   109.5600471 388.275200
   1452   1451   1453     1   108.4600466 328.025600
   1453   1451   1463     1   109.5600471 388.275200
   1454   1466   1467     1   109.8000471 387.438400
   1454   1466   1468     1   109.8000471 387.438400
   1455   1454   1466     1   109.5600471 388.275200
   1455   1454   1456     1   108.4600466 328.025600
   1456   1454   1466     1   109.5600471 388.275200
   1457   1460   1461     1   109.8000471 387.438400
   1457   1460   1462     1   109.8000471 387.438400
   1458   1457   1460     1   109.5600471 388.275200
   1458   1457   1459     1   108.4600466 328.025600
   1459   1457   1460     1   109.5600471 388.275200
   1460   1469   1470     1   109.5600471 388.275200
   1460   1469   1471     1   109.5600471 388.275200
   1461   1460   1469     1   109.8000471 387.438400
   1461   1460   1462     1   107.5800459 329.699200
   1462   1460   1469     1   109.8000471 387.438400
   1463   1475   1476     1   109.5600471 388.275200
   1463   1475   1477     1   109.5600471 388.275200
   1464   1463   1475     1   109.8000471 387.438400
   1464   1463   1465     1   107.5800459 329.699200
   1465   1463   1475     1   109.8000471 387.438400
   1466   1472   1473     1   109.5600471 388.275200
   1466   1472   1474     1   109.5600471 388.275200
   1467   1466   1472     1   109.8000471 387.438400
   1467   1466   1468     1   107.5800459 329.699200
   1468   1466   1472     1   109.8000471 387.438400
   1470   1469   1478     1   109.7800468 425.094400
   1470   1469   1471     1   108.4600466 328.025600
   1471   1469   1478     1   109.7800468 425.094400
   1473   1472   2920     1   109.7800468 425.094400
   1473   1472   1474     1   108.4600466 328.025600
   1474   1472   2920     1   109.7800468 425.094400
   1476   1475   2943     1   109.7800468 425.094400
   1476   1475   1477     1   108.4600466 328.025600
   1477   1475   2943     1   109.7800468 425.094400
   1479   1480   1481     1   109.8800469 414.216000
   1479   1480   1482     1   109.8800469 414.216000
   1479   1483   1484     1   109.8800469 414.216000
   1479   1483   1485     1   109.8800469 414.216000
   1479   1486   1487     1   109.8800469 414.216000
   1479   1486   1488     1   109.8800469 414.216000
   1480   1492   1493     1   109.8000471 387.438400
   1480   1492   1494     1   109.8000471 387.438400
   1481   1480   1492     1   109.5600471 388.275200
   1481   1480   1482     1   108.4600466 328.025600
   1482   1480   1492     1   109.5600471 388.275200
   1483   1495   1496     1   109.8000471 387.438400
   1483   1495   1497     1   109.8000471 387.438400
   1484   1483   1495     1   109.5600471 388.275200
   1484   1483   1485     1   108.4600466 328.025600
   1485   1483   1495     1   109.5600471 388.275200
   1486   1489   1490     1   109.8000471 387.438400
   1486   1489   1491     1   109.8000471 387.438400
   1487   1486   1489     1   109.5600471 388.275200
   1487   1486   1488     1   108.4600466 328.025600
   1488   1486   1489     1   109.5600471 388.275200
   1489   1498   1499     1   109.5600471 388.275200
   1489   1498   1500     1   109.5600471 388.275200
   1490   1489   1498     1   109.8000471 387.438400
   1490   1489   1491     1   107.5800459 329.699200
   1491   1489   1498     1   109.8000471 387.438400
   1492   1504   1505     1   109.5600471 388.275200
   1492   1504   1506     1   109.5600471 388.275200
   1493   1492   1504     1   109.8000471 387.438400
   1493   1492   1494     1   107.5800459 329.699200
   1494   1492   1504     1   109.8000471 387.438400
   1495   1501   1502     1   109.5600471 388.275200
   1495   1501   1503     1   109.5600471 388.275200
   1496   1495   1501     1   109.8000471 387.438400
   1496   1495   1497     1   107.5800459 329.699200
   1497   1495   1501     1   109.8000471 387.438400
   1499   1498   1507     1   109.7800468 425.094400
   1499   1498   1500     1   108.4600466 328.025600
   1500   1498   1507     1   109.7800468 425.094400
   1502   1501   2966     1   109.7800468 425.094400
   1502   1501   1503     1   108.4600466 328.025600
   1503   1501   2966     1   109.7800468 425.094400
   1505   1504   2989     1   109.7800468 425.094400
   1505   1504   1506     1   108.4600466 328.025600
   1506   1504   2989     1   109.7800468 425.094400
   1508   1509   1510     1   109.8800469 414.216000
   1508   1509   1511     1   109.8800469 414.216000
   1508   1512   1513     1   109.8800469 414.216000
   1508   1512   1514     1   109.8800469 414.216000
   1508   1515   1516     1   109.8800469 414.216000
   1508   1515   1517     1   109.8800469 414.216000
   1509   1521   1522     1   109.8000471 387.438400
   1509   1521   1523     1   109.8000471 387.438400
   1510   1509   1521     1   109.5600471 388.275200
   1510   1509   1511     1   108.4600466 328.025600
   1511   1509   1521     1   109.5600471 388.275200
   1512   1524   1525     1   109.8000471 387.438400
   1512   1524   1526     1   109.8000471 387.438400
   1513   1512   1524     1   109.5600471 388.275200
   1513   1512   1514     1   108.4600466 328.025600
   1514   1512   1524     1   109.5600471 388.275200
   1515   1518   1519     1   109.8000471 387.438400
   1515   1518   1520     1   109.8000471 387.438400
   1516   1515   1518     1   109.5600471 388.275200
   1516   1515   1517     1   108.4600466 328.025600
   1517   1515   1518     1   109.5600471 388.275200
   1518   1527   1528     1   109.5600471 388.275200
   1518   1527   1529     1   109.5600471 388.275200
   1519   1518   1527     1   109.8000471 387.438400
   1519   1518   1520     1   107.5800459 329.699200
   1520   1518   1527     1   109.8000471 387.438400
   1521   1533   1534     1   109.5600471 388.275200
   1521   1533   1535     1   109.5600471 388.275200
   1522   1521   1533     1   109.8000471 387.438400
   1522   1521   1523     1   107.5800459 329.699200
   1523   1521   1533     1   109.8000471 387.438400
   1524   1530   1531     1   109.5600471 388.275200
   1524   1530   1532     1   109.5600471 388.275200
   1525   1524   1530     1   109.8000471 387.438400
   1525   1524   1526     1   107.5800459 329.699200
   1526   1524   1530     1   109.8000471 387.438400
   1528   1527   1536     1   109.7800468 425.094400
   1528   1527   1529     1   108.4600466 328.025600
   1529   1527   1536     1   109.7800468 425.094400
   1531   1530   3012     1   109.7800468 425.094400
   1531   1530   1532     1   108.4600466 328.025600
   1532   1530   3012     1   109.7800468 425.094400
   1534   1533   3035     1   109.7800468 425.094400
   1534   1533   1535     1   108.4600466 328.025600
   1535   1533   3035     1   109.7800468 425.094400
   1537   1538   1539     1   109.8800469 414.216000
   1537   1538   1540     1   109.8800469 414.216000
   1537   1541   1542     1   109.8800469 414.216000
   1537   1541   1543     1   109.8800469 414.216000
   1537   1544   1545     1   109.8800469 414.216000
   1537   1544   1546     1   109.8800469 414.216000
   1538   1550   1551     1   109.8000471 387.438400
   1538   1550   1552     1   109.8000471 387.438400
   1539   1538   1550     1   109.5600471 388.275200
   1539   1538   1540     1   108.4600466 328.025600
   1540   1538   1550     1   109.5600471 388.275200
   1541   1553   1554     1   109.8000471 387.438400
   1541   1553   1555     1   109.8000471 387.438400
   1542   1541   1553     1   109.5600471 388.275200
   1542   1541   1543     1   108.4600466 328.025600
   1543   1541   1553     1   109.5600471 388.275200
   1544   1547   1548     1   109.8000471 387.438400
   1544   1547   1549     1   109.8000471 387.438400
   1545   1544   1547     1   109.5600471 388.275200
   1545   1544   1546     1   108.4600466 328.025600
   1546   1544   1547     1   109.5600471 388.275200
   1547   1556   1557     1   109.5600471 388.275200
   1547   1556   1558     1   109.5600471 388.275200
   1548   1547   1556     1   109.8000471 387.438400
   1548   1547   1549     1   107.5800459 329.699200
   1549   1547   1556     1   109.8000471 387.438400
   1550   1562   1563     1   109.5600471 388.275200
   1550   1562   1564     1   109.5600471 388.275200
   1551   1550   1562     1   109.8000471 387.438400
   1551   1550   1552     1   107.5800459 329.699200
   1552   1550   1562     1   109.8000471 387.438400
   1553   1559   1560     1   109.5600471 388.275200
   1553   1559   1561     1   109.5600471 388.275200
   1554   1553   1559     1   109.8000471 387.438400
   1554   1553   1555     1   107.5800459 329.699200
   1555   1553   1559     1   109.8000471 387.438400
   1557   1556   1565     1   109.7800468 425.094400
   1557   1556   1558     1   108.4600466 328.025600
   1558   1556   1565     1   109.7800468 425.094400
   1560   1559   3058     1   109.7800468 425.094400
   1560   1559   1561     1   108.4600466 328.025600
   1561   1559   3058     1   109.7800468 425.094400
   1563   1562   3081     1   109.7800468 425.094400
   1563   1562   1564     1   108.4600466 328.025600
   1564   1562   3081     1   109.7800468 425.094400
   1566   1567   1568     1   109.8800469 414.216000
   1566   1567   1569     1   109.8800469 414.216000
   1566   1570   1571     1   109.8800469 414.216000
   1566   1570   1572     1   109.8800469 414.216000
   1566   1573   1574     1   109.8800469 414.216000
   1566   1573   1575     1   109.8800469 414.216000
   1567   1579   1580     1   109.8000471 387.438400
   1567   1579   1581     1   109.8000471 387.438400
   1568   1567   1579     1   109.5600471 388.275200
   1568   1567   1569     1   108.4600466 328.025600
   1569   1567   1579     1   109.5600471 388.275200
   1570   1582   1583     1   109.8000471 387.438400
   1570   1582   1584     1   109.8000471 387.438400
   1571   1570   1582     1   109.5600471 388.275200
   1571   1570   1572     1   108.4600466 328.025600
   1572   1570   1582     1   109.5600471 388.275200
   1573   1576   1577     1   109.8000471 387.438400
   1573   1576   1578     1   109.8000471 387.438400
   1574   1573   1576     1   109.5600471 388.275200
   1574   1573   1575     1   108.4600466 328.025600
   1575   1573   1576     1   109.5600471 388.275200
   1576   1585   1586     1   109.5600471 388.275200
   1576   1585   1587     1   109.5600471 388.275200
   1577   1576   1585     1   109.8000471 387.438400
   1577   1576   1578     1   107.5800459 329.699200
   1578   1576   1585     1   109.8000471 387.438400
   1579   1591   1592     1   109.5600471 388.275200
   1579   1591   1593     1   109.5600471 388.275200
   1580   1579   1591     1   109.8000471 387.438400
   1580   1579   1581     1   107.5800459 329.699200
   1581   1579   1591     1   109.8000471 387.438400
   1582   1588   1589     1   109.5600471 388.275200
   1582   1588   1590     1   109.5600471 388.275200
   1583   1582   1588     1   109.8000471 387.438400
   1583   1582   1584     1   107.5800459 329.699200
   1584   1582   1588     1   109.8000471 387.438400
   1586   1585   1594     1   109.7800468 425.094400
   1586   1585   1587     1   108.4600466 328.025600
   1587   1585   1594     1   109.7800468 425.094400
   1589   1588   3104     1   109.7800468 425.094400
   1589   1588   1590     1   108.4600466 328.025600
   1590   1588   3104     1   109.7800468 425.094400
   1592   1591   3127     1   109.7800468 425.094400
   1592   1591   1593     1   108.4600466 328.025600
   1593   1591   3127     1   109.7800468 425.094400
   1595   1596   1597     1   109.8800469 414.216000
   1595   1596   1598     1   109.8800469 414.216000
   1595   1599   1600     1   109.8800469 414.216000
   1595   1599   1601     1   109.8800469 414.216000
   1595   1602   1603     1   109.8800469 414.216000
   1595   1602   1604     1   109.8800469 414.216000
   1596   1608   1609     1   109.8000471 387.438400
   1596   1608   1610     1   109.8000471 387.438400
   1597   1596   1608     1   109.5600471 388.275200
   1597   1596   1598     1   108.4600466 328.025600
   1598   1596   1608     1   109.5600471 388.275200
   1599   1611   1612     1   109.8000471 387.438400
   1599   1611   1613     1   109.8000471 387.438400
   1600   1599   1611     1   109.5600471 388.275200
   1600   1599   1601     1   108.4600466 328.025600
   1601   1599   1611     1   109.5600471 388.275200
   1602   1605   1606     1   109.8000471 387.438400
   1602   1605   1607     1   109.8000471 387.438400
   1603   1602   1605     1   109.5600471 388.275200
   1603   1602   1604     1   108.4600466 328.025600
   1604   1602   1605     1   109.5600471 388.275200
   1605   1614   1615     1   109.5600471 388.275200
   1605   1614   1616     1   109.5600471 388.275200
   1606   1605   1614     1   109.8000471 387.438400
   1606   1605   1607     1   107.5800459 329.699200
   1607   1605   1614     1   109.8000471 387.438400
   1608   1620   1621     1   109.5600471 388.275200
   1608   1620   1622     1   109.5600471 388.275200
   1609   1608   1620     1   109.8000471 387.438400
   1609   1608   1610     1   107.5800459 329.699200
   1610   1608   1620     1   109.8000471 387.438400
   1611   1617   1618     1   109.5600471 388.275200
   1611   1617   1619     1   109.5600471 388.275200
   1612   1611   1617     1   109.8000471 387.438400
   1612   1611   1613     1   107.5800459 329.699200
   1613   1611   1617     1   109.8000471 387.438400
   1615   1614   1623     1   109.7800468 425.094400
   1615   1614   1616     1   108.4600466 328.025600
   1616   1614   1623     1   109.7800468 425.094400
   1618   1617   3150     1   109.7800468 425.094400
   1618   1617   1619     1   108.4600466 328.025600
   1619   1617   3150     1   109.7800468 425.094400
   1621   1620   3173     1   109.7800468 425.094400
   1621   1620   1622     1   108.4600466 328.025600
   1622   1620   3173     1   109.7800468 425.094400
   1624   1625   1626     1   109.8800469 414.216000
   1624   1625   1627     1   109.8800469 414.216000
   1624   1628   1629     1   109.8800469 414.216000
   1624   1628   1630     1   109.8800469 414.216000
   1624   1631   1632     1   109.8800469 414.216000
   1624   1631   1633     1   109.8800469 414.216000
   1625   1637   1638     1   109.8000471 387.438400
   1625   1637   1639     1   109.8000471 387.438400
   1626   1625   1637     1   109.5600471 388.275200
   1626   1625   1627     1   108.4600466 328.025600
   1627   1625   1637     1   109.5600471 388.275200
   1628   1640   1641     1   109.8000471 387.438400
   1628   1640   1642     1   109.8000471 387.438400
   1629   1628   1640     1   109.5600471 388.275200
   1629   1628   1630     1   108.4600466 328.025600
   1630   1628   1640     1   109.5600471 388.275200
   1631   1634   1635     1   109.8000471 387.438400
   1631   1634   1636     1   109.8000471 387.438400
   1632   1631   1634     1   109.5600471 388.275200
   1632   1631   1633     1   108.4600466 328.025600
   1633   1631   1634     1   109.5600471 388.275200
   1634   1643   1644     1   109.5600471 388.275200
   1634   1643   1645     1   109.5600471 388.275200
   1635   1634   1643     1   109.8000471 387.438400
   1635   1634   1636     1   107.5800459 329.699200
   1636   1634   1643     1   109.8000471 387.438400
   1637   1649   1650     1   109.5600471 388.275200
   1637   1649   1651     1   109.5600471 388.275200
   1638   1637   1649     1   109.8000471 387.438400
   1638   1637   1639     1   107.5800459 329.699200
   1639   1637   1649     1   109.8000471 387.438400
   1640   1646   1647     1   109.5600471 388.275200
   1640   1646   1648     1   109.5600471 388.275200
   1641   1640   1646     1   109.8000471 387.438400
   1641   1640   1642     1   107.5800459 329.699200
   1642   1640   1646     1   109.8000471 387.438400
   1644   1643   1652     1   109.7800468 425.094400
   1644   1643   1645     1   108.4600466 328.025600
   1645   1643   1652     1   109.7800468 425.094400
   1647   1646   3196     1   109.7800468 425.094400
   1647   1646   1648     1   108.4600466 328.025600
   1648   1646   3196     1   109.7800468 425.094400
   1650   1649   3219     1   109.7800468 425.094400
   1650   1649   1651     1   108.4600466 328.025600
   1651   1649   3219     1   109.7800468 425.094400
   1653   1654   1655     1   109.8800469 414.216000
   1653   1654   1656     1   109.8800469 414.216000
   1653   1657   1658     1   109.8800469 414.216000
   1653   1657   1659     1   109.8800469 414.216000
   1653   1660   1661     1   109.8800469 414.216000
   1653   1660   1662     1   109.8800469 414.216000
   1654   1666   1667     1   109.8000471 387.438400
   1654   1666   1668     1   109.8000471 387.438400
   1655   1654   1666     1   109.5600471 388.275200
   1655   1654   1656     1   108.4600466 328.025600
   1656   1654   1666     1   109.5600471 388.275200
   1657   1669   1670     1   109.8000471 387.438400
   1657   1669   1671     1   109.8000471 387.438400
   1658   1657   1669     1   109.5600471 388.275200
   1658   1657   1659     1   108.4600466 328.025600
   1659   1657   1669     1   109.5600471 388.275200
   1660   1663   1664     1   109.8000471 387.438400
   1660   1663   1665     1   109.8000471 387.438400
   1661   1660   1663     1   109.5600471 388.275200
   1661   1660   1662     1   108.4600466 328.025600
   1662   1660   1663     1   109.5600471 388.275200
   1663   1672   1673     1   109.5600471 388.275200
   1663   1672   1674     1   109.5600471 388.275200
   1664   1663   1672     1   109.8000471 387.438400
   1664   1663   1665     1   107.5800459 329.699200
   1665   1663   1672     1   109.8000471 387.438400
   1666   1678   1679     1   109.5600471 388.275200
   1666   1678   1680     1   109.5600471 388.275200
   1667   1666   1678     1   109.8000471 387.438400
   1667   1666   1668     1   107.5800459 329.699200
   1668   1666   1678     1   109.8000471 387.438400
   1669   1675   1676     1   109.5600471 388.275200
   1669   1675   1677     1   109.5600471 388.275200
   1670   1669   1675     1   109.8000471 387.438400
   1670   1669   1671     1   107.5800459 329.699200
   1671   1669   1675     1   109.8000471 387.438400
   1673   1672   1681     1   109.7800468 425.094400
   1673   1672   1674     1   108.4600466 328.025600
   1674   1672   1681     1   109.7800468 425.094400
   1676   1675   3242     1   109.7800468 425.094400
   1676   1675   1677     1   108.4600466 328.025600
   1677   1675   3242     1   109.7800468 425.094400
   1679   1678   3265     1   109.7800468 425.094400
   1679   1678   1680     1   108.4600466 328.025600
   1680   1678   3265     1   109.7800468 425.094400
   1682   1683   1684     1   109.8800469 414.216000
   1682   1683   1685     1   109.8800469 414.216000
   1682   1686   1687     1   109.8800469 414.216000
   1682   1686   1688     1   109.8800469 414.216000
   1682   1689   1690     1   109.8800469 414.216000
   1682   1689   1691     1   109.8800469 414.216000
   1683   1695   1696     1   109.8000471 387.438400
   1683   1695   1697     1   109.8000471 387.438400
   1684   1683   1695     1   109.5600471 388.275200
   1684   1683   1685     1   108.4600466 328.025600
   1685   1683   1695     1   109.5600471 388.275200
   1686   1698   1699     1   109.8000471 387.438400
   1686   1698   1700     1   109.8000471 387.438400
   1687   1686   1698     1   109.5600471 388.275200
   1687   1686   1688     1   108.4600466 328.025600
   1688   1686   1698     1   109.5600471 388.275200
   1689   1692   1693     1   109.8000471 387.438400
   1689   1692   1694     1   109.8000471 387.438400
   1690   1689   1692     1   109.5600471 388.275200
   1690   1689   1691     1   108.4600466 328.025600
   1691   1689   1692     1   109.5600471 388.275200
   1692   1701   1702     1   109.5600471 388.275200
   1692   1701   1703     1   109.5600471 388.275200
   1693   1692   1701     1   109.8000471 387.438400
   1693   1692   1694     1   107.5800459 329.699200
   1694   1692   1701     1   109.8000471 387.438400
   1695   1707   1708     1   109.5600471 388.275200
   1695   1707   1709     1   109.5600471 388.275200
   1696   1695   1707     1   109.8000471 387.438400
   1696   1695   1697     1   107.5800459 329.699200
   1697   1695   1707     1   109.8000471 387.438400
   1698   1704   1705     1   109.5600471 388.275200
   1698   1704   1706     1   109.5600471 388.275200
   1699   1698   1704     1   109.8000471 387.438400
   1699   1698   1700     1   107.5800459 329.699200
   1700   1698   1704     1   109.8000471 387.438400
   1702   1701   1710     1   109.7800468 425.094400
   1702   1701   1703     1   108.4600466 328.025600
   1703   1701   1710     1   109.7800468 425.094400
   1705   1704   3288     1   109.7800468 425.094400
   1705   1704   1706     1   108.4600466 328.025600
   1706   1704   3288     1   109.7800468 425.094400
   1708   1707   3311     1   109.7800468 425.094400
   1708   1707   1709     1   108.4600466 328.025600
   1709   1707   3311     1   109.7800468 425.094400
   1711   1712   1713     1   109.8800469 414.216000
   1711   1712   1714     1   109.8800469 414.216000
   1711   1715   1716     1   109.8800469 414.216000
   1711   1715   1717     1   109.8800469 414.216000
   1711   1718   1719     1   109.8800469 414.216000
   1711   1718   1720     1   109.8800469 414.216000
   1712   1724   1725     1   109.8000471 387.438400
   1712   1724   1726     1   109.8000471 387.438400
   1713   1712   1724     1   109.5600471 388.275200
   1713   1712   1714     1   108.4600466 328.025600
   1714   1712   1724     1   109.5600471 388.275200
   1715   1727   1728     1   109.8000471 387.438400
   1715   1727   1729     1   109.8000471 387.438400
   1716   1715   1727     1   109.5600471 388.275200
   1716   1715   1717     1   108.4600466 328.025600
   1717   1715   1727     1   109.5600471 388.275200
   1718   1721   1722     1   109.8000471 387.438400
   1718   1721   1723     1   109.8000471 387.438400
   1719   1718   1721     1   109.5600471 388.275200
   1719   1718   1720     1   108.4600466 328.025600
   1720   1718   1721     1   109.5600471 388.275200
   1721   1730   1731     1   109.5600471 388.275200
   1721   1730   1732     1   109.5600471 388.275200
   1722   1721   1730     1   109.8000471 387.438400
   1722   1721   1723     1   107.5800459 329.699200
   1723   1721   1730     1   109.8000471 387.438400
   1724   1736   1737     1   109.5600471 388.275200
   1724   1736   1738     1   109.5600471 388.275200
   1725   1724   1736     1   109.8000471 387.438400
   1725   1724   1726     1   107.5800459 329.699200
   1726   1724   1736     1   109.8000471 387.438400
   1727   1733   1734     1   109.5600471 388.275200
   1727   1733   1735     1   109.5600471 388.275200
   1728   1727   1733     1   109.8000471 387.438400
   1728   1727   1729     1   107.5800459 329.699200
   1729   1727   1733     1   109.8000471 387.438400
   1731   1730   1739     1   109.7800468 425.094400
   1731   1730   1732     1   108.4600466 328.025600
   1732   1730   1739     1   109.7800468 425.094400
   1734   1733   3334     1   109.7800468 425.094400
   1734   1733   1735     1   108.4600466 328.025600
   1735   1733   3334     1   109.7800468 425.094400
   1737   1736   3357     1   109.7800468 425.094400
   1737   1736   1738     1   108.4600466 328.025600
   1738   1736   3357     1   109.7800468 425.094400
   1740   1741   1742     1   109.8800469 414.216000
   1740   1741   1743     1   109.8800469 414.216000
   1740   1744   1745     1   109.8800469 414.216000
   1740   1744   1746     1   109.8800469 414.216000
   1740   1747   1748     1   109.8800469 414.216000
   1740   1747   1749     1   109.8800469 414.216000
   1741   1753   1754     1   109.8000471 387.438400
   1741   1753   1755     1   109.8000471 387.438400
   1742   1741   1753     1   109.5600471 388.275200
   1742   1741   1743     1   108.4600466 328.025600
   1743   1741   1753     1   109.5600471 388.275200
   1744   1756   1757     1   109.8000471 387.438400
   1744   1756   1758     1   109.8000471 387.438400
   1745   1744   1756     1   109.5600471 388.275200
   1745   1744   1746     1   108.4600466 328.025600
   1746   1744   1756     1   109.5600471 388.275200
   1747   1750   1751     1   109.8000471 387.438400
   1747   1750   1752     1   109.8000471 387.438400
   1748   1747   1750     1   109.5600471 388.275200
   1748   1747   1749     1   108.4600466 328.025600
   1749   1747   1750     1   109.5600471 388.275200
   1750   1759   1760     1   109.5600471 388.275200
   1750   1759   1761     1   109.5600471 388.275200
   1751   1750   1759     1   109.8000471 387.438400
   1751   1750   1752     1   107.5800459 329.699200
   1752   1750   1759     1   109.8000471 387.438400
   1753   1765   1766     1   109.5600471 388.275200
   1753   1765   1767     1   109.5600471 388.275200
   1754   1753   1765     1   109.8000471 387.438400
   1754   1753   1755     1   107.5800459 329.699200
   1755   1753   1765     1   109.8000471 387.438400
   1756   1762   1763     1   109.5600471 388.275200
   1756   1762   1764     1   109.5600471 388.275200
   1757   1756   1762     1   109.8000471 387.438400
   1757   1756   1758     1   107.5800459 329.699200
   1758   1756   1762     1   109.8000471 387.438400
   1760   1759   1768     1   109.7800468 425.094400
   1760   1759   1761     1   108.4600466 328.025600
   1761   1759   1768     1   109.7800468 425.094400
   1763   1762   3380     1   109.7800468 425.094400
   1763   1762   1764     1   108.4600466 328.025600
   1764   1762   3380     1   109.7800468 425.094400
   1766   1765   3403     1   109.7800468 425.094400
   1766   1765   1767     1   108.4600466 328.025600
   1767   1765   3403     1   109.7800468 425.094400
   1769   1770   1771     1   109.8800469 414.216000
   1769   1770   1772     1   109.8800469 414.216000
   1769   1773   1774     1   109.8800469 414.216000
   1769   1773   1775     1   109.8800469 414.216000
   1769   1776   1777     1   109.8800469 414.216000
   1769   1776   1778     1   109.8800469 414.216000
   1770   1782   1783     1   109.8000471 387.438400
   1770   1782   1784     1   109.8000471 387.438400
   1771   1770   1782     1   109.5600471 388.275200
   1771   1770   1772     1   108.4600466 328.025600
   1772   1770   1782     1   109.5600471 388.275200
   1773   1785   1786     1   109.8000471 387.438400
   1773   1785   1787     1   109.8000471 387.438400
   1774   1773   1785     1   109.5600471 388.275200
   1774   1773   1775     1   108.4600466 328.025600
   1775   1773   1785     1   109.5600471 388.275200
   1776   1779   1780     1   109.8000471 387.438400
   1776   1779   1781     1   109.8000471 387.438400
   1777   1776   1779     1   109.5600471 388.275200
   1777   1776   1778     1   108.4600466 328.025600
   1778   1776   1779     1   109.5600471 388.275200
   1779   1788   1789     1   109.5600471 388.275200
   1779   1788   1790     1   109.5600471 388.275200
   1780   1779   1788     1   109.8000471 387.438400
   1780   1779   1781     1   107.5800459 329.699200
   1781   1779   1788     1   109.8000471 387.438400
   1782   1794   1795     1   109.5600471 388.275200
   1782   1794   1796     1   109.5600471 388.275200
   1783   1782   1794     1   109.8000471 387.438400
   1783   1782   1784     1   107.5800459 329.699200
   1784   1782   1794     1   109.8000471 387.438400
   1785   1791   1792     1   109.5600471 388.275200
   1785   1791   1793     1   109.5600471 388.275200
   1786   1785   1791     1   109.8000471 387.438400
   1786   1785   1787     1   107.5800459 329.699200
   1787   1785   1791     1   109.8000471 387.438400
   1789   1788   1797     1   109.7800468 425.094400
   1789   1788   1790     1   108.4600466 328.025600
   1790   1788   1797     1   109.7800468 425.094400
   1792   1791   3426     1   109.7800468 425.094400
   1792   1791   1793     1   108.4600466 328.025600
   1793   1791   3426     1   109.7800468 425.094400
   1795   1794   3449     1   109.7800468 425.094400
   1795   1794   1796     1   108.4600466 328.025600
   1796   1794   3449     1   109.7800468 425.094400
   1798   1799   1800     1   109.8800469 414.216000
   1798   1799   1801     1   109.8800469 414.216000
   1798   1802   1803     1   109.8800469 414.216000
   1798   1802   1804     1   109.8800469 414.216000
   1798   1805   1806     1   109.8800469 414.216000
   1798   1805   1807     1   109.8800469 414.216000
   1799   1811   1812     1   109.8000471 387.438400
   1799   1811   1813     1   109.8000471 387.438400
   1800   1799   1811     1   109.5600471 388.275200
   1800   1799   1801     1   108.4600466 328.025600
   1801   1799   1811     1   109.5600471 388.275200
   1802   1814   1815     1   109.8000471 387.438400
   1802   1814   1816     1   109.8000471 387.438400
   1803   1802   1814     1   109.5600471 388.275200
   1803   1802   1804     1   108.4600466 328.025600
   1804   1802   1814     1   109.5600471 388.275200
   1805   1808   1809     1   109.8000471 387.438400
   1805   1808   1810     1   109.8000471 387.438400
   1806   1805   1808     1   109.5600471 388.275200
   1806   1805   1807     1   108.4600466 328.025600
   1807   1805   1808     1   109.5600471 388.275200
   1808   1817   1818     1   109.5600471 388.275200
   1808   1817   1819     1   109.5600471 388.275200
   1809   1808   1817     1   109.8000471 387.438400
   1809   1808   1810     1   107.5800459 329.699200
   1810   1808   1817     1   109.8000471 387.438400
   1811   1823   1824     1   109.5600471 388.275200
   1811   1823   1825     1   109.5600471 388.275200
   1812   1811   1823     1   109.8000471 387.438400
   1812   1811   1813     1   107.5800459 329.699200
   1813   1811   1823     1   109.8000471 387.438400
   1814   1820   1821     1   109.5600471 388.275200
   1814   1820   1822     1   109.5600471 388.275200
   1815   1814   1820     1   109.8000471 387.438400
   1815   1814   1816     1   107.5800459 329.699200
   1816   1814   1820     1   109.8000471 387.438400
   1818   1817   1826     1   109.7800468 425.094400
   1818   1817   1819     1   108.4600466 328.025600
   1819   1817   1826     1   109.7800468 425.094400
   1821   1820   3472     1   109.7800468 425.094400
   1821   1820   1822     1   108.4600466 328.025600
   1822   1820   3472     1   109.7800468 425.094400
   1824   1823   3495     1   109.7800468 425.094400
   1824   1823   1825     1   108.4600466 328.025600
   1825   1823   3495     1   109.7800468 425.094400
   1827   1828   1829     1   109.8800469 414.216000
   1827   1828   1830     1   109.8800469 414.216000
   1827   1831   1832     1   109.8800469 414.216000
   1827   1831   1833     1   109.8800469 414.216000
   1827   1834   1835     1   109.8800469 414.216000
   1827   1834   1836     1   109.8800469 414.216000
   1828   1840   1841     1   109.8000471 387.438400
   1828   1840   1842     1   109.8000471 387.438400
   1829   1828   1840     1   109.5600471 388.275200
   1829   1828   1830     1   108.4600466 328.025600
   1830   1828   1840     1   109.5600471 388.275200
   1831   1843   1844     1   109.8000471 387.438400
   1831   1843   1845     1   109.8000471 387.438400
   1832   1831   1843     1   109.5600471 388.275200
   1832   1831   1833     1   108.4600466 328.025600
   1833   1831   1843     1   109.5600471 388.275200
   1834   1837   1838     1   109.8000471 387.438400
   1834   1837   1839     1   109.8000471 387.438400
   1835   1834   1837     1   109.5600471 388.275200
   1835   1834   1836     1   108.4600466 328.025600
   1836   1834   1837     1   109.5600471 388.275200
   1837   1846   1847     1   109.5600471 388.275200
   1837   1846   1848     1   109.5600471 388.275200
   1838   1837   1846     1   109.8000471 387.438400
   1838   1837   1839     1   107.5800459 329.699200
   1839   1837   1846     1   109.8000471 387.438400
   1840   1852   1853     1   109.5600471 388.275200
   1840   1852   1854     1   109.5600471 388.275200
   1841   1840   1852     1   109.8000471 387.438400
   1841   1840   1842     1   107.5800459 329.699200
   1842   1840   1852     1   109.8000471 387.438400
   1843   1849   1850     1   109.5600471 388.275200
   1843   1849   1851     1   109.5600471 388.275200
   1844   1843   1849     1   109.8000471 387.438400
   1844   1843   1845     1   107.5800459 329.699200
   1845   1843   1849     1   109.8000471 387.438400
   1847   1846   1855     1   109.7800468 425.094400
   1847   1846   1848     1   108.4600466 328.025600
   1848   1846   1855     1   109.7800468 425.094400
   1850   1849   3518     1   109.7800468 425.094400
   1850   1849   1851     1   108.4600466 328.025600
   1851   1849   3518     1   109.7800468 425.094400
   1853   1852   3541     1   109.7800468 425.094400
   1853   1852   1854     1   108.4600466 328.025600
   1854   1852   3541     1   109.7800468 425.094400
   1856   1857   1858     1   109.8800469 414.216000
   1856   1857   1859     1   109.8800469 414.216000
   1856   1860   1861     1   109.8800469 414.216000
   1856   1860   1862     1   109.8800469 414.216000
   1856   1863   1864     1   109.8800469 414.216000
   1856   1863   1865     1   109.8800469 414.216000
   1857   1869   1870     1   109.8000471 387.438400
   1857   1869   1871     1   109.8000471 387.438400
   1858   1857   1869     1   109.5600471 388.275200
   1858   1857   1859     1   108.4600466 328.025600
   1859   1857   1869     1   109.5600471 388.275200
   1860   1872   1873     1   109.8000471 387.438400
   1860   1872   1874     1   109.8000471 387.438400
   1861   1860   1872     1   109.5600471 388.275200
   1861   1860   1862     1   108.4600466 328.025600
   1862   1860   1872     1   109.5600471 388.275200
   1863   1866   1867     1   109.8000471 387.438400
   1863   1866   1868     1   109.8000471 387.438400
   1864   1863   1866     1   109.5600471 388.275200
   1864   1863   1865     1   108.4600466 328.025600
   1865   1863   1866     1   109.5600471 388.275200
   1866   1875   1876     1   109.5600471 388.275200
   1866   1875   1877     1   109.5600471 388.275200
   1867   1866   1875     1   109.8000471 387.438400
   1867   1866   1868     1   107.5800459 329.699200
   1868   1866   1875     1   109.8000471 387.438400
   1869   1881   1882     1   109.5600471 388.275200
   1869   1881   1883     1   109.5600471 388.275200
   1870   1869   1881     1   109.8000471 387.438400
   1870   1869   1871     1   107.5800459 329.699200
   1871   1869   1881     1   109.8000471 387.438400
   1872   1878   1879     1   109.5600471 388.275200
   1872   1878   1880     1   109.5600471 388.275200
   1873   1872   1878     1   109.8000471 387.438400
   1873   1872   1874     1   107.5800459 329.699200
   1874   1872   1878     1   109.8000471 387.438400
   1876   1875   1884     1   109.7800468 425.094400
   1876   1875   1877     1   108.4600466 328.025600
   1877   1875   1884     1   109.7800468 425.094400
   1879   1878   3564     1   109.7800468 425.094400
   1879   1878   1880     1   108.4600466 328.025600
   1880   1878   3564     1   109.7800468 425.094400
   1882   1881   3587     1   109.7800468 425.094400
   1882   1881   1883     1   108.4600466 328.025600
   1883   1881   3587     1   109.7800468 425.094400
   1885   1886   1887     1   109.8800469 414.216000
   1885   1886   1888     1   109.8800469 414.216000
   1885   1889   1890     1   109.8800469 414.216000
   1885   1889   1891     1   109.8800469 414.216000
   1885   1892   1893     1   109.8800469 414.216000
   1885   1892   1894     1   109.8800469 414.216000
   1886   1898   1899     1   109.8000471 387.438400
   1886   1898   1900     1   109.8000471 387.438400
   1887   1886   1898     1   109.5600471 388.275200
   1887   1886   1888     1   108.4600466 328.025600
   1888   1886   1898     1   109.5600471 388.275200
   1889   1901   1902     1   109.8000471 387.438400
   1889   1901   1903     1   109.8000471 387.438400
   1890   1889   1901     1   109.5600471 388.275200
   1890   1889   1891     1   108.4600466 328.025600
   1891   1889   1901     1   109.5600471 388.275200
   1892   1895   1896     1   109.8000471 387.438400
   1892   1895   1897     1   109.8000471 387.438400
   1893   1892   1895     1   109.5600471 388.275200
   1893   1892   1894     1   108.4600466 328.025600
   1894   1892   1895     1   109.5600471 388.275200
   1895   1904   1905     1   109.5600471 388.275200
   1895   1904   1906     1   109.5600471 388.275200
   1896   1895   1904     1   109.8000471 387.438400
   1896   1895   1897     1   107.5800459 329.699200
   1897   1895   1904     1   109.8000471 387.438400
   1898   1910   1911     1   109.5600471 388.275200
   1898   1910   1912     1   109.5600471 388.275200
   1899   1898   1910     1   109.8000471 387.438400
   1899   1898   1900     1   107.5800459 329.699200
   1900   1898   1910     1   109.8000471 387.438400
   1901   1907   1908     1   109.5600471 388.275200
   1901   1907   1909     1   109.5600471 388.275200
   1902   1901   1907     1   109.8000471 387.438400
   1902   1901   1903     1   107.5800459 329.699200
   1903   1901   1907     1   109.8000471 387.438400
   1905   1904   1913     1   109.7800468 425.094400
   1905   1904   1906     1   108.4600466 328.025600
   1906   1904   1913     1   109.7800468 425.094400
   1908   1907   3610     1   109.7800468 425.094400
   1908   1907   1909     1   108.4600466 328.025600
   1909   1907   3610     1   109.7800468 425.094400
   1911   1910   3633     1   109.7800468 425.094400
   1911   1910   1912     1   108.4600466 328.025600
   1912   1910   3633     1   109.7800468 425.094400
   1914   1915   1916     1   109.8800469 414.216000
   1914   1915   1917     1   109.8800469 414.216000
   1914   1918   1919     1   109.8800469 414.216000
   1914   1918   1920     1   109.8800469 414.216000
   1914   1921   1922     1   109.8800469 414.216000
   1914   1921   1923     1   109.8800469 414.216000
   1915   1927   1928     1   109.8000471 387.438400
   1915   1927   1929     1   109.8000471 387.438400
   1916   1915   1927     1   109.5600471 388.275200
   1916   1915   1917     1   108.4600466 328.025600
   1917   1915   1927     1   109.5600471 388.275200
   1918   1930   1931     1   109.8000471 387.438400
   1918   1930   1932     1   109.8000471 387.438400
   1919   1918   1930     1   109.5600471 388.275200
   1919   1918   1920     1   108.4600466 328.025600
   1920   1918   1930     1   109.5600471 388.275200
   1921   1924   1925     1   109.8000471 387.438400
   1921   1924   1926     1   109.8000471 387.438400
   1922   1921   1924     1   109.5600471 388.275200
   1922   1921   1923     1   108.4600466 328.025600
   1923   1921   1924     1   109.5600471 388.275200
   1924   1933   1934     1   109.5600471 388.275200
   1924   1933   1935     1   109.5600471 388.275200
   1925   1924   1933     1   109.8000471 387.438400
   1925   1924   1926     1   107.5800459 329.699200
   1926   1924   1933     1   109.8000471 387.438400
   1927   1939   1940     1   109.5600471 388.275200
   1927   1939   1941     1   109.5600471 388.275200
   1928   1927   1939     1   109.8000471 387.438400
   1928   1927   1929     1   107.5800459 329.699200
   1929   1927   1939     1   109.8000471 387.438400
   1930   1936   1937     1   109.5600471 388.275200
   1930   1936   1938     1   109.5600471 388.275200
   1931   1930   1936     1   109.8000471 387.438400
   1931   1930   1932     1   107.5800459 329.699200
   1932   1930   1936     1   109.8000471 387.438400
   1934   1933   1942     1   109.7800468 425.094400
   1934   1933   1935     1   108.4600466 328.025600
   1935   1933   1942     1   109.7800468 425.094400
   1937   1936   3656     1   109.7800468 425.094400
   1937   1936   1938     1   108.4600466 328.025600
   1938   1936   3656     1   109.7800468 425.094400
   1940   1939   3679     1   109.7800468 425.094400
   1940   1939   1941     1   108.4600466 328.025600
   1941   1939   3679     1   109.7800468 425.094400
   1943   1944   1945     1   109.8800469 414.216000
   1943   1944   1946     1   109.8800469 414.216000
   1943   1947   1948     1   109.8800469 414.216000
   1943   1947   1949     1   109.8800469 414.216000
   1943   1950   1951     1   109.8800469 414.216000
   1943   1950   1952     1   109.8800469 414.216000
   1944   1956   1957     1   109.8000471 387.438400
   1944   1956   1958     1   109.8000471 387.438400
   1945   1944   1956     1   109.5600471 388.275200
   1945   1944   1946     1   108.4600466 328.025600
   1946   1944   1956     1   109.5600471 388.275200
   1947   1959   1960     1   109.8000471 387.438400
   1947   1959   1961     1   109.8000471 387.438400
   1948   1947   1959     1   109.5600471 388.275200
   1948   1947   1949     1   108.4600466 328.025600
   1949   1947   1959     1   109.5600471 388.275200
   1950   1953   1954     1   109.8000471 387.438400
   1950   1953   1955     1   109.8000471 387.438400
   1951   1950   1953     1   109.5600471 388.275200
   1951   1950   1952     1   108.4600466 328.025600
   1952   1950   1953     1   109.5600471 388.275200
   1953   1962   1963     1   109.5600471 388.275200
   1953   1962   1964     1   109.5600471 388.275200
   1954   1953   1962     1   109.8000471 387.438400
   1954   1953   1955     1   107.5800459 329.699200
   1955   1953   1962     1   109.8000471 387.438400
   1956   1968   1969     1   109.5600471 388.275200
   1956   1968   1970     1   109.5600471 388.275200
   1957   1956   1968     1   109.8000471 387.438400
   1957   1956   1958     1   107.5800459 329.699200
   1958   1956   1968     1   109.8000471 387.438400
   1959   1965   1966     1   109.5600471 388.275200
   1959   1965   1967     1   109.5600471 388.275200
   1960   1959   1965     1   109.8000471 387.438400
   1960   1959   1961     1   107.5800459 329.699200
   1961   1959   1965     1   109.8000471 387.438400
   1963   1962   1971     1   109.7800468 425.094400
   1963   1962   1964     1   108.4600466 328.025600
   1964   1962   1971     1   109.7800468 425.094400
   1966   1965   3702     1   109.7800468 425.094400
   1966   1965   1967     1   108.4600466 328.025600
   1967   1965   3702     1   109.7800468 425.094400
   1969   1968   3725     1   109.7800468 425.094400
   1969   1968   1970     1   108.4600466 328.025600
   1970   1968   3725     1   109.7800468 425.094400
   1972   1973   1974     1   109.8800469 414.216000
   1972   1973   1975     1   109.8800469 414.216000
   1972   1976   1977     1   109.8800469 414.216000
   1972   1976   1978     1   109.8800469 414.216000
   1972   1979   1980     1   109.8800469 414.216000
   1972   1979   1981     1   109.8800469 414.216000
   1973   1985   1986     1   109.8000471 387.438400
   1973   1985   1987     1   109.8000471 387.438400
   1974   1973   1985     1   109.5600471 388.275200
   1974   1973   1975     1   108.4600466 328.025600
   1975   1973   1985     1   109.5600471 388.275200
   1976   1988   1989     1   109.8000471 387.438400
   1976   1988   1990     1   109.8000471 387.438400
   1977   1976   1988     1   109.5600471 388.275200
   1977   1976   1978     1   108.4600466 328.025600
   1978   1976   1988     1   109.5600471 388.275200
   1979   1982   1983     1   109.8000471 387.438400
   1979   1982   1984     1   109.8000471 387.438400
   1980   1979   1982     1   109.5600471 388.275200
   1980   1979   1981     1   108.4600466 328.025600
   1981   1979   1982     1   109.5600471 388.275200
   1982   1991   1992     1   109.5600471 388.275200
   1982   1991   1993     1   109.5600471 388.275200
   1983   1982   1991     1   109.8000471 387.438400
   1983   1982   1984     1   107.5800459 329.699200
   1984   1982   1991     1   109.8000471 387.438400
   1985   1997   1998     1   109.5600471 388.275200
   1985   1997   1999     1   109.5600471 388.275200
   1986   1985   1997     1   109.8000471 387.438400
   1986   1985   1987     1   107.5800459 329.699200
   1987   1985   1997     1   109.8000471 387.438400
   1988   1994   1995     1   109.5600471 388.275200
   1988   1994   1996     1   109.5600471 388.275200
   1989   1988   1994     1   109.8000471 387.438400
   1989   1988   1990     1   107.5800459 329.699200
   1990   1988   1994     1   109.8000471 387.438400
   1992   1991   2000     1   109.7800468 425.094400
   1992   1991   1993     1   108.4600466 328.025600
   1993   1991   2000     1   109.7800468 425.094400
   1995   1994   3748     1   109.7800468 425.094400
   1995   1994   1996     1   108.4600466 328.025600
   1996   1994   3748     1   109.7800468 425.094400
   1998   1997   3771     1   109.7800468 425.094400
   1998   1997   1999     1   108.4600466 328.025600
   1999   1997   3771     1   109.7800468 425.094400
   2001   2002   2003     1   109.8800469 414.216000
   2001   2002   2004     1   109.8800469 414.216000
   2001   2005   2006     1   109.8800469 414.216000
   2001   2005   2007     1   109.8800469 414.216000
   2001   2008   2009     1   109.8800469 414.216000
   2001   2008   2010     1   109.8800469 414.216000
   2002   2014   2015     1   109.8000471 387.438400
   2002   2014   2016     1   109.8000471 387.438400
   2003   2002   2014     1   109.5600471 388.275200
   2003   2002   2004     1   108.4600466 328.025600
   2004   2002   2014     1   109.5600471 388.275200
   2005   2017   2018     1   109.8000471 387.438400
   2005   2017   2019     1   109.8000471 387.438400
   2006   2005   2017     1   109.5600471 388.275200
   2006   2005   2007     1   108.4600466 328.025600
   2007   2005   2017     1   109.5600471 388.275200
   2008   2011   2012     1   109.8000471 387.438400
   2008   2011   2013     1   109.8000471 387.438400
   2009   2008   2011     1   109.5600471 388.275200
   2009   2008   2010     1   108.4600466 328.025600
   2010   2008   2011     1   109.5600471 388.275200
   2011   2020   2021     1   109.5600471 388.275200
   2011   2020   2022     1   109.5600471 388.275200
   2012   2011   2020     1   109.8000471 387.438400
   2012   2011   2013     1   107.5800459 329.699200
   2013   2011   2020     1   109.8000471 387.438400
   2014   2026   2027     1   109.5600471 388.275200
   2014   2026   2028     1   109.5600471 388.275200
   2015   2014   2026     1   109.8000471 387.438400
   2015   2014   2016     1   107.5800459 329.699200
   2016   2014   2026     1   109.8000471 387.438400
   2017   2023   2024     1   109.5600471 388.275200
   2017   2023   2025     1   109.5600471 388.275200
   2018   2017   2023     1   109.8000471 387.438400
   2018   2017   2019     1   107.5800459 329.699200
   2019   2017   2023     1   109.8000471 387.438400
   2021   2020   2029     1   109.7800468 425.094400
   2021   2020   2022     1   108.4600466 328.025600
   2022   2020   2029     1   109.7800468 425.094400
   2024   2023   3794     1   109.7800468 425.094400
   2024   2023   2025     1   108.4600466 328.025600
   2025   2023   3794     1   109.7800468 425.094400
   2027   2026   3817     1   109.7800468 425.094400
   2027   2026   2028     1   108.4600466 328.025600
   2028   2026   3817     1   109.7800468 425.094400
   2030   2031   2032     1   109.8800469 414.216000
   2030   2031   2033     1   109.8800469 414.216000
   2030   2034   2035     1   109.8800469 414.216000
   2030   2034   2036     1   109.8800469 414.216000
   2030   2037   2038     1   109.8800469 414.216000
   2030   2037   2039     1   109.8800469 414.216000
   2031   2043   2044     1   109.8000471 387.438400
   2031   2043   2045     1   109.8000471 387.438400
   2032   2031   2043     1   109.5600471 388.275200
   2032   2031   2033     1   108.4600466 328.025600
   2033   2031   2043     1   109.5600471 388.275200
   2034   2046   2047     1   109.8000471 387.438400
   2034   2046   2048     1   109.8000471 387.438400
   2035   2034   2046     1   109.5600471 388.275200
   2035   2034   2036     1   108.4600466 328.025600
   2036   2034   2046     1   109.5600471 388.275200
   2037   2040   2041     1   109.8000471 387.438400
   2037   2040   2042     1   109.8000471 387.438400
   2038   2037   2040     1   109.5600471 388.275200
   2038   2037   2039     1   108.4600466 328.025600
   2039   2037   2040     1   109.5600471 388.275200
   2040   2049   2050     1   109.5600471 388.275200
   2040   2049   2051     1   109.5600471 388.275200
   2041   2040   2049     1   109.8000471 387.438400
   2041   2040   2042     1   107.5800459 329.699200
   2042   2040   2049     1   109.8000471 387.438400
   2043   2055   2056     1   109.5600471 388.275200
   2043   2055   2057     1   109.5600471 388.275200
   2044   2043   2055     1   109.8000471 387.438400
   2044   2043   2045     1   107.5800459 329.699200
   2045   2043   2055     1   109.8000471 387.438400
   2046   2052   2053     1   109.5600471 388.275200
   2046   2052   2054     1   109.5600471 388.275200
   2047   2046   2052     1   109.8000471 387.438400
   2047   2046   2048     1   107.5800459 329.699200
   2048   2046   2052     1   109.8000471 387.438400
   2050   2049   2058     1   109.7800468 425.094400
   2050   2049   2051     1   108.4600466 328.025600
   2051   2049   2058     1   109.7800468 425.094400
   2053   2052   3840     1   109.7800468 425.094400
   2053   2052   2054     1   108.4600466 328.025600
   2054   2052   3840     1   109.7800468 425.094400
   2056   2055   3863     1   109.7800468 425.094400
   2056   2055   2057     1   108.4600466 328.025600
   2057   2055   3863     1   109.7800468 425.094400
   2059   2060   2061     1   109.8800469 414.216000
   2059   2060   2062     1   109.8800469 414.216000
   2059   2063   2064     1   109.8800469 414.216000
   2059   2063   2065     1   109.8800469 414.216000
   2059   2066   2067     1   109.8800469 414.216000
   2059   2066   2068     1   109.8800469 414.216000
   2060   2072   2073     1   109.8000471 387.438400
   2060   2072   2074     1   109.8000471 387.438400
   2061   2060   2072     1   109.5600471 388.275200
   2061   2060   2062     1   108.4600466 328.025600
   2062   2060   2072     1   109.5600471 388.275200
   2063   2075   2076     1   109.8000471 387.438400
   2063   2075   2077     1   109.8000471 387.438400
   2064   2063   2075     1   109.5600471 388.275200
   2064   2063   2065     1   108.4600466 328.025600
   2065   2063   2075     1   109.5600471 388.275200
   2066   2069   2070     1   109.8000471 387.438400
   2066   2069   2071     1   109.8000471 387.438400
   2067   2066   2069     1   109.5600471 388.275200
   2067   2066   2068     1   108.4600466 328.025600
   2068   2066   2069     1   109.5600471 388.275200
   2069   2078   2079     1   109.5600471 388.275200
   2069   2078   2080     1   109.5600471 388.275200
   2070   2069   2078     1   109.8000471 387.438400
   2070   2069   2071     1   107.5800459 329.699200
   2071   2069   2078     1   109.8000471 387.438400
   2072   2084   2085     1   109.5600471 388.275200
   2072   2084   2086     1   109.5600471 388.275200
   2073   2072   2084     1   109.8000471 387.438400
   2073   2072   2074     1   107.5800459 329.699200
   2074   2072   2084     1   109.8000471 387.438400
   2075   2081   2082     1   109.5600471 388.275200
   2075   2081   2083     1   109.5600471 388.275200
   2076   2075   2081     1   109.8000471 387.438400
   2076   2075   2077     1   107.5800459 329.699200
   2077   2075   2081     1   109.8000471 387.438400
   2079   2078   2087     1   109.7800468 425.094400
   2079   2078   2080     1   108.4600466 328.025600
   2080   2078   2087     1   109.7800468 425.094400
   2082   2081   3886     1   109.7800468 425.094400
   2082   2081   2083     1   108.4600466 328.025600
   2083   2081   3886     1   109.7800468 425.094400
   2085   2084   3909     1   109.7800468 425.094400
   2085   2084   2086     1   108.4600466 328.025600
   2086   2084   3909     1   109.7800468 425.094400
   2088   2089   2090     1   109.8800469 414.216000
   2088   2089   2091     1   109.8800469 414.216000
   2088   2092   2093     1   109.8800469 414.216000
   2088   2092   2094     1   109.8800469 414.216000
   2088   2095   2096     1   109.8800469 414.216000
   2088   2095   2097     1   109.8800469 414.216000
   2089   2101   2102     1   109.8000471 387.438400
   2089   2101   2103     1   109.8000471 387.438400
   2090   2089   2101     1   109.5600471 388.275200
   2090   2089   2091     1   108.4600466 328.025600
   2091   2089   2101     1   109.5600471 388.275200
   2092   2104   2105     1   109.8000471 387.438400
   2092   2104   2106     1   109.8000471 387.438400
   2093   2092   2104     1   109.5600471 388.275200
   2093   2092   2094     1   108.4600466 328.025600
   2094   2092   2104     1   109.5600471 388.275200
   2095   2098   2099     1   109.8000471 387.438400
   2095   2098   2100     1   109.8000471 387.438400
   2096   2095   2098     1   109.5600471 388.275200
   2096   2095   2097     1   108.4600466 328.025600
   2097   2095   2098     1   109.5600471 388.275200
   2098   2107   2108     1   109.5600471 388.275200
   2098   2107   2109     1   109.5600471 388.275200
   2099   2098   2107     1   109.8000471 387.438400
   2099   2098   2100     1   107.5800459 329.699200
   2100   2098   2107     1   109.8000471 387.438400
   2101   2113   2114     1   109.5600471 388.275200
   2101   2113   2115     1   109.5600471 388.275200
   2102   2101   2113     1   109.8000471 387.438400
   2102   2101   2103     1   107.5800459 329.699200
   2103   2101   2113     1   109.8000471 387.438400
   2104   2110   2111     1   109.5600471 388.275200
   2104   2110   2112     1   109.5600471 388.275200
   2105   2104   2110     1   109.8000471 387.438400
   2105   2104   2106     1   107.5800459 329.699200
   2106   2104   2110     1   109.8000471 387.438400
   2108   2107   2116     1   109.7800468 425.094400
   2108   2107   2109     1   108.4600466 328.025600
   2109   2107   2116     1   109.7800468 425.094400
   2111   2110   3932     1   109.7800468 425.094400
   2111   2110   2112     1   108.4600466 328.025600
   2112   2110   3932     1   109.7800468 425.094400
   2114   2113   3955     1   109.7800468 425.094400
   2114   2113   2115     1   108.4600466 328.025600
   2115   2113   3955     1   109.7800468 425.094400
   2117   2118   2119     1   109.8800469 414.216000
   2117   2118   2120     1   109.8800469 414.216000
   2117   2121   2122     1   109.8800469 414.216000
   2117   2121   2123     1   109.8800469 414.216000
   2117   2124   2125     1   109.8800469 414.216000
   2117   2124   2126     1   109.8800469 414.216000
   2118   2130   2131     1   109.8000471 387.438400
   2118   2130   2132     1   109.8000471 387.438400
   2119   2118   2130     1   109.5600471 388.275200
   2119   2118   2120     1   108.4600466 328.025600
   2120   2118   2130     1   109.5600471 388.275200
   2121   2133   2134     1   109.8000471 387.438400
   2121   2133   2135     1   109.8000471 387.438400
   2122   2121   2133     1   109.5600471 388.275200
   2122   2121   2123     1   108.4600466 328.025600
   2123   2121   2133     1   109.5600471 388.275200
   2124   2127   2128     1   109.8000471 387.438400
   2124   2127   2129     1   109.8000471 387.438400
   2125   2124   2127     1   109.5600471 388.275200
   2125   2124   2126     1   108.4600466 328.025600
   2126   2124   2127     1   109.5600471 388.275200
   2127   2136   2137     1   109.5600471 388.275200
   2127   2136   2138     1   109.5600471 388.275200
   2128   2127   2136     1   109.8000471 387.438400
   2128   2127   2129     1   107.5800459 329.699200
   2129   2127   2136     1   109.8000471 387.438400
   2130   2142   2143     1   109.5600471 388.275200
   2130   2142   2144     1   109.5600471 388.275200
   2131   2130   2142     1   109.8000471 387.438400
   2131   2130   2132     1   107.5800459 329.699200
   2132   2130   2142     1   109.8000471 387.438400
   2133   2139   2140     1   109.5600471 388.275200
   2133   2139   2141     1   109.5600471 388.275200
   2134   2133   2139     1   109.8000471 387.438400
   2134   2133   2135     1   107.5800459 329.699200
   2135   2133   2139     1   109.8000471 387.438400
   2137   2136   2145     1   109.7800468 425.094400
   2137   2136   2138     1   108.4600466 328.025600
   2138   2136   2145     1   109.7800468 425.094400
   2140   2139   3978     1   109.7800468 425.094400
   2140   2139   2141     1   108.4600466 328.025600
   2141   2139   3978     1   109.7800468 425.094400
   2143   2142   4001     1   109.7800468 425.094400
   2143   2142   2144     1   108.4600466 328.025600
   2144   2142   4001     1   109.7800468 425.094400
   2146   2147   2148     1   109.8800469 414.216000
   2146   2147   2149     1   109.8800469 414.216000
   2146   2150   2151     1   109.8800469 414.216000
   2146   2150   2152     1   109.8800469 414.216000
   2146   2153   2154     1   109.8800469 414.216000
   2146   2153   2155     1   109.8800469 414.216000
   2147   2159   2160     1   109.8000471 387.438400
   2147   2159   2161     1   109.8000471 387.438400
   2148   2147   2159     1   109.5600471 388.275200
   2148   2147   2149     1   108.4600466 328.025600
   2149   2147   2159     1   109.5600471 388.275200
   2150   2162   2163     1   109.8000471 387.438400
   2150   2162   2164     1   109.8000471 387.438400
   2151   2150   2162     1   109.5600471 388.275200
   2151   2150   2152     1   108.4600466 328.025600
   2152   2150   2162     1   109.5600471 388.275200
   2153   2156   2157     1   109.8000471 387.438400
   2153   2156   2158     1   109.8000471 387.438400
   2154   2153   2156     1   109.5600471 388.275200
   2154   2153   2155     1   108.4600466 328.025600
   2155   2153   2156     1   109.5600471 388.275200
   2156   2165   2166     1   109.5600471 388.275200
   2156   2165   2167     1   109.5600471 388.275200
   2157   2156   2165     1   109.8000471 387.438400
   2157   2156   2158     1   107.5800459 329.699200
   2158   2156   2165     1   109.8000471 387.438400
   2159   2171   2172     1   109.5600471 388.275200
   2159   2171   2173     1   109.5600471 388.275200
   2160   2159   2171     1   109.8000471 387.438400
   2160   2159   2161     1   107.5800459 329.699200
   2161   2159   2171     1   109.8000471 387.438400
   2162   2168   2169     1   109.5600471 388.275200
   2162   2168   2170     1   109.5600471 388.275200
   2163   2162   2168     1   109.8000471 387.438400
   2163   2162   2164     1   107.5800459 329.699200
   2164   2162   2168     1   109.8000471 387.438400
   2166   2165   2174     1   109.7800468 425.094400
   2166   2165   2167     1   108.4600466 328.025600
   2167   2165   2174     1   109.7800468 425.094400
   2169   2168   4024     1   109.7800468 425.094400
   2169   2168   2170     1   108.4600466 328.025600
   2170   2168   4024     1   109.7800468 425.094400
   2172   2171   4047     1   109.7800468 425.094400
   2172   2171   2173     1   108.4600466 328.025600
   2173   2171   4047     1   109.7800468 425.094400
   2175   2176   2177     1   109.8800469 414.216000
   2175   2176   2178     1   109.8800469 414.216000
   2175   2179   2180     1   109.8800469 414.216000
   2175   2179   2181     1   109.8800469 414.216000
   2175   2182   2183     1   109.8800469 414.216000
   2175   2182   2184     1   109.8800469 414.216000
   2176   2188   2189     1   109.8000471 387.438400
   2176   2188   2190     1   109.8000471 387.438400
   2177   2176   2188     1   109.5600471 388.275200
   2177   2176   2178     1   108.4600466 328.025600
   2178   2176   2188     1   109.5600471 388.275200
   2179   2191   2192     1   109.8000471 387.438400
   2179   2191   2193     1   109.8000471 387.438400
   2180   2179   2191     1   109.5600471 388.275200
   2180   2179   2181     1   108.4600466 328.025600
   2181   2179   2191     1   109.5600471 388.275200
   2182   2185   2186     1   109.8000471 387.438400
   2182   2185   2187     1   109.8000471 387.438400
   2183   2182   2185     1   109.5600471 388.275200
   2183   2182   2184     1   108.4600466 328.025600
   2184   2182   2185     1   109.5600471 388.275200
   2185   2194   2195     1   109.5600471 388.275200
   2185   2194   2196     1   109.5600471 388.275200
   2186   2185   2194     1   109.8000471 387.438400
   2186   2185   2187     1   107.5800459 329.699200
   2187   2185   2194     1   109.8000471 387.438400
   2188   2200   2201     1   109.5600471 388.275200
   2188   2200   2202     1   109.5600471 388.275200
   2189   2188   2200     1   109.8000471 387.438400
   2189   2188   2190     1   107.5800459 329.699200
   2190   2188   2200     1   109.8000471 387.438400
   2191   2197   2198     1   109.5600471 388.275200
   2191   2197   2199     1   109.5600471 388.275200
   2192   2191   2197     1   109.8000471 387.438400
   2192   2191   2193     1   107.5800459 329.699200
   2193   2191   2197     1   109.8000471 387.438400
   2195   2194   2203     1   109.7800468 425.094400
   2195   2194   2196     1   108.4600466 328.025600
   2196   2194   2203     1   109.7800468 425.094400
   2198   2197   4070     1   109.7800468 425.094400
   2198   2197   2199     1   108.4600466 328.025600
   2199   2197   4070     1   109.7800468 425.094400
   2201   2200   4093     1   109.7800468 425.094400
   2201   2200   2202     1   108.4600466 328.025600
   2202   2200   4093     1   109.7800468 425.094400
   2204   2205   2206     1   109.8800469 414.216000
   2204   2205   2207     1   109.8800469 414.216000
   2204   2208   2209     1   109.8800469 414.216000
   2204   2208   2210     1   109.8800469 414.216000
   2204   2211   2212     1   109.8800469 414.216000
   2204   2211   2213     1   109.8800469 414.216000
   2205   2217   2218     1   109.8000471 387.438400
   2205   2217   2219     1   109.8000471 387.438400
   2206   2205   2217     1   109.5600471 388.275200
   2206   2205   2207     1   108.4600466 328.025600
   2207   2205   2217     1   109.5600471 388.275200
   2208   2220   2221     1   109.8000471 387.438400
   2208   2220   2222     1   109.8000471 387.438400
   2209   2208   2220     1   109.5600471 388.275200
   2209   2208   2210     1   108.4600466 328.025600
   2210   2208   2220     1   109.5600471 388.275200
   2211   2214   2215     1   109.8000471 387.438400
   2211   2214   2216     1   109.8000471 387.438400
   2212   2211   2214     1   109.5600471 388.275200
   2212   2211   2213     1   108.4600466 328.025600
   2213   2211   2214     1   109.5600471 388.275200
   2214   2223   2224     1   109.5600471 388.275200
   2214   2223   2225     1   109.5600471 388.275200
   2215   2214   2223     1   109.8000471 387.438400
   2215   2214   2216     1   107.5800459 329.699200
   2216   2214   2223     1   109.8000471 387.438400
   2217   2229   2230     1   109.5600471 388.275200
   2217   2229   2231     1   109.5600471 388.275200
   2218   2217   2229     1   109.8000471 387.438400
   2218   2217   2219     1   107.5800459 329.699200
   2219   2217   2229     1   109.8000471 387.438400
   2220   2226   2227     1   109.5600471 388.275200
   2220   2226   2228     1   109.5600471 388.275200
   2221   2220   2226     1   109.8000471 387.438400
   2221   2220   2222     1   107.5800459 329.699200
   2222   2220   2226     1   109.8000471 387.438400
   2224   2223   2232     1   109.7800468 425.094400
   2224   2223   2225     1   108.4600466 328.025600
   2225   2223   2232     1   109.7800468 425.094400
   2227   2226   4116     1   109.7800468 425.094400
   2227   2226   2228     1   108.4600466 328.025600
   2228   2226   4116     1   109.7800468 425.094400
   2230   2229   4139     1   109.7800468 425.094400
   2230   2229   2231     1   108.4600466 328.025600
   2231   2229   4139     1   109.7800468 425.094400
   2233   2234   2235     1   109.8800469 414.216000
   2233   2234   2236     1   109.8800469 414.216000
   2233   2237   2238     1   109.8800469 414.216000
   2233   2237   2239     1   109.8800469 414.216000
   2233   2240   2241     1   109.8800469 414.216000
   2233   2240   2242     1   109.8800469 414.216000
   2234   2246   2247     1   109.8000471 387.438400
   2234   2246   2248     1   109.8000471 387.438400
   2235   2234   2246     1   109.5600471 388.275200
   2235   2234   2236     1   108.4600466 328.025600
   2236   2234   2246     1   109.5600471 388.275200
   2237   2249   2250     1   109.8000471 387.438400
   2237   2249   2251     1   109.8000471 387.438400
   2238   2237   2249     1   109.5600471 388.275200
   2238   2237   2239     1   108.4600466 328.025600
   2239   2237   2249     1   109.5600471 388.275200
   2240   2243   2244     1   109.8000471 387.438400
   2240   2243   2245     1   109.8000471 387.438400
   2241   2240   2243     1   109.5600471 388.275200
   2241   2240   2242     1   108.4600466 328.025600
   2242   2240   2243     1   109.5600471 388.275200
   2243   2252   2253     1   109.5600471 388.275200
   2243   2252   2254     1   109.5600471 388.275200
   2244   2243   2252     1   109.8000471 387.438400
   2244   2243   2245     1   107.5800459 329.699200
   2245   2243   2252     1   109.8000471 387.438400
   2246   2258   2259     1   109.5600471 388.275200
   2246   2258   2260     1   109.5600471 388.275200
   2247   2246   2258     1   109.8000471 387.438400
   2247   2246   2248     1   107.5800459 329.699200
   2248   2246   2258     1   109.8000471 387.438400
   2249   2255   2256     1   109.5600471 388.275200
   2249   2255   2257     1   109.5600471 388.275200
   2250   2249   2255     1   109.8000471 387.438400
   2250   2249   2251     1   107.5800459 329.699200
   2251   2249   2255     1   109.8000471 387.438400
   2253   2252   2261     1   109.7800468 425.094400
   2253   2252   2254     1   108.4600466 328.025600
   2254   2252   2261     1   109.7800468 425.094400
   2256   2255   4162     1   109.7800468 425.094400
   2256   2255   2257     1   108.4600466 328.025600
   2257   2255   4162     1   109.7800468 425.094400
   2259   2258   4185     1   109.7800468 425.094400
   2259   2258   2260     1   108.4600466 328.025600
   2260   2258   4185     1   109.7800468 425.094400
   2262   2263   2264     1   109.8800469 414.216000
   2262   2263   2265     1   109.8800469 414.216000
   2262   2266   2267     1   109.8800469 414.216000
   2262   2266   2268     1   109.8800469 414.216000
   2262   2269   2270     1   109.8800469 414.216000
   2262   2269   2271     1   109.8800469 414.216000
   2263   2275   2276     1   109.8000471 387.438400
   2263   2275   2277     1   109.8000471 387.438400
   2264   2263   2275     1   109.5600471 388.275200
   2264   2263   2265     1   108.4600466 328.025600
   2265   2263   2275     1   109.5600471 388.275200
   2266   2278   2279     1   109.8000471 387.438400
   2266   2278   2280     1   109.8000471 387.438400
   2267   2266   2278     1   109.5600471 388.275200
   2267   2266   2268     1   108.4600466 328.025600
   2268   2266   2278     1   109.5600471 388.275200
   2269   2272   2273     1   109.8000471 387.438400
   2269   2272   2274     1   109.8000471 387.438400
   2270   2269   2272     1   109.5600471 388.275200
   2270   2269   2271     1   108.4600466 328.025600
   2271   2269   2272     1   109.5600471 388.275200
   2272   2281   2282     1   109.5600471 388.275200
   2272   2281   2283     1   109.5600471 388.275200
   2273   2272   2281     1   109.8000471 387.438400
   2273   2272   2274     1   107.5800459 329.699200
   2274   2272   2281     1   109.8000471 387.438400
   2275   2287   2288     1   109.5600471 388.275200
   2275   2287   2289     1   109.5600471 388.275200
   2276   2275   2287     1   109.8000471 387.438400
   2276   2275   2277     1   107.5800459 329.699200
   2277   2275   2287     1   109.8000471 387.438400
   2278   2284   2285     1   109.5600471 388.275200
   2278   2284   2286     1   109.5600471 388.275200
   2279   2278   2284     1   109.8000471 387.438400
   2279   2278   2280     1   107.5800459 329.699200
   2280   2278   2284     1   109.8000471 387.438400
   2282   2281   2290     1   109.7800468 425.094400
   2282   2281   2283     1   108.4600466 328.025600
   2283   2281   2290     1   109.7800468 425.094400
   2285   2284   4208     1   109.7800468 425.094400
   2285   2284   2286     1   108.4600466 328.025600
   2286   2284   4208     1   109.7800468 425.094400
   2288   2287   4231     1   109.7800468 425.094400
   2288   2287   2289     1   108.4600466 328.025600
   2289   2287   4231     1   109.7800468 425.094400
   2291   2292   2293     1   109.8800469 414.216000
   2291   2292   2294     1   109.8800469 414.216000
   2291   2295   2296     1   109.8800469 414.216000
   2291   2295   2297     1   109.8800469 414.216000
   2291   2298   2299     1   109.8800469 414.216000
   2291   2298   2300     1   109.8800469 414.216000
   2292   2304   2305     1   109.8000471 387.438400
   2292   2304   2306     1   109.8000471 387.438400
   2293   2292   2304     1   109.5600471 388.275200
   2293   2292   2294     1   108.4600466 328.025600
   2294   2292   2304     1   109.5600471 388.275200
   2295   2307   2308     1   109.8000471 387.438400
   2295   2307   2309     1   109.8000471 387.438400
   2296   2295   2307     1   109.5600471 388.275200
   2296   2295   2297     1   108.4600466 328.025600
   2297   2295   2307     1   109.5600471 388.275200
   2298   2301   2302     1   109.8000471 387.438400
   2298   2301   2303     1   109.8000471 387.438400
   2299   2298   2301     1   109.5600471 388.275200
   2299   2298   2300     1   108.4600466 328.025600
   2300   2298   2301     1   109.5600471 388.275200
   2301   2310   2311     1   109.5600471 388.275200
   2301   2310   2312     1   109.5600471 388.275200
   2302   2301   2310     1   109.8000471 387.438400
   2302   2301   2303     1   107.5800459 329.699200
   2303   2301   2310     1   109.8000471 387.438400
   2304   2316   2317     1   109.5600471 388.275200
   2304   2316   2318     1   109.5600471 388.275200
   2305   2304   2316     1   109.8000471 387.438400
   2305   2304   2306     1   107.5800459 329.699200
   2306   2304   2316     1   109.8000471 387.438400
   2307   2313   2314     1   109.5600471 388.275200
   2307   2313   2315     1   109.5600471 388.275200
   2308   2307   2313     1   109.8000471 387.438400
   2308   2307   2309     1   107.5800459 329.699200
   2309   2307   2313     1   109.8000471 387.438400
   2311   2310   2319     1   109.7800468 425.094400
   2311   2310   2312     1   108.4600466 328.025600
   2312   2310   2319     1   109.7800468 425.094400
   2314   2313   4254     1   109.7800468 425.094400
   2314   2313   2315     1   108.4600466 328.025600
   2315   2313   4254     1   109.7800468 425.094400
   2317   2316   4277     1   109.7800468 425.094400
   2317   2316   2318     1   108.4600466 328.025600
   2318   2316   4277     1   109.7800468 425.094400
   2320   2321   2322     1   109.8800469 414.216000
   2320   2321   2323     1   109.8800469 414.216000
   2320   2324   2325     1   109.8800469 414.216000
   2320   2324   2326     1   109.8800469 414.216000
   2320   2327   2328     1   109.8800469 414.216000
   2320   2327   2329     1   109.8800469 414.216000
   2321   2333   2334     1   109.8000471 387.438400
   2321   2333   2335     1   109.8000471 387.438400
   2322   2321   2333     1   109.5600471 388.275200
   2322   2321   2323     1   108.4600466 328.025600
   2323   2321   2333     1   109.5600471 388.275200
   2324   2336   2337     1   109.8000471 387.438400
   2324   2336   2338     1   109.8000471 387.438400
   2325   2324   2336     1   109.5600471 388.275200
   2325   2324   2326     1   108.4600466 328.025600
   2326   2324   2336     1   109.5600471 388.275200
   2327   2330   2331     1   109.8000471 387.438400
   2327   2330   2332     1   109.8000471 387.438400
   2328   2327   2330     1   109.5600471 388.275200
   2328   2327   2329     1   108.4600466 328.025600
   2329   2327   2330     1   109.5600471 388.275200
   2330   2339   2340     1   109.5600471 388.275200
   2330   2339   2341     1   109.5600471 388.275200
   2331   2330   2339     1   109.8000471 387.438400
   2331   2330   2332     1   107.5800459 329.699200
   2332   2330   2339     1   109.8000471 387.438400
   2333   2345   2346     1   109.5600471 388.275200
   2333   2345   2347     1   109.5600471 388.275200
   2334   2333   2345     1   109.8000471 387.438400
   2334   2333   2335     1   107.5800459 329.699200
   2335   2333   2345     1   109.8000471 387.438400
   2336   2342   2343     1   109.5600471 388.275200
   2336   2342   2344     1   109.5600471 388.275200
   2337   2336   2342     1   109.8000471 387.438400
   2337   2336   2338     1   107.5800459 329.699200
   2338   2336   2342     1   109.8000471 387.438400
   2340   2339   2348     1   109.7800468 425.094400
   2340   2339   2341     1   108.4600466 328.025600
   2341   2339   2348     1   109.7800468 425.094400
   2343   2342   4300     1   109.7800468 425.094400
   2343   2342   2344     1   108.4600466 328.025600
   2344   2342   4300     1   109.7800468 425.094400
   2346   2345   4323     1   109.7800468 425.094400
   2346   2345   2347     1   108.4600466 328.025600
   2347   2345   4323     1   109.7800468 425.094400
   2349   2350   2351     1   109.8800469 414.216000
   2349   2350   2352     1   109.8800469 414.216000
   2349   2353   2354     1   109.8800469 414.216000
   2349   2353   2355     1   109.8800469 414.216000
   2349   2356   2357     1   109.8800469 414.216000
   2349   2356   2358     1   109.8800469 414.216000
   2350   2362   2363     1   109.8000471 387.438400
   2350   2362   2364     1   109.8000471 387.438400
   2351   2350   2362     1   109.5600471 388.275200
   2351   2350   2352     1   108.4600466 328.025600
   2352   2350   2362     1   109.5600471 388.275200
   2353   2365   2366     1   109.8000471 387.438400
   2353   2365   2367     1   109.8000471 387.438400
   2354   2353   2365     1   109.5600471 388.275200
   2354   2353   2355     1   108.4600466 328.025600
   2355   2353   2365     1   109.5600471 388.275200
   2356   2359   2360     1   109.8000471 387.438400
   2356   2359   2361     1   109.8000471 387.438400
   2357   2356   2359     1   109.5600471 388.275200
   2357   2356   2358     1   108.4600466 328.025600
   2358   2356   2359     1   109.5600471 388.275200
   2359   2368   2369     1   109.5600471 388.275200
   2359   2368   2370     1   109.5600471 388.275200
   2360   2359   2368     1   109.8000471 387.438400
   2360   2359   2361     1   107.5800459 329.699200
   2361   2359   2368     1   109.8000471 387.438400
   2362   2374   2375     1   109.5600471 388.275200
   2362   2374   2376     1   109.5600471 388.275200
   2363   2362   2374     1   109.8000471 387.438400
   2363   2362   2364     1   107.5800459 329.699200
   2364   2362   2374     1   109.8000471 387.438400
   2365   2371   2372     1   109.5600471 388.275200
   2365   2371   2373     1   109.5600471 388.275200
   2366   2365   2371     1   109.8000471 387.438400
   2366   2365   2367     1   107.5800459 329.699200
   2367   2365   2371     1   109.8000471 387.438400
   2369   2368   2377     1   109.7800468 425.094400
   2369   2368   2370     1   108.4600466 328.025600
   2370   2368   2377     1   109.7800468 425.094400
   2372   2371   4346     1   109.7800468 425.094400
   2372   2371   2373     1   108.4600466 328.025600
   2373   2371   4346     1   109.7800468 425.094400
   2375   2374   4369     1   109.7800468 425.094400
   2375   2374   2376     1   108.4600466 328.025600
   2376   2374   4369     1   109.7800468 425.094400
   2378   2379   2380     1   109.8800469 414.216000
   2378   2379   2381     1   109.8800469 414.216000
   2378   2382   2383     1   109.8800469 414.216000
   2378   2382   2384     1   109.8800469 414.216000
   2378   2385   2386     1   109.8800469 414.216000
   2378   2385   2387     1   109.8800469 414.216000
   2379   2391   2392     1   109.8000471 387.438400
   2379   2391   2393     1   109.8000471 387.438400
   2380   2379   2391     1   109.5600471 388.275200
   2380   2379   2381     1   108.4600466 328.025600
   2381   2379   2391     1   109.5600471 388.275200
   2382   2394   2395     1   109.8000471 387.438400
   2382   2394   2396     1   109.8000471 387.438400
   2383   2382   2394     1   109.5600471 388.275200
   2383   2382   2384     1   108.4600466 328.025600
   2384   2382   2394     1   109.5600471 388.275200
   2385   2388   2389     1   109.8000471 387.438400
   2385   2388   2390     1   109.8000471 387.438400
   2386   2385   2388     1   109.5600471 388.275200
   2386   2385   2387     1   108.4600466 328.025600
   2387   2385   2388     1   109.5600471 388.275200
   2388   2397   2398     1   109.5600471 388.275200
   2388   2397   2399     1   109.5600471 388.275200
   2389   2388   2397     1   109.8000471 387.438400
   2389   2388   2390     1   107.5800459 329.699200
   2390   2388   2397     1   109.8000471 387.438400
   2391   2403   2404     1   109.5600471 388.275200
   2391   2403   2405     1   109.5600471 388.275200
   2392   2391   2403     1   109.8000471 387.438400
   2392   2391   2393     1   107.5800459 329.699200
   2393   2391   2403     1   109.8000471 387.438400
   2394   2400   2401     1   109.5600471 388.275200
   2394   2400   2402     1   109.5600471 388.275200
   2395   2394   2400     1   109.8000471 387.438400
   2395   2394   2396     1   107.5800459 329.699200
   2396   2394   2400     1   109.8000471 387.438400
   2398   2397   2406     1   109.7800468 425.094400
   2398   2397   2399     1   108.4600466 328.025600
   2399   2397   2406     1   109.7800468 425.094400
   2401   2400   4392     1   109.7800468 425.094400
   2401   2400   2402     1   108.4600466 328.025600
   2402   2400   4392     1   109.7800468 425.094400
   2404   2403   4415     1   109.7800468 425.094400
   2404   2403   2405     1   108.4600466 328.025600
   2405   2403   4415     1   109.7800468 425.094400
   2407   2408   2409     1   109.8800469 414.216000
   2407   2408   2410     1   109.8800469 414.216000
   2407   2411   2412     1   109.8800469 414.216000
   2407   2411   2413     1   109.8800469 414.216000
   2407   2414   2415     1   109.8800469 414.216000
   2407   2414   2416     1   109.8800469 414.216000
   2408   2420   2421     1   109.8000471 387.438400
   2408   2420   2422     1   109.8000471 387.438400
   2409   2408   2420     1   109.5600471 388.275200
   2409   2408   2410     1   108.4600466 328.025600
   2410   2408   2420     1   109.5600471 388.275200
   2411   2423   2424     1   109.8000471 387.438400
   2411   2423   2425     1   109.8000471 387.438400
   2412   2411   2423     1   109.5600471 388.275200
   2412   2411   2413     1   108.4600466 328.025600
   2413   2411   2423     1   109.5600471 388.275200
   2414   2417   2418     1   109.8000471 387.438400
   2414   2417   2419     1   109.8000471 387.438400
   2415   2414   2417     1   109.5600471 388.275200
   2415   2414   2416     1   108.4600466 328.025600
   2416   2414   2417     1   109.5600471 388.275200
   2417   2426   2427     1   109.5600471 388.275200
   2417   2426   2428     1   109.5600471 388.275200
   2418   2417   2426     1   109.8000471 387.438400
   2418   2417   2419     1   107.5800459 329.699200
   2419   2417   2426     1   109.8000471 387.438400
   2420   2432   2433     1   109.5600471 388.275200
   2420   2432   2434     1   109.5600471 388.275200
   2421   2420   2432     1   109.8000471 387.438400
   2421   2420   2422     1   107.5800459 329.699200
   2422   2420   2432     1   109.8000471 387.438400
   2423   2429   2430     1   109.5600471 388.275200
   2423   2429   2431     1   109.5600471 388.275200
   2424   2423   2429     1   109.8000471 387.438400
   2424   2423   2425     1   107.5800459 329.699200
   2425   2423   2429     1   109.8000471 387.438400
   2427   2426   2435     1   109.7800468 425.094400
   2427   2426   2428     1   108.4600466 328.025600
   2428   2426   2435     1   109.7800468 425.094400
   2430   2429   4438     1   109.7800468 425.094400
   2430   2429   2431     1   108.4600466 328.025600
   2431   2429   4438     1   109.7800468 425.094400
   2433   2432   4461     1   109.7800468 425.094400
   2433   2432   2434     1   108.4600466 328.025600
   2434   2432   4461     1   109.7800468 425.094400
   2436   2437   2438     1   109.8800469 414.216000
   2436   2437   2439     1   109.8800469 414.216000
   2436   2440   2441     1   109.8800469 414.216000
   2436   2440   2442     1   109.8800469 414.216000
   2436   2443   2444     1   109.8800469 414.216000
   2436   2443   2445     1   109.8800469 414.216000
   2437   2449   2450     1   109.8000471 387.438400
   2437   2449   2451     1   109.8000471 387.438400
   2438   2437   2449     1   109.5600471 388.275200
   2438   2437   2439     1   108.4600466 328.025600
   2439   2437   2449     1   109.5600471 388.275200
   2440   2452   2453     1   109.8000471 387.438400
   2440   2452   2454     1   109.8000471 387.438400
   2441   2440   2452     1   109.5600471 388.275200
   2441   2440   2442     1   108.4600466 328.025600
   2442   2440   2452     1   109.5600471 388.275200
   2443   2446   2447     1   109.8000471 387.438400
   2443   2446   2448     1   109.8000471 387.438400
   2444   2443   2446     1   109.5600471 388.275200
   2444   2443   2445     1   108.4600466 328.025600
   2445   2443   2446     1   109.5600471 388.275200
   2446   2455   2456     1   109.5600471 388.275200
   2446   2455   2457     1   109.5600471 388.275200
   2447   2446   2455     1   109.8000471 387.438400
   2447   2446   2448     1   107.5800459 329.699200
   2448   2446   2455     1   109.8000471 387.438400
   2449   2461   2462     1   109.5600471 388.275200
   2449   2461   2463     1   109.5600471 388.275200
   2450   2449   2461     1   109.8000471 387.438400
   2450   2449   2451     1   107.5800459 329.699200
   2451   2449   2461     1   109.8000471 387.438400
   2452   2458   2459     1   109.5600471 388.275200
   2452   2458   2460     1   109.5600471 388.275200
   2453   2452   2458     1   109.8000471 387.438400
   2453   2452   2454     1   107.5800459 329.699200
   2454   2452   2458     1   109.8000471 387.438400
   2456   2455   2464     1   109.7800468 425.094400
   2456   2455   2457     1   108.4600466 328.025600
   2457   2455   2464     1   109.7800468 425.094400
   2459   2458   4484     1   109.7800468 425.094400
   2459   2458   2460     1   108.4600466 328.025600
   2460   2458   4484     1   109.7800468 425.094400
   2462   2461   4507     1   109.7800468 425.094400
   2462   2461   2463     1   108.4600466 328.025600
   2463   2461   4507     1   109.7800468 425.094400
   2465   2466   2467     1   109.8800469 414.216000
   2465   2466   2468     1   109.8800469 414.216000
   2465   2469   2470     1   109.8800469 414.216000
   2465   2469   2471     1   109.8800469 414.216000
   2465   2472   2473     1   109.8800469 414.216000
   2465   2472   2474     1   109.8800469 414.216000
   2466   2478   2479     1   109.8000471 387.438400
   2466   2478   2480     1   109.8000471 387.438400
   2467   2466   2478     1   109.5600471 388.275200
   2467   2466   2468     1   108.4600466 328.025600
   2468   2466   2478     1   109.5600471 388.275200
   2469   2481   2482     1   109.8000471 387.438400
   2469   2481   2483     1   109.8000471 387.438400
   2470   2469   2481     1   109.5600471 388.275200
   2470   2469   2471     1   108.4600466 328.025600
   2471   2469   2481     1   109.5600471 388.275200
   2472   2475   2476     1   109.8000471 387.438400
   2472   2475   2477     1   109.8000471 387.438400
   2473   2472   2475     1   109.5600471 388.275200
   2473   2472   2474     1   108.4600466 328.025600
   2474   2472   2475     1   109.5600471 388.275200
   2475   2484   2485     1   109.5600471 388.275200
   2475   2484   2486     1   109.5600471 388.275200
   2476   2475   2484     1   109.8000471 387.438400
   2476   2475   2477     1   107.5800459 329.699200
   2477   2475   2484     1   109.8000471 387.438400
   2478   2490   2491     1   109.5600471 388.275200
   2478   2490   2492     1   109.5600471 388.275200
   2479   2478   2490     1   109.8000471 387.438400
   2479   2478   2480     1   107.5800459 329.699200
   2480   2478   2490     1   109.8000471 387.438400
   2481   2487   2488     1   109.5600471 388.275200
   2481   2487   2489     1   109.5600471 388.275200
   2482   2481   2487     1   109.8000471 387.438400
   2482   2481   2483     1   107.5800459 329.699200
   2483   2481   2487     1   109.8000471 387.438400
   2485   2484   2493     1   109.7800468 425.094400
   2485   2484   2486     1   108.4600466 328.025600
   2486   2484   2493     1   109.7800468 425.094400
   2488   2487   4530     1   109.7800468 425.094400
   2488   2487   2489     1   108.4600466 328.025600
   2489   2487   4530     1   109.7800468 425.094400
   2491   2490   4553     1   109.7800468 425.094400
   2491   2490   2492     1   108.4600466 328.025600
   2492   2490   4553     1   109.7800468 425.094400
   2494   2495   2496     1   109.8800469 414.216000
   2494   2495   2497     1   109.8800469 414.216000
   2494   2498   2499     1   109.8800469 414.216000
   2494   2498   2500     1   109.8800469 414.216000
   2494   2501   2502     1   109.8800469 414.216000
   2494   2501   2503     1   109.8800469 414.216000
   2495   2507   2508     1   109.8000471 387.438400
   2495   2507   2509     1   109.8000471 387.438400
   2496   2495   2507     1   109.5600471 388.275200
   2496   2495   2497     1   108.4600466 328.025600
   2497   2495   2507     1   109.5600471 388.275200
   2498   2510   2511     1   109.8000471 387.438400
   2498   2510   2512     1   109.8000471 387.438400
   2499   2498   2510     1   109.5600471 388.275200
   2499   2498   2500     1   108.4600466 328.025600
   2500   2498   2510     1   109.5600471 388.275200
   2501   2504   2505     1   109.8000471 387.438400
   2501   2504   2506     1   109.8000471 387.438400
   2502   2501   2504     1   109.5600471 388.275200
   2502   2501   2503     1   108.4600466 328.025600
   2503   2501   2504     1   109.5600471 388.275200
   2504   2513   2514     1   109.5600471 388.275200
   2504   2513   2515     1   109.5600471 388.275200
   2505   2504   2513     1   109.8000471 387.438400
   2505   2504   2506     1   107.5800459 329.699200
   2506   2504   2513     1   109.8000471 387.438400
   2507   2519   2520     1   109.5600471 388.275200
   2507   2519   2521     1   109.5600471 388.275200
   2508   2507   2519     1   109.8000471 387.438400
   2508   2507   2509     1   107.5800459 329.699200
   2509   2507   2519     1   109.8000471 387.438400
   2510   2516   2517     1   109.5600471 388.275200
   2510   2516   2518     1   109.5600471 388.275200
   2511   2510   2516     1   109.8000471 387.438400
   2511   2510   2512     1   107.5800459 329.699200
   2512   2510   2516     1   109.8000471 387.438400
   2514   2513   2522     1   109.7800468 425.094400
   2514   2513   2515     1   108.4600466 328.025600
   2515   2513   2522     1   109.7800468 425.094400
   2517   2516   4576     1   109.7800468 425.094400
   2517   2516   2518     1   108.4600466 328.025600
   2518   2516   4576     1   109.7800468 425.094400
   2520   2519   4599     1   109.7800468 425.094400
   2520   2519   2521     1   108.4600466 328.025600
   2521   2519   4599     1   109.7800468 425.094400
   2523   2524   2525     1   109.8800469 414.216000
   2523   2524   2526     1   109.8800469 414.216000
   2523   2527   2528     1   109.8800469 414.216000
   2523   2527   2529     1   109.8800469 414.216000
   2523   2530   2531     1   109.8800469 414.216000
   2523   2530   2532     1   109.8800469 414.216000
   2524   2536   2537     1   109.8000471 387.438400
   2524   2536   2538     1   109.8000471 387.438400
   2525   2524   2536     1   109.5600471 388.275200
   2525   2524   2526     1   108.4600466 328.025600
   2526   2524   2536     1   109.5600471 388.275200
   2527   2539   2540     1   109.8000471 387.438400
   2527   2539   2541     1   109.8000471 387.438400
   2528   2527   2539     1   109.5600471 388.275200
   2528   2527   2529     1   108.4600466 328.025600
   2529   2527   2539     1   109.5600471 388.275200
   2530   2533   2534     1   109.8000471 387.438400
   2530   2533   2535     1   109.8000471 387.438400
   2531   2530   2533     1   109.5600471 388.275200
   2531   2530   2532     1   108.4600466 328.025600
   2532   2530   2533     1   109.5600471 388.275200
   2533   2542   2543     1   109.5600471 388.275200
   2533   2542   2544     1   109.5600471 388.275200
   2534   2533   2542     1   109.8000471 387.438400
   2534   2533   2535     1   107.5800459 329.699200
   2535   2533   2542     1   109.8000471 387.438400
   2536   2548   2549     1   109.5600471 388.275200
   2536   2548   2550     1   109.5600471 388.275200
   2537   2536   2548     1   109.8000471 387.438400
   2537   2536   2538     1   107.5800459 329.699200
   2538   2536   2548     1   109.8000471 387.438400
   2539   2545   2546     1   109.5600471 388.275200
   2539   2545   2547     1   109.5600471 388.275200
   2540   2539   2545     1   109.8000471 387.438400
   2540   2539   2541     1   107.5800459 329.699200
   2541   2539   2545     1   109.8000471 387.438400
   2543   2542   2551     1   109.7800468 425.094400
   2543   2542   2544     1   108.4600466 328.025600
   2544   2542   2551     1   109.7800468 425.094400
   2546   2545   4622     1   109.7800468 425.094400
   2546   2545   2547     1   108.4600466 328.025600
   2547   2545   4622     1   109.7800468 425.094400
   2549   2548   4645     1   109.7800468 425.094400
   2549   2548   2550     1   108.4600466 328.025600
   2550   2548   4645     1   109.7800468 425.094400
   2552   2553   2554     1   109.8800469 414.216000
   2552   2553   2555     1   109.8800469 414.216000
   2552   2556   2557     1   109.8800469 414.216000
   2552   2556   2558     1   109.8800469 414.216000
   2552   2559   2560     1   109.8800469 414.216000
   2552   2559   2561     1   109.8800469 414.216000
   2553   2565   2566     1   109.8000471 387.438400
   2553   2565   2567     1   109.8000471 387.438400
   2554   2553   2565     1   109.5600471 388.275200
   2554   2553   2555     1   108.4600466 328.025600
   2555   2553   2565     1   109.5600471 388.275200
   2556   2568   2569     1   109.8000471 387.438400
   2556   2568   2570     1   109.8000471 387.438400
   2557   2556   2568     1   109.5600471 388.275200
   2557   2556   2558     1   108.4600466 328.025600
   2558   2556   2568     1   109.5600471 388.275200
   2559   2562   2563     1   109.8000471 387.438400
   2559   2562   2564     1   109.8000471 387.438400
   2560   2559   2562     1   109.5600471 388.275200
   2560   2559   2561     1   108.4600466 328.025600
   2561   2559   2562     1   109.5600471 388.275200
   2562   2571   2572     1   109.5600471 388.275200
   2562   2571   2573     1   109.5600471 388.275200
   2563   2562   2571     1   109.8000471 387.438400
   2563   2562   2564     1   107.5800459 329.699200
   2564   2562   2571     1   109.8000471 387.438400
   2565   2577   2578     1   109.5600471 388.275200
   2565   2577   2579     1   109.5600471 388.275200
   2566   2565   2577     1   109.8000471 387.438400
   2566   2565   2567     1   107.5800459 329.699200
   2567   2565   2577     1   109.8000471 387.438400
   2568   2574   2575     1   109.5600471 388.275200
   2568   2574   2576     1   109.5600471 388.275200
   2569   2568   2574     1   109.8000471 387.438400
   2569   2568   2570     1   107.5800459 329.699200
   2570   2568   2574     1   109.8000471 387.438400
   2572   2571   2580     1   109.7800468 425.094400
   2572   2571   2573     1   108.4600466 328.025600
   2573   2571   2580     1   109.7800468 425.094400
   2575   2574   4668     1   109.7800468 425.094400
   2575   2574   2576     1   108.4600466 328.025600
   2576   2574   4668     1   109.7800468 425.094400
   2578   2577   4691     1   109.7800468 425.094400
   2578   2577   2579     1   108.4600466 328.025600
   2579   2577   4691     1   109.7800468 425.094400
   2581   2582   2583     1   109.8800469 414.216000
   2581   2582   2584     1   109.8800469 414.216000
   2581   2585   2586     1   109.8800469 414.216000
   2581   2585   2587     1   109.8800469 414.216000
   2581   2588   2589     1   109.8800469 414.216000
   2581   2588   2590     1   109.8800469 414.216000
   2582   2594   2595     1   109.8000471 387.438400
   2582   2594   2596     1   109.8000471 387.438400
   2583   2582   2594     1   109.5600471 388.275200
   2583   2582   2584     1   108.4600466 328.025600
   2584   2582   2594     1   109.5600471 388.275200
   2585   2597   2598     1   109.8000471 387.438400
   2585   2597   2599     1   109.8000471 387.438400
   2586   2585   2597     1   109.5600471 388.275200
   2586   2585   2587     1   108.4600466 328.025600
   2587   2585   2597     1   109.5600471 388.275200
   2588   2591   2592     1   109.8000471 387.438400
   2588   2591   2593     1   109.8000471 387.438400
   2589   2588   2591     1   109.5600471 388.275200
   2589   2588   2590     1   108.4600466 328.025600
   2590   2588   2591     1   109.5600471 388.275200
   2591   2600   2601     1   109.5600471 388.275200
   2591   2600   2602     1   109.5600471 388.275200
   2592   2591   2600     1   109.8000471 387.438400
   2592   2591   2593     1   107.5800459 329.699200
   2593   2591   2600     1   109.8000471 387.438400
   2594   2606   2607     1   109.5600471 388.275200
   2594   2606   2608     1   109.5600471 388.275200
   2595   2594   2606     1   109.8000471 387.438400
   2595   2594   2596     1   107.5800459 329.699200
   2596   2594   2606     1   109.8000471 387.438400
   2597   2603   2604     1   109.5600471 388.275200
   2597   2603   2605     1   109.5600471 388.275200
   2598   2597   2603     1   109.8000471 387.438400
   2598   2597   2599     1   107.5800459 329.699200
   2599   2597   2603     1   109.8000471 387.438400
   2601   2600   2609     1   109.7800468 425.094400
   2601   2600   2602     1   108.4600466 328.025600
   2602   2600   2609     1   109.7800468 425.094400
   2604   2603   4714     1   109.7800468 425.094400
   2604   2603   2605     1   108.4600466 328.025600
   2605   2603   4714     1   109.7800468 425.094400
   2607   2606   4737     1   109.7800468 425.094400
   2607   2606   2608     1   108.4600466 328.025600
   2608   2606   4737     1   109.7800468 425.094400
   2610   2611   2612     1   109.8800469 414.216000
   2610   2611   2613     1   109.8800469 414.216000
   2610   2614   2615     1   109.8800469 414.216000
   2610   2614   2616     1   109.8800469 414.216000
   2610   2617   2618     1   109.8800469 414.216000
   2610   2617   2619     1   109.8800469 414.216000
   2611   2623   2624     1   109.8000471 387.438400
   2611   2623   2625     1   109.8000471 387.438400
   2612   2611   2623     1   109.5600471 388.275200
   2612   2611   2613     1   108.4600466 328.025600
   2613   2611   2623     1   109.5600471 388.275200
   2614   2626   2627     1   109.8000471 387.438400
   2614   2626   2628     1   109.8000471 387.438400
   2615   2614   2626     1   109.5600471 388.275200
   2615   2614   2616     1   108.4600466 328.025600
   2616   2614   2626     1   109.5600471 388.275200
   2617   2620   2621     1   109.8000471 387.438400
   2617   2620   2622     1   109.8000471 387.438400
   2618   2617   2620     1   109.5600471 388.275200
   2618   2617   2619     1   108.4600466 328.025600
   2619   2617   2620     1   109.5600471 388.275200
   2620   2629   2630     1   109.5600471 388.275200
   2620   2629   2631     1   109.5600471 388.275200
   2621   2620   2629     1   109.8000471 387.438400
   2621   2620   2622     1   107.5800459 329.699200
   2622   2620   2629     1   109.8000471 387.438400
   2623   2635   2636     1   109.5600471 388.275200
   2623   2635   2637     1   109.5600471 388.275200
   2624   2623   2635     1   109.8000471 387.438400
   2624   2623   2625     1   107.5800459 329.699200
   2625   2623   2635     1   109.8000471 387.438400
   2626   2632   2633     1   109.5600471 388.275200
   2626   2632   2634     1   109.5600471 388.275200
   2627   2626   2632     1   109.8000471 387.438400
   2627   2626   2628     1   107.5800459 329.699200
   2628   2626   2632     1   109.8000471 387.438400
   2630   2629   2638     1   109.7800468 425.094400
   2630   2629   2631     1   108.4600466 328.025600
   2631   2629   2638     1   109.7800468 425.094400
   2633   2632   4760     1   109.7800468 425.094400
   2633   2632   2634     1   108.4600466 328.025600
   2634   2632   4760     1   109.7800468 425.094400
   2636   2635   4783     1   109.7800468 425.094400
   2636   2635   2637     1   108.4600466 328.025600
   2637   2635   4783     1   109.7800468 425.094400
   2639   2640   2641     1   109.8800469 414.216000
   2639   2640   2642     1   109.8800469 414.216000
   2639   2643   2644     1   109.8800469 414.216000
   2639   2643   2645     1   109.8800469 414.216000
   2639   2646   2647     1   109.8800469 414.216000
   2639   2646   2648     1   109.8800469 414.216000
   2640   2652   2653     1   109.8000471 387.438400
   2640   2652   2654     1   109.8000471 387.438400
   2641   2640   2652     1   109.5600471 388.275200
   2641   2640   2642     1   108.4600466 328.025600
   2642   2640   2652     1   109.5600471 388.275200
   2643   2655   2656     1   109.8000471 387.438400
   2643   2655   2657     1   109.8000471 387.438400
   2644   2643   2655     1   109.5600471 388.275200
   2644   2643   2645     1   108.4600466 328.025600
   2645   2643   2655     1   109.5600471 388.275200
   2646   2649   2650     1   109.8000471 387.438400
   2646   2649   2651     1   109.8000471 387.438400
   2647   2646   2649     1   109.5600471 388.275200
   2647   2646   2648     1   108.4600466 328.025600
   2648   2646   2649     1   109.5600471 388.275200
   2649   2658   2659     1   109.5600471 388.275200
   2649   2658   2660     1   109.5600471 388.275200
   2650   2649   2658     1   109.8000471 387.438400
   2650   2649   2651     1   107.5800459 329.699200
   2651   2649   2658     1   109.8000471 387.438400
   2652   2664   2665     1   109.5600471 388.275200
   2652   2664   2666     1   109.5600471 388.275200
   2653   2652   2664     1   109.8000471 387.438400
   2653   2652   2654     1   107.5800459 329.699200
   2654   2652   2664     1   109.8000471 387.438400
   2655   2661   2662     1   109.5600471 388.275200
   2655   2661   2663     1   109.5600471 388.275200
   2656   2655   2661     1   109.8000471 387.438400
   2656   2655   2657     1   107.5800459 329.699200
   2657   2655   2661     1   109.8000471 387.438400
   2659   2658   2667     1   109.7800468 425.094400
   2659   2658   2660     1   108.4600466 328.025600
   2660   2658   2667     1   109.7800468 425.094400
   2662   2661   4806     1   109.7800468 425.094400
   2662   2661   2663     1   108.4600466 328.025600
   2663   2661   4806     1   109.7800468 425.094400
   2665   2664   4829     1   109.7800468 425.094400
   2665   2664   2666     1   108.4600466 328.025600
   2666   2664   4829     1   109.7800468 425.094400
   2668   2669   2670     1   109.8800469 414.216000
   2668   2669   2671     1   109.8800469 414.216000
   2668   2672   2673     1   109.8800469 414.216000
   2668   2672   2674     1   109.8800469 414.216000
   2668   2675   2676     1   109.8800469 414.216000
   2668   2675   2677     1   109.8800469 414.216000
   2669   2681   2682     1   109.8000471 387.438400
   2669   2681   2683     1   109.8000471 387.438400
   2670   2669   2681     1   109.5600471 388.275200
   2670   2669   2671     1   108.4600466 328.025600
   2671   2669   2681     1   109.5600471 388.275200
   2672   2684   2685     1   109.8000471 387.438400
   2672   2684   2686     1   109.8000471 387.438400
   2673   2672   2684     1   109.5600471 388.275200
   2673   2672   2674     1   108.4600466 328.025600
   2674   2672   2684     1   109.5600471 388.275200
   2675   2678   2679     1   109.8000471 387.438400
   2675   2678   2680     1   109.8000471 387.438400
   2676   2675   2678     1   109.5600471 388.275200
   2676   2675   2677     1   108.4600466 328.025600
   2677   2675   2678     1   109.5600471 388.275200
   2678   2687   2688     1   109.5600471 388.275200
   2678   2687   2689     1   109.5600471 388.275200
   2679   2678   2687     1   109.8000471 387.438400
   2679   2678   2680     1   107.5800459 329.699200
   2680   2678   2687     1   109.8000471 387.438400
   2681   2693   2694     1   109.5600471 388.275200
   2681   2693   2695     1   109.5600471 388.275200
   2682   2681   2693     1   109.8000471 387.438400
   2682   2681   2683     1   107.5800459 329.699200
   2683   2681   2693     1   109.8000471 387.438400
   2684   2690   2691     1   109.5600471 388.275200
   2684   2690   2692     1   109.5600471 388.275200
   2685   2684   2690     1   109.8000471 387.438400
   2685   2684   2686     1   107.5800459 329.699200
   2686   2684   2690     1   109.8000471 387.438400
   2688   2687   2696     1   109.7800468 425.094400
   2688   2687   2689     1   108.4600466 328.025600
   2689   2687   2696     1   109.7800468 425.094400
   2691   2690   4852     1   109.7800468 425.094400
   2691   2690   2692     1   108.4600466 328.025600
   2692   2690   4852     1   109.7800468 425.094400
   2694   2693   4875     1   109.7800468 425.094400
   2694   2693   2695     1   108.4600466 328.025600
   2695   2693   4875     1   109.7800468 425.094400
   2697   2698   2699     1   109.8800469 414.216000
   2697   2698   2700     1   109.8800469 414.216000
   2697   2701   2702     1   109.8800469 414.216000
   2697   2701   2703     1   109.8800469 414.216000
   2697   2704   2705     1   109.8800469 414.216000
   2697   2704   2706     1   109.8800469 414.216000
   2698   2710   2711     1   109.8000471 387.438400
   2698   2710   2712     1   109.8000471 387.438400
   2699   2698   2710     1   109.5600471 388.275200
   2699   2698   2700     1   108.4600466 328.025600
   2700   2698   2710     1   109.5600471 388.275200
   2701   2713   2714     1   109.8000471 387.438400
   2701   2713   2715     1   109.8000471 387.438400
   2702   2701   2713     1   109.5600471 388.275200
   2702   2701   2703     1   108.4600466 328.025600
   2703   2701   2713     1   109.5600471 388.275200
   2704   2707   2708     1   109.8000471 387.438400
   2704   2707   2709     1   109.8000471 387.438400
   2705   2704   2707     1   109.5600471 388.275200
   2705   2704   2706     1   108.4600466 328.025600
   2706   2704   2707     1   109.5600471 388.275200
   2707   2716   2717     1   109.5600471 388.275200
   2707   2716   2718     1   109.5600471 388.275200
   2708   2707   2716     1   109.8000471 387.438400
   2708   2707   2709     1   107.5800459 329.699200
   2709   2707   2716     1   109.8000471 387.438400
   2710   2722   2723     1   109.5600471 388.275200
   2710   2722   2724     1   109.5600471 388.275200
   2711   2710   2722     1   109.8000471 387.438400
   2711   2710   2712     1   107.5800459 329.699200
   2712   2710   2722     1   109.8000471 387.438400
   2713   2719   2720     1   109.5600471 388.275200
   2713   2719   2721     1   109.5600471 388.275200
   2714   2713   2719     1   109.8000471 387.438400
   2714   2713   2715     1   107.5800459 329.699200
   2715   2713   2719     1   109.8000471 387.438400
   2717   2716   2725     1   109.7800468 425.094400
   2717   2716   2718     1   108.4600466 328.025600
   2718   2716   2725     1   109.7800468 425.094400
   2720   2719   4898     1   109.7800468 425.094400
   2720   2719   2721     1   108.4600466 328.025600
   2721   2719   4898     1   109.7800468 425.094400
   2723   2722   4921     1   109.7800468 425.094400
   2723   2722   2724     1   108.4600466 328.025600
   2724   2722   4921     1   109.7800468 425.094400
   2726   2727   2729     1   109.5600471 388.275200
   2726   2740   2744     1   109.5600471 388.275200
   2726   2740   2745     1   109.5600471 388.275200
   2727   2726   2728     1   109.5600471 388.275200
   2727   2730   2734     1   109.5600471 388.275200
   2727   2739   2742     1   107.2600461 396.643200
   2728   2726   2740     1   109.5600471 388.275200
   2728   2726   2748     1   109.7800468 425.094400
   2729   2727   2730     1   109.5600471 388.275200
   2729   2727   2739     1   110.2600474 425.931200
   2730   2731   2733     1   109.5600471 388.275200
   2730   2738   2741     1   107.2600461 396.643200
   2731   2730   2734     1   109.5600471 388.275200
   2731   2732   2735     1   110.2200475 386.601600
   2731   2737   2743     1   107.2600461 396.643200
   2732   2731   2733     1   109.5600471 388.275200
   2733   2731   2737     1   110.2600474 425.931200
   2734   2730   2738     1   110.2600474 425.931200
   2735   2732   2736     1   109.5800467 425.931200
   2735   2732   2748     1   109.5800467 425.931200
   2740   2746   2747     1   107.2600461 396.643200
   2744   2740   2746     1   110.2600474 425.931200
   2744   2740   2745     1   108.4600466 328.025600
   2745   2740   2746     1   110.2600474 425.931200
   2749   2750   2752     1   109.5600471 388.275200
   2749   2763   2767     1   109.5600471 388.275200
   2749   2763   2768     1   109.5600471 388.275200
   2750   2753   2757     1   109.5600471 388.275200
   2750   2762   2765     1   107.2600461 396.643200
   2750   2749   2751     1   109.5600471 388.275200
   2751   2749   2763     1   109.5600471 388.275200
   2751   2749   2771     1   109.7800468 425.094400
   2752   2750   2753     1   109.5600471 388.275200
   2752   2750   2762     1   110.2600474 425.931200
   2753   2754   2756     1   109.5600471 388.275200
   2753   2761   2764     1   107.2600461 396.643200
   2754   2755   2758     1   110.2200475 386.601600
   2754   2760   2766     1   107.2600461 396.643200
   2754   2753   2757     1   109.5600471 388.275200
   2755   2754   2756     1   109.5600471 388.275200
   2756   2754   2760     1   110.2600474 425.931200
   2757   2753   2761     1   110.2600474 425.931200
   2758   2755   2759     1   109.5800467 425.931200
   2758   2755   2771     1   109.5800467 425.931200
   2763   2769   2770     1   107.2600461 396.643200
   2767   2763   2769     1   110.2600474 425.931200
   2767   2763   2768     1   108.4600466 328.025600
   2768   2763   2769     1   110.2600474 425.931200
   2772   2773   2775     1   109.5600471 388.275200
   2772   2786   2790     1   109.5600471 388.275200
   2772   2786   2791     1   109.5600471 388.275200
   2773   2772   2774     1   109.5600471 388.275200
   2773   2776   2780     1   109.5600471 388.275200
   2773   2785   2788     1   107.2600461 396.643200
   2774   2772   2786     1   109.5600471 388.275200
   2774   2772   2794     1   109.7800468 425.094400
   2775   2773   2776     1   109.5600471 388.275200
   2775   2773   2785     1   110.2600474 425.931200
   2776   2777   2779     1   109.5600471 388.275200
   2776   2784   2787     1   107.2600461 396.643200
   2777   2776   2780     1   109.5600471 388.275200
   2777   2778   2781     1   110.2200475 386.601600
   2777   2783   2789     1   107.2600461 396.643200
   2778   2777   2779     1   109.5600471 388.275200
   2779   2777   2783     1   110.2600474 425.931200
   2780   2776   2784     1   110.2600474 425.931200
   2781   2778   2782     1   109.5800467 425.931200
   2781   2778   2794     1   109.5800467 425.931200
   2786   2792   2793     1   107.2600461 396.643200
   2790   2786   2792     1   110.2600474 425.931200
   2790   2786   2791     1   108.4600466 328.025600
   2791   2786   2792     1   110.2600474 425.931200
   2795   2796   2798     1   109.5600471 388.275200
   2795   2809   2813     1   109.5600471 388.275200
   2795   2809   2814     1   109.5600471 388.275200
   2796   2799   2803     1   109.5600471 388.275200
   2796   2808   2811     1   107.2600461 396.643200
   2796   2795   2797     1   109.5600471 388.275200
   2797   2795   2809     1   109.5600471 388.275200
   2797   2795   2817     1   109.7800468 425.094400
   2798   2796   2799     1   109.5600471 388.275200
   2798   2796   2808     1   110.2600474 425.931200
   2799   2800   2802     1   109.5600471 388.275200
   2799   2807   2810     1   107.2600461 396.643200
   2800   2801   2804     1   110.2200475 386.601600
   2800   2806   2812     1   107.2600461 396.643200
   2800   2799   2803     1   109.5600471 388.275200
   2801   2800   2802     1   109.5600471 388.275200
   2802   2800   2806     1   110.2600474 425.931200
   2803   2799   2807     1   110.2600474 425.931200
   2804   2801   2805     1   109.5800467 425.931200
   2804   2801   2817     1   109.5800467 425.931200
   2809   2815   2816     1   107.2600461 396.643200
   2813   2809   2815     1   110.2600474 425.931200
   2813   2809   2814     1   108.4600466 328.025600
   2814   2809   2815     1   110.2600474 425.931200
   2818   2819   2821     1   109.5600471 388.275200
   2818   2832   2836     1   109.5600471 388.275200
   2818   2832   2837     1   109.5600471 388.275200
   2819   2818   2820     1   109.5600471 388.275200
   2819   2822   2826     1   109.5600471 388.275200
   2819   2831   2834     1   107.2600461 396.643200
   2820   2818   2832     1   109.5600471 388.275200
   2820   2818   2840     1   109.7800468 425.094400
   2821   2819   2822     1   109.5600471 388.275200
   2821   2819   2831     1   110.2600474 425.931200
   2822   2823   2825     1   109.5600471 388.275200
   2822   2830   2833     1   107.2600461 396.643200
   2823   2822   2826     1   109.5600471 388.275200
   2823   2824   2827     1   110.2200475 386.601600
   2823   2829   2835     1   107.2600461 396.643200
   2824   2823   2825     1   109.5600471 388.275200
   2825   2823   2829     1   110.2600474 425.931200
   2826   2822   2830     1   110.2600474 425.931200
   2827   2824   2828     1   109.5800467 425.931200
   2827   2824   2840     1   109.5800467 425.931200
   2832   2838   2839     1   107.2600461 396.643200
   2836   2832   2838     1   110.2600474 425.931200
   2836   2832   2837     1   108.4600466 328.025600
   2837   2832   2838     1   110.2600474 425.931200
   2841   2842   2844     1   109.5600471 388.275200
   2841   2855   2859     1   109.5600471 388.275200
   2841   2855   2860     1   109.5600471 388.275200
   2842   2845   2849     1   109.5600471 388.275200
   2842   2854   2857     1   107.2600461 396.643200
   2842   2841   2843     1   109.5600471 388.275200
   2843   2841   2855     1   109.5600471 388.275200
   2843   2841   2863     1   109.7800468 425.094400
   2844   2842   2845     1   109.5600471 388.275200
   2844   2842   2854     1   110.2600474 425.931200
   2845   2846   2848     1   109.5600471 388.275200
   2845   2853   2856     1   107.2600461 396.643200
   2846   2847   2850     1   110.2200475 386.601600
   2846   2852   2858     1   107.2600461 396.643200
   2846   2845   2849     1   109.5600471 388.275200
   2847   2846   2848     1   109.5600471 388.275200
   2848   2846   2852     1   110.2600474 425.931200
   2849   2845   2853     1   110.2600474 425.931200
   2850   2847   2851     1   109.5800467 425.931200
   2850   2847   2863     1   109.5800467 425.931200
   2855   2861   2862     1   107.2600461 396.643200
   2859   2855   2861     1   110.2600474 425.931200
   2859   2855   2860     1   108.4600466 328.025600
   2860   2855   2861     1   110.2600474 425.931200
   2864   2865   2867     1   109.5600471 388.275200
   2864   2878   2882     1   109.5600471 388.275200
   2864   2878   2883     1   109.5600471 388.275200
   2865   2864   2866     1   109.5600471 388.275200
   2865   2868   2872     1   109.5600471 388.275200
   2865   2877   2880     1   107.2600461 396.643200
   2866   2864   2878     1   109.5600471 388.275200
   2866   2864   2886     1   109.7800468 425.094400
   2867   2865   2868     1   109.5600471 388.275200
   2867   2865   2877     1   110.2600474 425.931200
   2868   2869   2871     1   109.5600471 388.275200
   2868   2876   2879     1   107.2600461 396.643200
   2869   2868   2872     1   109.5600471 388.275200
   2869   2870   2873     1   110.2200475 386.601600
   2869   2875   2881     1   107.2600461 396.643200
   2870   2869   2871     1   109.5600471 388.275200
   2871   2869   2875     1   110.2600474 425.931200
   2872   2868   2876     1   110.2600474 425.931200
   2873   2870   2874     1   109.5800467 425.931200
   2873   2870   2886     1   109.5800467 425.931200
   2878   2884   2885     1   107.2600461 396.643200
   2882   2878   2884     1   110.2600474 425.931200
   2882   2878   2883     1   108.4600466 328.025600
   2883   2878   2884     1   110.2600474 425.931200
   2887   2888   2890     1   109.5600471 388.275200
   2887   2901   2905     1   109.5600471 388.275200
   2887   2901   2906     1   109.5600471 388.275200
   2888   2891   2895     1   109.5600471 388.275200
   2888   2900   2903     1   107.2600461 396.643200
   2888   2887   2889     1   109.5600471 388.275200
   2889   2887   2901     1   109.5600471 388.275200
   2889   2887   2909     1   109.7800468 425.094400
   2890   2888   2891     1   109.5600471 388.275200
   2890   2888   2900     1   110.2600474 425.931200
   2891   2892   2894     1   109.5600471 388.275200
   2891   2899   2902     1   107.2600461 396.643200
   2892   2893   2896     1   110.2200475 386.601600
   2892   2898   2904     1   107.2600461 396.643200
   2892   2891   2895     1   109.5600471 388.275200
   2893   2892   2894     1   109.5600471 388.275200
   2894   2892   2898     1   110.2600474 425.931200
   2895   2891   2899     1   110.2600474 425.931200
   2896   2893   2897     1   109.5800467 425.931200
   2896   2893   2909     1   109.5800467 425.931200
   2901   2907   2908     1   107.2600461 396.643200
   2905   2901   2907     1   110.2600474 425.931200
   2905   2901   2906     1   108.4600466 328.025600
   2906   2901   2907     1   110.2600474 425.931200
   2910   2911   2913     1   109.5600471 388.275200
   2910   2924   2928     1   109.5600471 388.275200
   2910   2924   2929     1   109.5600471 388.275200
   2911   2910   2912     1   109.5600471 388.275200
   2911   2914   2918     1   109.5600471 388.275200
   2911   2923   2926     1   107.2600461 396.643200
   2912   2910   2924     1   109.5600471 388.275200
   2912   2910   2932     1   109.7800468 425.094400
   2913   2911   2914     1   109.5600471 388.275200
   2913   2911   2923     1   110.2600474 425.931200
   2914   2915   2917     1   109.5600471 388.275200
   2914   2922   2925     1   107.2600461 396.643200
   2915   2914   2918     1   109.5600471 388.275200
   2915   2916   2919     1   110.2200475 386.601600
   2915   2921   2927     1   107.2600461 396.643200
   2916   2915   2917     1   109.5600471 388.275200
   2917   2915   2921     1   110.2600474 425.931200
   2918   2914   2922     1   110.2600474 425.931200
   2919   2916   2920     1   109.5800467 425.931200
   2919   2916   2932     1   109.5800467 425.931200
   2924   2930   2931     1   107.2600461 396.643200
   2928   2924   2930     1   110.2600474 425.931200
   2928   2924   2929     1   108.4600466 328.025600
   2929   2924   2930     1   110.2600474 425.931200
   2933   2934   2936     1   109.5600471 388.275200
   2933   2947   2951     1   109.5600471 388.275200
   2933   2947   2952     1   109.5600471 388.275200
   2934   2937   2941     1   109.5600471 388.275200
   2934   2946   2949     1   107.2600461 396.643200
   2934   2933   2935     1   109.5600471 388.275200
   2935   2933   2947     1   109.5600471 388.275200
   2935   2933   2955     1   109.7800468 425.094400
   2936   2934   2937     1   109.5600471 388.275200
   2936   2934   2946     1   110.2600474 425.931200
   2937   2938   2940     1   109.5600471 388.275200
   2937   2945   2948     1   107.2600461 396.643200
   2938   2939   2942     1   110.2200475 386.601600
   2938   2944   2950     1   107.2600461 396.643200
   2938   2937   2941     1   109.5600471 388.275200
   2939   2938   2940     1   109.5600471 388.275200
   2940   2938   2944     1   110.2600474 425.931200
   2941   2937   2945     1   110.2600474 425.931200
   2942   2939   2943     1   109.5800467 425.931200
   2942   2939   2955     1   109.5800467 425.931200
   2947   2953   2954     1   107.2600461 396.643200
   2951   2947   2953     1   110.2600474 425.931200
   2951   2947   2952     1   108.4600466 328.025600
   2952   2947   2953     1   110.2600474 425.931200
   2956   2957   2959     1   109.5600471 388.275200
   2956   2970   2974     1   109.5600471 388.275200
   2956   2970   2975     1   109.5600471 388.275200
   2957   2956   2958     1   109.5600471 388.275200
   2957   2960   2964     1   109.5600471 388.275200
   2957   2969   2972     1   107.2600461 396.643200
   2958   2956   2970     1   109.5600471 388.275200
   2958   2956   2978     1   109.7800468 425.094400
   2959   2957   2960     1   109.5600471 388.275200
   2959   2957   2969     1   110.2600474 425.931200
   2960   2961   2963     1   109.5600471 388.275200
   2960   2968   2971     1   107.2600461 396.643200
   2961   2960   2964     1   109.5600471 388.275200
   2961   2962   2965     1   110.2200475 386.601600
   2961   2967   2973     1   107.2600461 396.643200
   2962   2961   2963     1   109.5600471 388.275200
   2963   2961   2967     1   110.2600474 425.931200
   2964   2960   2968     1   110.2600474 425.931200
   2965   2962   2966     1   109.5800467 425.931200
   2965   2962   2978     1   109.5800467 425.931200
   2970   2976   2977     1   107.2600461 396.643200
   2974   2970   2976     1   110.2600474 425.931200
   2974   2970   2975     1   108.4600466 328.025600
   2975   2970   2976     1   110.2600474 425.931200
   2979   2980   2982     1   109.5600471 388.275200
   2979   2993   2997     1   109.5600471 388.275200
   2979   2993   2998     1   109.5600471 388.275200
   2980   2983   2987     1   109.5600471 388.275200
   2980   2992   2995     1   107.2600461 396.643200
   2980   2979   2981     1   109.5600471 388.275200
   2981   2979   2993     1   109.5600471 388.275200
   2981   2979   3001     1   109.7800468 425.094400
   2982   2980   2983     1   109.5600471 388.275200
   2982   2980   2992     1   110.2600474 425.931200
   2983   2984   2986     1   109.5600471 388.275200
   2983   2991   2994     1   107.2600461 396.643200
   2984   2985   2988     1   110.2200475 386.601600
   2984   2990   2996     1   107.2600461 396.643200
   2984   2983   2987     1   109.5600471 388.275200
   2985   2984   2986     1   109.5600471 388.275200
   2986   2984   2990     1   110.2600474 425.931200
   2987   2983   2991     1   110.2600474 425.931200
   2988   2985   2989     1   109.5800467 425.931200
   2988   2985   3001     1   109.5800467 425.931200
   2993   2999   3000     1   107.2600461 396.643200
   2997   2993   2999     1   110.2600474 425.931200
   2997   2993   2998     1   108.4600466 328.025600
   2998   2993   2999     1   110.2600474 425.931200
   3002   3003   3005     1   109.5600471 388.275200
   3002   3016   3020     1   109.5600471 388.275200
   3002   3016   3021     1   109.5600471 388.275200
   3003   3002   3004     1   109.5600471 388.275200
   3003   3006   3010     1   109.5600471 388.275200
   3003   3015   3018     1   107.2600461 396.643200
   3004   3002   3016     1   109.5600471 388.275200
   3004   3002   3024     1   109.7800468 425.094400
   3005   3003   3006     1   109.5600471 388.275200
   3005   3003   3015     1   110.2600474 425.931200
   3006   3007   3009     1   109.5600471 388.275200
   3006   3014   3017     1   107.2600461 396.643200
   3007   3006   3010     1   109.5600471 388.275200
   3007   3008   3011     1   110.2200475 386.601600
   3007   3013   3019     1   107.2600461 396.643200
   3008   3007   3009     1   109.5600471 388.275200
   3009   3007   3013     1   110.2600474 425.931200
   3010   3006   3014     1   110.2600474 425.931200
   3011   3008   3012     1   109.5800467 425.931200
   3011   3008   3024     1   109.5800467 425.931200
   3016   3022   3023     1   107.2600461 396.643200
   3020   3016   3022     1   110.2600474 425.931200
   3020   3016   3021     1   108.4600466 328.025600
   3021   3016   3022     1   110.2600474 425.931200
   3025   3026   3028     1   109.5600471 388.275200
   3025   3039   3043     1   109.5600471 388.275200
   3025   3039   3044     1   109.5600471 388.275200
   3026   3029   3033     1   109.5600471 388.275200
   3026   3038   3041     1   107.2600461 396.643200
   3026   3025   3027     1   109.5600471 388.275200
   3027   3025   3039     1   109.5600471 388.275200
   3027   3025   3047     1   109.7800468 425.094400
   3028   3026   3029     1   109.5600471 388.275200
   3028   3026   3038     1   110.2600474 425.931200
   3029   3030   3032     1   109.5600471 388.275200
   3029   3037   3040     1   107.2600461 396.643200
   3030   3031   3034     1   110.2200475 386.601600
   3030   3036   3042     1   107.2600461 396.643200
   3030   3029   3033     1   109.5600471 388.275200
   3031   3030   3032     1   109.5600471 388.275200
   3032   3030   3036     1   110.2600474 425.931200
   3033   3029   3037     1   110.2600474 425.931200
   3034   3031   3035     1   109.5800467 425.931200
   3034   3031   3047     1   109.5800467 425.931200
   3039   3045   3046     1   107.2600461 396.643200
   3043   3039   3045     1   110.2600474 425.931200
   3043   3039   3044     1   108.4600466 328.025600
   3044   3039   3045     1   110.2600474 425.931200
   3048   3049   3051     1   109.5600471 388.275200
   3048   3062   3066     1   109.5600471 388.275200
   3048   3062   3067     1   109.5600471 388.275200
   3049   3048   3050     1   109.5600471 388.275200
   3049   3052   3056     1   109.5600471 388.275200
   3049   3061   3064     1   107.2600461 396.643200
   3050   3048   3062     1   109.5600471 388.275200
   3050   3048   3070     1   109.7800468 425.094400
   3051   3049   3052     1   109.5600471 388.275200
   3051   3049   3061     1   110.2600474 425.931200
   3052   3053   3055     1   109.5600471 388.275200
   3052   3060   3063     1   107.2600461 396.643200
   3053   3052   3056     1   109.5600471 388.275200
   3053   3054   3057     1   110.2200475 386.601600
   3053   3059   3065     1   107.2600461 396.643200
   3054   3053   3055     1   109.5600471 388.275200
   3055   3053   3059     1   110.2600474 425.931200
   3056   3052   3060     1   110.2600474 425.931200
   3057   3054   3058     1   109.5800467 425.931200
   3057   3054   3070     1   109.5800467 425.931200
   3062   3068   3069     1   107.2600461 396.643200
   3066   3062   3068     1   110.2600474 425.931200
   3066   3062   3067     1   108.4600466 328.025600
   3067   3062   3068     1   110.2600474 425.931200
   3071   3072   3074     1   109.5600471 388.275200
   3071   3085   3089     1   109.5600471 388.275200
   3071   3085   3090     1   109.5600471 388.275200
   3072   3075   3079     1   109.5600471 388.275200
   3072   3084   3087     1   107.2600461 396.643200
   3072   3071   3073     1   109.5600471 388.275200
   3073   3071   3085     1   109.5600471 388.275200
   3073   3071   3093     1   109.7800468 425.094400
   3074   3072   3075     1   109.5600471 388.275200
   3074   3072   3084     1   110.2600474 425.931200
   3075   3076   3078     1   109.5600471 388.275200
   3075   3083   3086     1   107.2600461 396.643200
   3076   3077   3080     1   110.2200475 386.601600
   3076   3082   3088     1   107.2600461 396.643200
   3076   3075   3079     1   109.5600471 388.275200
   3077   3076   3078     1   109.5600471 388.275200
   3078   3076   3082     1   110.2600474 425.931200
   3079   3075   3083     1   110.2600474 425.931200
   3080   3077   3081     1   109.5800467 425.931200
   3080   3077   3093     1   109.5800467 425.931200
   3085   3091   3092     1   107.2600461 396.643200
   3089   3085   3091     1   110.2600474 425.931200
   3089   3085   3090     1   108.4600466 328.025600
   3090   3085   3091     1   110.2600474 425.931200
   3094   3095   3097     1   109.5600471 388.275200
   3094   3108   3112     1   109.5600471 388.275200
   3094   3108   3113     1   109.5600471 388.275200
   3095   3094   3096     1   109.5600471 388.275200
   3095   3098   3102     1   109.5600471 388.275200
   3095   3107   3110     1   107.2600461 396.643200
   3096   3094   3108     1   109.5600471 388.275200
   3096   3094   3116     1   109.7800468 425.094400
   3097   3095   3098     1   109.5600471 388.275200
   3097   3095   3107     1   110.2600474 425.931200
   3098   3099   3101     1   109.5600471 388.275200
   3098   3106   3109     1   107.2600461 396.643200
   3099   3098   3102     1   109.5600471 388.275200
   3099   3100   3103     1   110.2200475 386.601600
   3099   3105   3111     1   107.2600461 396.643200
   3100   3099   3101     1   109.5600471 388.275200
   3101   3099   3105     1   110.2600474 425.931200
   3102   3098   3106     1   110.2600474 425.931200
   3103   3100   3104     1   109.5800467 425.931200
   3103   3100   3116     1   109.5800467 425.931200
   3108   3114   3115     1   107.2600461 396.643200
   3112   3108   3114     1   110.2600474 425.931200
   3112   3108   3113     1   108.4600466 328.025600
   3113   3108   3114     1   110.2600474 425.931200
   3117   3118   3120     1   109.5600471 388.275200
   3117   3131   3135     1   109.5600471 388.275200
   3117   3131   3136     1   109.5600471 388.275200
   3118   3121   3125     1   109.5600471 388.275200
   3118   3130   3133     1   107.2600461 396.643200
   3118   3117   3119     1   109.5600471 388.275200
   3119   3117   3131     1   109.5600471 388.275200
   3119   3117   3139     1   109.7800468 425.094400
   3120   3118   3121     1   109.5600471 388.275200
   3120   3118   3130     1   110.2600474 425.931200
   3121   3122   3124     1   109.5600471 388.275200
   3121   3129   3132     1   107.2600461 396.643200
   3122   3123   3126     1   110.2200475 386.601600
   3122   3128   3134     1   107.2600461 396.643200
   3122   3121   3125     1   109.5600471 388.275200
   3123   3122   3124     1   109.5600471 388.275200
   3124   3122   3128     1   110.2600474 425.931200
   3125   3121   3129     1   110.2600474 425.931200
   3126   3123   3127     1   109.5800467 425.931200
   3126   3123   3139     1   109.5800467 425.931200
   3131   3137   3138     1   107.2600461 396.643200
   3135   3131   3137     1   110.2600474 425.931200
   3135   3131   3136     1   108.4600466 328.025600
   3136   3131   3137     1   110.2600474 425.931200
   3140   3141   3143     1   109.5600471 388.275200
   3140   3154   3158     1   109.5600471 388.275200
   3140   3154   3159     1   109.5600471 388.275200
   3141   3140   3142     1   109.5600471 388.275200
   3141   3144   3148     1   109.5600471 388.275200
   3141   3153   3156     1   107.2600461 396.643200
   3142   3140   3154     1   109.5600471 388.275200
   3142   3140   3162     1   109.7800468 425.094400
   3143   3141   3144     1   109.5600471 388.275200
   3143   3141   3153     1   110.2600474 425.931200
   3144   3145   3147     1   109.5600471 388.275200
   3144   3152   3155     1   107.2600461 396.643200
   3145   3144   3148     1   109.5600471 388.275200
   3145   3146   3149     1   110.2200475 386.601600
   3145   3151   3157     1   107.2600461 396.643200
   3146   3145   3147     1   109.5600471 388.275200
   3147   3145   3151     1   110.2600474 425.931200
   3148   3144   3152     1   110.2600474 425.931200
   3149   3146   3150     1   109.5800467 425.931200
   3149   3146   3162     1   109.5800467 425.931200
   3154   3160   3161     1   107.2600461 396.643200
   3158   3154   3160     1   110.2600474 425.931200
   3158   3154   3159     1   108.4600466 328.025600
   3159   3154   3160     1   110.2600474 425.931200
   3163   3164   3166     1   109.5600471 388.275200
   3163   3177   3181     1   109.5600471 388.275200
   3163   3177   3182     1   109.5600471 388.275200
   3164   3167   3171     1   109.5600471 388.275200
   3164   3176   3179     1   107.2600461 396.643200
   3164   3163   3165     1   109.5600471 388.275200
   3165   3163   3177     1   109.5600471 388.275200
   3165   3163   3185     1   109.7800468 425.094400
   3166   3164   3167     1   109.5600471 388.275200
   3166   3164   3176     1   110.2600474 425.931200
   3167   3168   3170     1   109.5600471 388.275200
   3167   3175   3178     1   107.2600461 396.643200
   3168   3169   3172     1   110.2200475 386.601600
   3168   3174   3180     1   107.2600461 396.643200
   3168   3167   3171     1   109.5600471 388.275200
   3169   3168   3170     1   109.5600471 388.275200
   3170   3168   3174     1   110.2600474 425.931200
   3171   3167   3175     1   110.2600474 425.931200
   3172   3169   3173     1   109.5800467 425.931200
   3172   3169   3185     1   109.5800467 425.931200
   3177   3183   3184     1   107.2600461 396.643200
   3181   3177   3183     1   110.2600474 425.931200
   3181   3177   3182     1   108.4600466 328.025600
   3182   3177   3183     1   110.2600474 425.931200
   3186   3187   3189     1   109.5600471 388.275200
   3186   3200   3204     1   109.5600471 388.275200
   3186   3200   3205     1   109.5600471 388.275200
   3187   3186   3188     1   109.5600471 388.275200
   3187   3190   3194     1   109.5600471 388.275200
   3187   3199   3202     1   107.2600461 396.643200
   3188   3186   3200     1   109.5600471 388.275200
   3188   3186   3208     1   109.7800468 425.094400
   3189   3187   3190     1   109.5600471 388.275200
   3189   3187   3199     1   110.2600474 425.931200
   3190   3191   3193     1   109.5600471 388.275200
   3190   3198   3201     1   107.2600461 396.643200
   3191   3190   3194     1   109.5600471 388.275200
   3191   3192   3195     1   110.2200475 386.601600
   3191   3197   3203     1   107.2600461 396.643200
   3192   3191   3193     1   109.5600471 388.275200
   3193   3191   3197     1   110.2600474 425.931200
   3194   3190   3198     1   110.2600474 425.931200
   3195   3192   3196     1   109.5800467 425.931200
   3195   3192   3208     1   109.5800467 425.931200
   3200   3206   3207     1   107.2600461 396.643200
   3204   3200   3206     1   110.2600474 425.931200
   3204   3200   3205     1   108.4600466 328.025600
   3205   3200   3206     1   110.2600474 425.931200
   3209   3210   3212     1   109.5600471 388.275200
   3209   3223   3227     1   109.5600471 388.275200
   3209   3223   3228     1   109.5600471 388.275200
   3210   3213   3217     1   109.5600471 388.275200
   3210   3222   3225     1   107.2600461 396.643200
   3210   3209   3211     1   109.5600471 388.275200
   3211   3209   3223     1   109.5600471 388.275200
   3211   3209   3231     1   109.7800468 425.094400
   3212   3210   3213     1   109.5600471 388.275200
   3212   3210   3222     1   110.2600474 425.931200
   3213   3214   3216     1   109.5600471 388.275200
   3213   3221   3224     1   107.2600461 396.643200
   3214   3215   3218     1   110.2200475 386.601600
   3214   3220   3226     1   107.2600461 396.643200
   3214   3213   3217     1   109.5600471 388.275200
   3215   3214   3216     1   109.5600471 388.275200
   3216   3214   3220     1   110.2600474 425.931200
   3217   3213   3221     1   110.2600474 425.931200
   3218   3215   3219     1   109.5800467 425.931200
   3218   3215   3231     1   109.5800467 425.931200
   3223   3229   3230     1   107.2600461 396.643200
   3227   3223   3229     1   110.2600474 425.931200
   3227   3223   3228     1   108.4600466 328.025600
   3228   3223   3229     1   110.2600474 425.931200
   3232   3233   3235     1   109.5600471 388.275200
   3232   3246   3250     1   109.5600471 388.275200
   3232   3246   3251     1   109.5600471 388.275200
   3233   3232   3234     1   109.5600471 388.275200
   3233   3236   3240     1   109.5600471 388.275200
   3233   3245   3248     1   107.2600461 396.643200
   3234   3232   3246     1   109.5600471 388.275200
   3234   3232   3254     1   109.7800468 425.094400
   3235   3233   3236     1   109.5600471 388.275200
   3235   3233   3245     1   110.2600474 425.931200
   3236   3237   3239     1   109.5600471 388.275200
   3236   3244   3247     1   107.2600461 396.643200
   3237   3236   3240     1   109.5600471 388.275200
   3237   3238   3241     1   110.2200475 386.601600
   3237   3243   3249     1   107.2600461 396.643200
   3238   3237   3239     1   109.5600471 388.275200
   3239   3237   3243     1   110.2600474 425.931200
   3240   3236   3244     1   110.2600474 425.931200
   3241   3238   3242     1   109.5800467 425.931200
   3241   3238   3254     1   109.5800467 425.931200
   3246   3252   3253     1   107.2600461 396.643200
   3250   3246   3252     1   110.2600474 425.931200
   3250   3246   3251     1   108.4600466 328.025600
   3251   3246   3252     1   110.2600474 425.931200
   3255   3256   3258     1   109.5600471 388.275200
   3255   3269   3273     1   109.5600471 388.275200
   3255   3269   3274     1   109.5600471 388.275200
   3256   3259   3263     1   109.5600471 388.275200
   3256   3268   3271     1   107.2600461 396.643200
   3256   3255   3257     1   109.5600471 388.275200
   3257   3255   3269     1   109.5600471 388.275200
   3257   3255   3277     1   109.7800468 425.094400
   3258   3256   3259     1   109.5600471 388.275200
   3258   3256   3268     1   110.2600474 425.931200
   3259   3260   3262     1   109.5600471 388.275200
   3259   3267   3270     1   107.2600461 396.643200
   3260   3261   3264     1   110.2200475 386.601600
   3260   3266   3272     1   107.2600461 396.643200
   3260   3259   3263     1   109.5600471 388.275200
   3261   3260   3262     1   109.5600471 388.275200
   3262   3260   3266     1   110.2600474 425.931200
   3263   3259   3267     1   110.2600474 425.931200
   3264   3261   3265     1   109.5800467 425.931200
   3264   3261   3277     1   109.5800467 425.931200
   3269   3275   3276     1   107.2600461 396.643200
   3273   3269   3275     1   110.2600474 425.931200
   3273   3269   3274     1   108.4600466 328.025600
   3274   3269   3275     1   110.2600474 425.931200
   3278   3279   3281     1   109.5600471 388.275200
   3278   3292   3296     1   109.5600471 388.275200
   3278   3292   3297     1   109.5600471 388.275200
   3279   3278   3280     1   109.5600471 388.275200
   3279   3282   3286     1   109.5600471 388.275200
   3279   3291   3294     1   107.2600461 396.643200
   3280   3278   3292     1   109.5600471 388.275200
   3280   3278   3300     1   109.7800468 425.094400
   3281   3279   3282     1   109.5600471 388.275200
   3281   3279   3291     1   110.2600474 425.931200
   3282   3283   3285     1   109.5600471 388.275200
   3282   3290   3293     1   107.2600461 396.643200
   3283   3282   3286     1   109.5600471 388.275200
   3283   3284   3287     1   110.2200475 386.601600
   3283   3289   3295     1   107.2600461 396.643200
   3284   3283   3285     1   109.5600471 388.275200
   3285   3283   3289     1   110.2600474 425.931200
   3286   3282   3290     1   110.2600474 425.931200
   3287   3284   3288     1   109.5800467 425.931200
   3287   3284   3300     1   109.5800467 425.931200
   3292   3298   3299     1   107.2600461 396.643200
   3296   3292   3298     1   110.2600474 425.931200
   3296   3292   3297     1   108.4600466 328.025600
   3297   3292   3298     1   110.2600474 425.931200
   3301   3302   3304     1   109.5600471 388.275200
   3301   3315   3319     1   109.5600471 388.275200
   3301   3315   3320     1   109.5600471 388.275200
   3302   3305   3309     1   109.5600471 388.275200
   3302   3314   3317     1   107.2600461 396.643200
   3302   3301   3303     1   109.5600471 388.275200
   3303   3301   3315     1   109.5600471 388.275200
   3303   3301   3323     1   109.7800468 425.094400
   3304   3302   3305     1   109.5600471 388.275200
   3304   3302   3314     1   110.2600474 425.931200
   3305   3306   3308     1   109.5600471 388.275200
   3305   3313   3316     1   107.2600461 396.643200
   3306   3307   3310     1   110.2200475 386.601600
   3306   3312   3318     1   107.2600461 396.643200
   3306   3305   3309     1   109.5600471 388.275200
   3307   3306   3308     1   109.5600471 388.275200
   3308   3306   3312     1   110.2600474 425.931200
   3309   3305   3313     1   110.2600474 425.931200
   3310   3307   3311     1   109.5800467 425.931200
   3310   3307   3323     1   109.5800467 425.931200
   3315   3321   3322     1   107.2600461 396.643200
   3319   3315   3321     1   110.2600474 425.931200
   3319   3315   3320     1   108.4600466 328.025600
   3320   3315   3321     1   110.2600474 425.931200
   3324   3325   3327     1   109.5600471 388.275200
   3324   3338   3342     1   109.5600471 388.275200
   3324   3338   3343     1   109.5600471 388.275200
   3325   3324   3326     1   109.5600471 388.275200
   3325   3328   3332     1   109.5600471 388.275200
   3325   3337   3340     1   107.2600461 396.643200
   3326   3324   3338     1   109.5600471 388.275200
   3326   3324   3346     1   109.7800468 425.094400
   3327   3325   3328     1   109.5600471 388.275200
   3327   3325   3337     1   110.2600474 425.931200
   3328   3329   3331     1   109.5600471 388.275200
   3328   3336   3339     1   107.2600461 396.643200
   3329   3328   3332     1   109.5600471 388.275200
   3329   3330   3333     1   110.2200475 386.601600
   3329   3335   3341     1   107.2600461 396.643200
   3330   3329   3331     1   109.5600471 388.275200
   3331   3329   3335     1   110.2600474 425.931200
   3332   3328   3336     1   110.2600474 425.931200
   3333   3330   3334     1   109.5800467 425.931200
   3333   3330   3346     1   109.5800467 425.931200
   3338   3344   3345     1   107.2600461 396.643200
   3342   3338   3344     1   110.2600474 425.931200
   3342   3338   3343     1   108.4600466 328.025600
   3343   3338   3344     1   110.2600474 425.931200
   3347   3348   3350     1   109.5600471 388.275200
   3347   3361   3365     1   109.5600471 388.275200
   3347   3361   3366     1   109.5600471 388.275200
   3348   3351   3355     1   109.5600471 388.275200
   3348   3360   3363     1   107.2600461 396.643200
   3348   3347   3349     1   109.5600471 388.275200
   3349   3347   3361     1   109.5600471 388.275200
   3349   3347   3369     1   109.7800468 425.094400
   3350   3348   3351     1   109.5600471 388.275200
   3350   3348   3360     1   110.2600474 425.931200
   3351   3352   3354     1   109.5600471 388.275200
   3351   3359   3362     1   107.2600461 396.643200
   3352   3353   3356     1   110.2200475 386.601600
   3352   3358   3364     1   107.2600461 396.643200
   3352   3351   3355     1   109.5600471 388.275200
   3353   3352   3354     1   109.5600471 388.275200
   3354   3352   3358     1   110.2600474 425.931200
   3355   3351   3359     1   110.2600474 425.931200
   3356   3353   3357     1   109.5800467 425.931200
   3356   3353   3369     1   109.5800467 425.931200
   3361   3367   3368     1   107.2600461 396.643200
   3365   3361   3367     1   110.2600474 425.931200
   3365   3361   3366     1   108.4600466 328.025600
   3366   3361   3367     1   110.2600474 425.931200
   3370   3371   3373     1   109.5600471 388.275200
   3370   3384   3388     1   109.5600471 388.275200
   3370   3384   3389     1   109.5600471 388.275200
   3371   3370   3372     1   109.5600471 388.275200
   3371   3374   3378     1   109.5600471 388.275200
   3371   3383   3386     1   107.2600461 396.643200
   3372   3370   3384     1   109.5600471 388.275200
   3372   3370   3392     1   109.7800468 425.094400
   3373   3371   3374     1   109.5600471 388.275200
   3373   3371   3383     1   110.2600474 425.931200
   3374   3375   3377     1   109.5600471 388.275200
   3374   3382   3385     1   107.2600461 396.643200
   3375   3374   3378     1   109.5600471 388.275200
   3375   3376   3379     1   110.2200475 386.601600
   3375   3381   3387     1   107.2600461 396.643200
   3376   3375   3377     1   109.5600471 388.275200
   3377   3375   3381     1   110.2600474 425.931200
   3378   3374   3382     1   110.2600474 425.931200
   3379   3376   3380     1   109.5800467 425.931200
   3379   3376   3392     1   109.5800467 425.931200
   3384   3390   3391     1   107.2600461 396.643200
   3388   3384   3390     1   110.2600474 425.931200
   3388   3384   3389     1   108.4600466 328.025600
   3389   3384   3390     1   110.2600474 425.931200
   3393   3394   3396     1   109.5600471 388.275200
   3393   3407   3411     1   109.5600471 388.275200
   3393   3407   3412     1   109.5600471 388.275200
   3394   3397   3401     1   109.5600471 388.275200
   3394   3406   3409     1   107.2600461 396.643200
   3394   3393   3395     1   109.5600471 388.275200
   3395   3393   3407     1   109.5600471 388.275200
   3395   3393   3415     1   109.7800468 425.094400
   3396   3394   3397     1   109.5600471 388.275200
   3396   3394   3406     1   110.2600474 425.931200
   3397   3398   3400     1   109.5600471 388.275200
   3397   3405   3408     1   107.2600461 396.643200
   3398   3399   3402     1   110.2200475 386.601600
   3398   3404   3410     1   107.2600461 396.643200
   3398   3397   3401     1   109.5600471 388.275200
   3399   3398   3400     1   109.5600471 388.275200
   3400   3398   3404     1   110.2600474 425.931200
   3401   3397   3405     1   110.2600474 425.931200
   3402   3399   3403     1   109.5800467 425.931200
   3402   3399   3415     1   109.5800467 425.931200
   3407   3413   3414     1   107.2600461 396.643200
   3411   3407   3413     1   110.2600474 425.931200
   3411   3407   3412     1   108.4600466 328.025600
   3412   3407   3413     1   110.2600474 425.931200
   3416   3417   3419     1   109.5600471 388.275200
   3416   3430   3434     1   109.5600471 388.275200
   3416   3430   3435     1   109.5600471 388.275200
   3417   3416   3418     1   109.5600471 388.275200
   3417   3420   3424     1   109.5600471 388.275200
   3417   3429   3432     1   107.2600461 396.643200
   3418   3416   3430     1   109.5600471 388.275200
   3418   3416   3438     1   109.7800468 425.094400
   3419   3417   3420     1   109.5600471 388.275200
   3419   3417   3429     1   110.2600474 425.931200
   3420   3421   3423     1   109.5600471 388.275200
   3420   3428   3431     1   107.2600461 396.643200
   3421   3420   3424     1   109.5600471 388.275200
   3421   3422   3425     1   110.2200475 386.601600
   3421   3427   3433     1   107.2600461 396.643200
   3422   3421   3423     1   109.5600471 388.275200
   3423   3421   3427     1   110.2600474 425.931200
   3424   3420   3428     1   110.2600474 425.931200
   3425   3422   3426     1   109.5800467 425.931200
   3425   3422   3438     1   109.5800467 425.931200
   3430   3436   3437     1   107.2600461 396.643200
   3434   3430   3436     1   110.2600474 425.931200
   3434   3430   3435     1   108.4600466 328.025600
   3435   3430   3436     1   110.2600474 425.931200
   3439   3440   3442     1   109.5600471 388.275200
   3439   3453   3457     1   109.5600471 388.275200
   3439   3453   3458     1   109.5600471 388.275200
   3440   3443   3447     1   109.5600471 388.275200
   3440   3452   3455     1   107.2600461 396.643200
   3440   3439   3441     1   109.5600471 388.275200
   3441   3439   3453     1   109.5600471 388.275200
   3441   3439   3461     1   109.7800468 425.094400
   3442   3440   3443     1   109.5600471 388.275200
   3442   3440   3452     1   110.2600474 425.931200
   3443   3444   3446     1   109.5600471 388.275200
   3443   3451   3454     1   107.2600461 396.643200
   3444   3445   3448     1   110.2200475 386.601600
   3444   3450   3456     1   107.2600461 396.643200
   3444   3443   3447     1   109.5600471 388.275200
   3445   3444   3446     1   109.5600471 388.275200
   3446   3444   3450     1   110.2600474 425.931200
   3447   3443   3451     1   110.2600474 425.931200
   3448   3445   3449     1   109.5800467 425.931200
   3448   3445   3461     1   109.5800467 425.931200
   3453   3459   3460     1   107.2600461 396.643200
   3457   3453   3459     1   110.2600474 425.931200
   3457   3453   3458     1   108.4600466 328.025600
   3458   3453   3459     1   110.2600474 425.931200
   3462   3463   3465     1   109.5600471 388.275200
   3462   3476   3480     1   109.5600471 388.275200
   3462   3476   3481     1   109.5600471 388.275200
   3463   3462   3464     1   109.5600471 388.275200
   3463   3466   3470     1   109.5600471 388.275200
   3463   3475   3478     1   107.2600461 396.643200
   3464   3462   3476     1   109.5600471 388.275200
   3464   3462   3484     1   109.7800468 425.094400
   3465   3463   3466     1   109.5600471 388.275200
   3465   3463   3475     1   110.2600474 425.931200
   3466   3467   3469     1   109.5600471 388.275200
   3466   3474   3477     1   107.2600461 396.643200
   3467   3466   3470     1   109.5600471 388.275200
   3467   3468   3471     1   110.2200475 386.601600
   3467   3473   3479     1   107.2600461 396.643200
   3468   3467   3469     1   109.5600471 388.275200
   3469   3467   3473     1   110.2600474 425.931200
   3470   3466   3474     1   110.2600474 425.931200
   3471   3468   3472     1   109.5800467 425.931200
   3471   3468   3484     1   109.5800467 425.931200
   3476   3482   3483     1   107.2600461 396.643200
   3480   3476   3482     1   110.2600474 425.931200
   3480   3476   3481     1   108.4600466 328.025600
   3481   3476   3482     1   110.2600474 425.931200
   3485   3486   3488     1   109.5600471 388.275200
   3485   3499   3503     1   109.5600471 388.275200
   3485   3499   3504     1   109.5600471 388.275200
   3486   3489   3493     1   109.5600471 388.275200
   3486   3498   3501     1   107.2600461 396.643200
   3486   3485   3487     1   109.5600471 388.275200
   3487   3485   3499     1   109.5600471 388.275200
   3487   3485   3507     1   109.7800468 425.094400
   3488   3486   3489     1   109.5600471 388.275200
   3488   3486   3498     1   110.2600474 425.931200
   3489   3490   3492     1   109.5600471 388.275200
   3489   3497   3500     1   107.2600461 396.643200
   3490   3491   3494     1   110.2200475 386.601600
   3490   3496   3502     1   107.2600461 396.643200
   3490   3489   3493     1   109.5600471 388.275200
   3491   3490   3492     1   109.5600471 388.275200
   3492   3490   3496     1   110.2600474 425.931200
   3493   3489   3497     1   110.2600474 425.931200
   3494   3491   3495     1   109.5800467 425.931200
   3494   3491   3507     1   109.5800467 425.931200
   3499   3505   3506     1   107.2600461 396.643200
   3503   3499   3505     1   110.2600474 425.931200
   3503   3499   3504     1   108.4600466 328.025600
   3504   3499   3505     1   110.2600474 425.931200
   3508   3509   3511     1   109.5600471 388.275200
   3508   3522   3526     1   109.5600471 388.275200
   3508   3522   3527     1   109.5600471 388.275200
   3509   3508   3510     1   109.5600471 388.275200
   3509   3512   3516     1   109.5600471 388.275200
   3509   3521   3524     1   107.2600461 396.643200
   3510   3508   3522     1   109.5600471 388.275200
   3510   3508   3530     1   109.7800468 425.094400
   3511   3509   3512     1   109.5600471 388.275200
   3511   3509   3521     1   110.2600474 425.931200
   3512   3513   3515     1   109.5600471 388.275200
   3512   3520   3523     1   107.2600461 396.643200
   3513   3512   3516     1   109.5600471 388.275200
   3513   3514   3517     1   110.2200475 386.601600
   3513   3519   3525     1   107.2600461 396.643200
   3514   3513   3515     1   109.5600471 388.275200
   3515   3513   3519     1   110.2600474 425.931200
   3516   3512   3520     1   110.2600474 425.931200
   3517   3514   3518     1   109.5800467 425.931200
   3517   3514   3530     1   109.5800467 425.931200
   3522   3528   3529     1   107.2600461 396.643200
   3526   3522   3528     1   110.2600474 425.931200
   3526   3522   3527     1   108.4600466 328.025600
   3527   3522   3528     1   110.2600474 425.931200
   3531   3532   3534     1   109.5600471 388.275200
   3531   3545   3549     1   109.5600471 388.275200
   3531   3545   3550     1   109.5600471 388.275200
   3532   3535   3539     1   109.5600471 388.275200
   3532   3544   3547     1   107.2600461 396.643200
   3532   3531   3533     1   109.5600471 388.275200
   3533   3531   3545     1   109.5600471 388.275200
   3533   3531   3553     1   109.7800468 425.094400
   3534   3532   3535     1   109.5600471 388.275200
   3534   3532   3544     1   110.2600474 425.931200
   3535   3536   3538     1   109.5600471 388.275200
   3535   3543   3546     1   107.2600461 396.643200
   3536   3537   3540     1   110.2200475 386.601600
   3536   3542   3548     1   107.2600461 396.643200
   3536   3535   3539     1   109.5600471 388.275200
   3537   3536   3538     1   109.5600471 388.275200
   3538   3536   3542     1   110.2600474 425.931200
   3539   3535   3543     1   110.2600474 425.931200
   3540   3537   3541     1   109.5800467 425.931200
   3540   3537   3553     1   109.5800467 425.931200
   3545   3551   3552     1   107.2600461 396.643200
   3549   3545   3551     1   110.2600474 425.931200
   3549   3545   3550     1   108.4600466 328.025600
   3550   3545   3551     1   110.2600474 425.931200
   3554   3555   3557     1   109.5600471 388.275200
   3554   3568   3572     1   109.5600471 388.275200
   3554   3568   3573     1   109.5600471 388.275200
   3555   3554   3556     1   109.5600471 388.275200
   3555   3558   3562     1   109.5600471 388.275200
   3555   3567   3570     1   107.2600461 396.643200
   3556   3554   3568     1   109.5600471 388.275200
   3556   3554   3576     1   109.7800468 425.094400
   3557   3555   3558     1   109.5600471 388.275200
   3557   3555   3567     1   110.2600474 425.931200
   3558   3559   3561     1   109.5600471 388.275200
   3558   3566   3569     1   107.2600461 396.643200
   3559   3558   3562     1   109.5600471 388.275200
   3559   3560   3563     1   110.2200475 386.601600
   3559   3565   3571     1   107.2600461 396.643200
   3560   3559   3561     1   109.5600471 388.275200
   3561   3559   3565     1   110.2600474 425.931200
   3562   3558   3566     1   110.2600474 425.931200
   3563   3560   3564     1   109.5800467 425.931200
   3563   3560   3576     1   109.5800467 425.931200
   3568   3574   3575     1   107.2600461 396.643200
   3572   3568   3574     1   110.2600474 425.931200
   3572   3568   3573     1   108.4600466 328.025600
   3573   3568   3574     1   110.2600474 425.931200
   3577   3578   3580     1   109.5600471 388.275200
   3577   3591   3595     1   109.5600471 388.275200
   3577   3591   3596     1   109.5600471 388.275200
   3578   3581   3585     1   109.5600471 388.275200
   3578   3590   3593     1   107.2600461 396.643200
   3578   3577   3579     1   109.5600471 388.275200
   3579   3577   3591     1   109.5600471 388.275200
   3579   3577   3599     1   109.7800468 425.094400
   3580   3578   3581     1   109.5600471 388.275200
   3580   3578   3590     1   110.2600474 425.931200
   3581   3582   3584     1   109.5600471 388.275200
   3581   3589   3592     1   107.2600461 396.643200
   3582   3583   3586     1   110.2200475 386.601600
   3582   3588   3594     1   107.2600461 396.643200
   3582   3581   3585     1   109.5600471 388.275200
   3583   3582   3584     1   109.5600471 388.275200
   3584   3582   3588     1   110.2600474 425.931200
   3585   3581   3589     1   110.2600474 425.931200
   3586   3583   3587     1   109.5800467 425.931200
   3586   3583   3599     1   109.5800467 425.931200
   3591   3597   3598     1   107.2600461 396.643200
   3595   3591   3597     1   110.2600474 425.931200
   3595   3591   3596     1   108.4600466 328.025600
   3596   3591   3597     1   110.2600474 425.931200
   3600   3601   3603     1   109.5600471 388.275200
   3600   3614   3618     1   109.5600471 388.275200
   3600   3614   3619     1   109.5600471 388.275200
   3601   3600   3602     1   109.5600471 388.275200
   3601   3604   3608     1   109.5600471 388.275200
   3601   3613   3616     1   107.2600461 396.643200
   3602   3600   3614     1   109.5600471 388.275200
   3602   3600   3622     1   109.7800468 425.094400
   3603   3601   3604     1   109.5600471 388.275200
   3603   3601   3613     1   110.2600474 425.931200
   3604   3605   3607     1   109.5600471 388.275200
   3604   3612   3615     1   107.2600461 396.643200
   3605   3604   3608     1   109.5600471 388.275200
   3605   3606   3609     1   110.2200475 386.601600
   3605   3611   3617     1   107.2600461 396.643200
   3606   3605   3607     1   109.5600471 388.275200
   3607   3605   3611     1   110.2600474 425.931200
   3608   3604   3612     1   110.2600474 425.931200
   3609   3606   3610     1   109.5800467 425.931200
   3609   3606   3622     1   109.5800467 425.931200
   3614   3620   3621     1   107.2600461 396.643200
   3618   3614   3620     1   110.2600474 425.931200
   3618   3614   3619     1   108.4600466 328.025600
   3619   3614   3620     1   110.2600474 425.931200
   3623   3624   3626     1   109.5600471 388.275200
   3623   3637   3641     1   109.5600471 388.275200
   3623   3637   3642     1   109.5600471 388.275200
   3624   3627   3631     1   109.5600471 388.275200
   3624   3636   3639     1   107.2600461 396.643200
   3624   3623   3625     1   109.5600471 388.275200
   3625   3623   3637     1   109.5600471 388.275200
   3625   3623   3645     1   109.7800468 425.094400
   3626   3624   3627     1   109.5600471 388.275200
   3626   3624   3636     1   110.2600474 425.931200
   3627   3628   3630     1   109.5600471 388.275200
   3627   3635   3638     1   107.2600461 396.643200
   3628   3629   3632     1   110.2200475 386.601600
   3628   3634   3640     1   107.2600461 396.643200
   3628   3627   3631     1   109.5600471 388.275200
   3629   3628   3630     1   109.5600471 388.275200
   3630   3628   3634     1   110.2600474 425.931200
   3631   3627   3635     1   110.2600474 425.931200
   3632   3629   3633     1   109.5800467 425.931200
   3632   3629   3645     1   109.5800467 425.931200
   3637   3643   3644     1   107.2600461 396.643200
   3641   3637   3643     1   110.2600474 425.931200
   3641   3637   3642     1   108.4600466 328.025600
   3642   3637   3643     1   110.2600474 425.931200
   3646   3647   3649     1   109.5600471 388.275200
   3646   3660   3664     1   109.5600471 388.275200
   3646   3660   3665     1   109.5600471 388.275200
   3647   3646   3648     1   109.5600471 388.275200
   3647   3650   3654     1   109.5600471 388.275200
   3647   3659   3662     1   107.2600461 396.643200
   3648   3646   3660     1   109.5600471 388.275200
   3648   3646   3668     1   109.7800468 425.094400
   3649   3647   3650     1   109.5600471 388.275200
   3649   3647   3659     1   110.2600474 425.931200
   3650   3651   3653     1   109.5600471 388.275200
   3650   3658   3661     1   107.2600461 396.643200
   3651   3650   3654     1   109.5600471 388.275200
   3651   3652   3655     1   110.2200475 386.601600
   3651   3657   3663     1   107.2600461 396.643200
   3652   3651   3653     1   109.5600471 388.275200
   3653   3651   3657     1   110.2600474 425.931200
   3654   3650   3658     1   110.2600474 425.931200
   3655   3652   3656     1   109.5800467 425.931200
   3655   3652   3668     1   109.5800467 425.931200
   3660   3666   3667     1   107.2600461 396.643200
   3664   3660   3666     1   110.2600474 425.931200
   3664   3660   3665     1   108.4600466 328.025600
   3665   3660   3666     1   110.2600474 425.931200
   3669   3670   3672     1   109.5600471 388.275200
   3669   3683   3687     1   109.5600471 388.275200
   3669   3683   3688     1   109.5600471 388.275200
   3670   3673   3677     1   109.5600471 388.275200
   3670   3682   3685     1   107.2600461 396.643200
   3670   3669   3671     1   109.5600471 388.275200
   3671   3669   3683     1   109.5600471 388.275200
   3671   3669   3691     1   109.7800468 425.094400
   3672   3670   3673     1   109.5600471 388.275200
   3672   3670   3682     1   110.2600474 425.931200
   3673   3674   3676     1   109.5600471 388.275200
   3673   3681   3684     1   107.2600461 396.643200
   3674   3675   3678     1   110.2200475 386.601600
   3674   3680   3686     1   107.2600461 396.643200
   3674   3673   3677     1   109.5600471 388.275200
   3675   3674   3676     1   109.5600471 388.275200
   3676   3674   3680     1   110.2600474 425.931200
   3677   3673   3681     1   110.2600474 425.931200
   3678   3675   3679     1   109.5800467 425.931200
   3678   3675   3691     1   109.5800467 425.931200
   3683   3689   3690     1   107.2600461 396.643200
   3687   3683   3689     1   110.2600474 425.931200
   3687   3683   3688     1   108.4600466 328.025600
   3688   3683   3689     1   110.2600474 425.931200
   3692   3693   3695     1   109.5600471 388.275200
   3692   3706   3710     1   109.5600471 388.275200
   3692   3706   3711     1   109.5600471 388.275200
   3693   3692   3694     1   109.5600471 388.275200
   3693   3696   3700     1   109.5600471 388.275200
   3693   3705   3708     1   107.2600461 396.643200
   3694   3692   3706     1   109.5600471 388.275200
   3694   3692   3714     1   109.7800468 425.094400
   3695   3693   3696     1   109.5600471 388.275200
   3695   3693   3705     1   110.2600474 425.931200
   3696   3697   3699     1   109.5600471 388.275200
   3696   3704   3707     1   107.2600461 396.643200
   3697   3696   3700     1   109.5600471 388.275200
   3697   3698   3701     1   110.2200475 386.601600
   3697   3703   3709     1   107.2600461 396.643200
   3698   3697   3699     1   109.5600471 388.275200
   3699   3697   3703     1   110.2600474 425.931200
   3700   3696   3704     1   110.2600474 425.931200
   3701   3698   3702     1   109.5800467 425.931200
   3701   3698   3714     1   109.5800467 425.931200
   3706   3712   3713     1   107.2600461 396.643200
   3710   3706   3712     1   110.2600474 425.931200
   3710   3706   3711     1   108.4600466 328.025600
   3711   3706   3712     1   110.2600474 425.931200
   3715   3716   3718     1   109.5600471 388.275200
   3715   3729   3733     1   109.5600471 388.275200
   3715   3729   3734     1   109.5600471 388.275200
   3716   3719   3723     1   109.5600471 388.275200
   3716   3728   3731     1   107.2600461 396.643200
   3716   3715   3717     1   109.5600471 388.275200
   3717   3715   3729     1   109.5600471 388.275200
   3717   3715   3737     1   109.7800468 425.094400
   3718   3716   3719     1   109.5600471 388.275200
   3718   3716   3728     1   110.2600474 425.931200
   3719   3720   3722     1   109.5600471 388.275200
   3719   3727   3730     1   107.2600461 396.643200
   3720   3721   3724     1   110.2200475 386.601600
   3720   3726   3732     1   107.2600461 396.643200
   3720   3719   3723     1   109.5600471 388.275200
   3721   3720   3722     1   109.5600471 388.275200
   3722   3720   3726     1   110.2600474 425.931200
   3723   3719   3727     1   110.2600474 425.931200
   3724   3721   3725     1   109.5800467 425.931200
   3724   3721   3737     1   109.5800467 425.931200
   3729   3735   3736     1   107.2600461 396.643200
   3733   3729   3735     1   110.2600474 425.931200
   3733   3729   3734     1   108.4600466 328.025600
   3734   3729   3735     1   110.2600474 425.931200
   3738   3739   3741     1   109.5600471 388.275200
   3738   3752   3756     1   109.5600471 388.275200
   3738   3752   3757     1   109.5600471 388.275200
   3739   3738   3740     1   109.5600471 388.275200
   3739   3742   3746     1   109.5600471 388.275200
   3739   3751   3754     1   107.2600461 396.643200
   3740   3738   3752     1   109.5600471 388.275200
   3740   3738   3760     1   109.7800468 425.094400
   3741   3739   3742     1   109.5600471 388.275200
   3741   3739   3751     1   110.2600474 425.931200
   3742   3743   3745     1   109.5600471 388.275200
   3742   3750   3753     1   107.2600461 396.643200
   3743   3742   3746     1   109.5600471 388.275200
   3743   3744   3747     1   110.2200475 386.601600
   3743   3749   3755     1   107.2600461 396.643200
   3744   3743   3745     1   109.5600471 388.275200
   3745   3743   3749     1   110.2600474 425.931200
   3746   3742   3750     1   110.2600474 425.931200
   3747   3744   3748     1   109.5800467 425.931200
   3747   3744   3760     1   109.5800467 425.931200
   3752   3758   3759     1   107.2600461 396.643200
   3756   3752   3758     1   110.2600474 425.931200
   3756   3752   3757     1   108.4600466 328.025600
   3757   3752   3758     1   110.2600474 425.931200
   3761   3762   3764     1   109.5600471 388.275200
   3761   3775   3779     1   109.5600471 388.275200
   3761   3775   3780     1   109.5600471 388.275200
   3762   3765   3769     1   109.5600471 388.275200
   3762   3774   3777     1   107.2600461 396.643200
   3762   3761   3763     1   109.5600471 388.275200
   3763   3761   3775     1   109.5600471 388.275200
   3763   3761   3783     1   109.7800468 425.094400
   3764   3762   3765     1   109.5600471 388.275200
   3764   3762   3774     1   110.2600474 425.931200
   3765   3766   3768     1   109.5600471 388.275200
   3765   3773   3776     1   107.2600461 396.643200
   3766   3767   3770     1   110.2200475 386.601600
   3766   3772   3778     1   107.2600461 396.643200
   3766   3765   3769     1   109.5600471 388.275200
   3767   3766   3768     1   109.5600471 388.275200
   3768   3766   3772     1   110.2600474 425.931200
   3769   3765   3773     1   110.2600474 425.931200
   3770   3767   3771     1   109.5800467 425.931200
   3770   3767   3783     1   109.5800467 425.931200
   3775   3781   3782     1   107.2600461 396.643200
   3779   3775   3781     1   110.2600474 425.931200
   3779   3775   3780     1   108.4600466 328.025600
   3780   3775   3781     1   110.2600474 425.931200
   3784   3785   3787     1   109.5600471 388.275200
   3784   3798   3802     1   109.5600471 388.275200
   3784   3798   3803     1   109.5600471 388.275200
   3785   3784   3786     1   109.5600471 388.275200
   3785   3788   3792     1   109.5600471 388.275200
   3785   3797   3800     1   107.2600461 396.643200
   3786   3784   3798     1   109.5600471 388.275200
   3786   3784   3806     1   109.7800468 425.094400
   3787   3785   3788     1   109.5600471 388.275200
   3787   3785   3797     1   110.2600474 425.931200
   3788   3789   3791     1   109.5600471 388.275200
   3788   3796   3799     1   107.2600461 396.643200
   3789   3788   3792     1   109.5600471 388.275200
   3789   3790   3793     1   110.2200475 386.601600
   3789   3795   3801     1   107.2600461 396.643200
   3790   3789   3791     1   109.5600471 388.275200
   3791   3789   3795     1   110.2600474 425.931200
   3792   3788   3796     1   110.2600474 425.931200
   3793   3790   3794     1   109.5800467 425.931200
   3793   3790   3806     1   109.5800467 425.931200
   3798   3804   3805     1   107.2600461 396.643200
   3802   3798   3804     1   110.2600474 425.931200
   3802   3798   3803     1   108.4600466 328.025600
   3803   3798   3804     1   110.2600474 425.931200
   3807   3808   3810     1   109.5600471 388.275200
   3807   3821   3825     1   109.5600471 388.275200
   3807   3821   3826     1   109.5600471 388.275200
   3808   3811   3815     1   109.5600471 388.275200
   3808   3820   3823     1   107.2600461 396.643200
   3808   3807   3809     1   109.5600471 388.275200
   3809   3807   3821     1   109.5600471 388.275200
   3809   3807   3829     1   109.7800468 425.094400
   3810   3808   3811     1   109.5600471 388.275200
   3810   3808   3820     1   110.2600474 425.931200
   3811   3812   3814     1   109.5600471 388.275200
   3811   3819   3822     1   107.2600461 396.643200
   3812   3813   3816     1   110.2200475 386.601600
   3812   3818   3824     1   107.2600461 396.643200
   3812   3811   3815     1   109.5600471 388.275200
   3813   3812   3814     1   109.5600471 388.275200
   3814   3812   3818     1   110.2600474 425.931200
   3815   3811   3819     1   110.2600474 425.931200
   3816   3813   3817     1   109.5800467 425.931200
   3816   3813   3829     1   109.5800467 425.931200
   3821   3827   3828     1   107.2600461 396.643200
   3825   3821   3827     1   110.2600474 425.931200
   3825   3821   3826     1   108.4600466 328.025600
   3826   3821   3827     1   110.2600474 425.931200
   3830   3831   3833     1   109.5600471 388.275200
   3830   3844   3848     1   109.5600471 388.275200
   3830   3844   3849     1   109.5600471 388.275200
   3831   3830   3832     1   109.5600471 388.275200
   3831   3834   3838     1   109.5600471 388.275200
   3831   3843   3846     1   107.2600461 396.643200
   3832   3830   3844     1   109.5600471 388.275200
   3832   3830   3852     1   109.7800468 425.094400
   3833   3831   3834     1   109.5600471 388.275200
   3833   3831   3843     1   110.2600474 425.931200
   3834   3835   3837     1   109.5600471 388.275200
   3834   3842   3845     1   107.2600461 396.643200
   3835   3834   3838     1   109.5600471 388.275200
   3835   3836   3839     1   110.2200475 386.601600
   3835   3841   3847     1   107.2600461 396.643200
   3836   3835   3837     1   109.5600471 388.275200
   3837   3835   3841     1   110.2600474 425.931200
   3838   3834   3842     1   110.2600474 425.931200
   3839   3836   3840     1   109.5800467 425.931200
   3839   3836   3852     1   109.5800467 425.931200
   3844   3850   3851     1   107.2600461 396.643200
   3848   3844   3850     1   110.2600474 425.931200
   3848   3844   3849     1   108.4600466 328.025600
   3849   3844   3850     1   110.2600474 425.931200
   3853   3854   3856     1   109.5600471 388.275200
   3853   3867   3871     1   109.5600471 388.275200
   3853   3867   3872     1   109.5600471 388.275200
   3854   3857   3861     1   109.5600471 388.275200
   3854   3866   3869     1   107.2600461 396.643200
   3854   3853   3855     1   109.5600471 388.275200
   3855   3853   3867     1   109.5600471 388.275200
   3855   3853   3875     1   109.7800468 425.094400
   3856   3854   3857     1   109.5600471 388.275200
   3856   3854   3866     1   110.2600474 425.931200
   3857   3858   3860     1   109.5600471 388.275200
   3857   3865   3868     1   107.2600461 396.643200
   3858   3859   3862     1   110.2200475 386.601600
   3858   3864   3870     1   107.2600461 396.643200
   3858   3857   3861     1   109.5600471 388.275200
   3859   3858   3860     1   109.5600471 388.275200
   3860   3858   3864     1   110.2600474 425.931200
   3861   3857   3865     1   110.2600474 425.931200
   3862   3859   3863     1   109.5800467 425.931200
   3862   3859   3875     1   109.5800467 425.931200
   3867   3873   3874     1   107.2600461 396.643200
   3871   3867   3873     1   110.2600474 425.931200
   3871   3867   3872     1   108.4600466 328.025600
   3872   3867   3873     1   110.2600474 425.931200
   3876   3877   3879     1   109.5600471 388.275200
   3876   3890   3894     1   109.5600471 388.275200
   3876   3890   3895     1   109.5600471 388.275200
   3877   3876   3878     1   109.5600471 388.275200
   3877   3880   3884     1   109.5600471 388.275200
   3877   3889   3892     1   107.2600461 396.643200
   3878   3876   3890     1   109.5600471 388.275200
   3878   3876   3898     1   109.7800468 425.094400
   3879   3877   3880     1   109.5600471 388.275200
   3879   3877   3889     1   110.2600474 425.931200
   3880   3881   3883     1   109.5600471 388.275200
   3880   3888   3891     1   107.2600461 396.643200
   3881   3880   3884     1   109.5600471 388.275200
   3881   3882   3885     1   110.2200475 386.601600
   3881   3887   3893     1   107.2600461 396.643200
   3882   3881   3883     1   109.5600471 388.275200
   3883   3881   3887     1   110.2600474 425.931200
   3884   3880   3888     1   110.2600474 425.931200
   3885   3882   3886     1   109.5800467 425.931200
   3885   3882   3898     1   109.5800467 425.931200
   3890   3896   3897     1   107.2600461 396.643200
   3894   3890   3896     1   110.2600474 425.931200
   3894   3890   3895     1   108.4600466 328.025600
   3895   3890   3896     1   110.2600474 425.931200
   3899   3900   3902     1   109.5600471 388.275200
   3899   3913   3917     1   109.5600471 388.275200
   3899   3913   3918     1   109.5600471 388.275200
   3900   3903   3907     1   109.5600471 388.275200
   3900   3912   3915     1   107.2600461 396.643200
   3900   3899   3901     1   109.5600471 388.275200
   3901   3899   3913     1   109.5600471 388.275200
   3901   3899   3921     1   109.7800468 425.094400
   3902   3900   3903     1   109.5600471 388.275200
   3902   3900   3912     1   110.2600474 425.931200
   3903   3904   3906     1   109.5600471 388.275200
   3903   3911   3914     1   107.2600461 396.643200
   3904   3905   3908     1   110.2200475 386.601600
   3904   3910   3916     1   107.2600461 396.643200
   3904   3903   3907     1   109.5600471 388.275200
   3905   3904   3906     1   109.5600471 388.275200
   3906   3904   3910     1   110.2600474 425.931200
   3907   3903   3911     1   110.2600474 425.931200
   3908   3905   3909     1   109.5800467 425.931200
   3908   3905   3921     1   109.5800467 425.931200
   3913   3919   3920     1   107.2600461 396.643200
   3917   3913   3919     1   110.2600474 425.931200
   3917   3913   3918     1   108.4600466 328.025600
   3918   3913   3919     1   110.2600474 425.931200
   3922   3923   3925     1   109.5600471 388.275200
   3922   3936   3940     1   109.5600471 388.275200
   3922   3936   3941     1   109.5600471 388.275200
   3923   3922   3924     1   109.5600471 388.275200
   3923   3926   3930     1   109.5600471 388.275200
   3923   3935   3938     1   107.2600461 396.643200
   3924   3922   3936     1   109.5600471 388.275200
   3924   3922   3944     1   109.7800468 425.094400
   3925   3923   3926     1   109.5600471 388.275200
   3925   3923   3935     1   110.2600474 425.931200
   3926   3927   3929     1   109.5600471 388.275200
   3926   3934   3937     1   107.2600461 396.643200
   3927   3926   3930     1   109.5600471 388.275200
   3927   3928   3931     1   110.2200475 386.601600
   3927   3933   3939     1   107.2600461 396.643200
   3928   3927   3929     1   109.5600471 388.275200
   3929   3927   3933     1   110.2600474 425.931200
   3930   3926   3934     1   110.2600474 425.931200
   3931   3928   3932     1   109.5800467 425.931200
   3931   3928   3944     1   109.5800467 425.931200
   3936   3942   3943     1   107.2600461 396.643200
   3940   3936   3942     1   110.2600474 425.931200
   3940   3936   3941     1   108.4600466 328.025600
   3941   3936   3942     1   110.2600474 425.931200
   3945   3946   3948     1   109.5600471 388.275200
   3945   3959   3963     1   109.5600471 388.275200
   3945   3959   3964     1   109.5600471 388.275200
   3946   3949   3953     1   109.5600471 388.275200
   3946   3958   3961     1   107.2600461 396.643200
   3946   3945   3947     1   109.5600471 388.275200
   3947   3945   3959     1   109.5600471 388.275200
   3947   3945   3967     1   109.7800468 425.094400
   3948   3946   3949     1   109.5600471 388.275200
   3948   3946   3958     1   110.2600474 425.931200
   3949   3950   3952     1   109.5600471 388.275200
   3949   3957   3960     1   107.2600461 396.643200
   3950   3951   3954     1   110.2200475 386.601600
   3950   3956   3962     1   107.2600461 396.643200
   3950   3949   3953     1   109.5600471 388.275200
   3951   3950   3952     1   109.5600471 388.275200
   3952   3950   3956     1   110.2600474 425.931200
   3953   3949   3957     1   110.2600474 425.931200
   3954   3951   3955     1   109.5800467 425.931200
   3954   3951   3967     1   109.5800467 425.931200
   3959   3965   3966     1   107.2600461 396.643200
   3963   3959   3965     1   110.2600474 425.931200
   3963   3959   3964     1   108.4600466 328.025600
   3964   3959   3965     1   110.2600474 425.931200
   3968   3969   3971     1   109.5600471 388.275200
   3968   3982   3986     1   109.5600471 388.275200
   3968   3982   3987     1   109.5600471 388.275200
   3969   3968   3970     1   109.5600471 388.275200
   3969   3972   3976     1   109.5600471 388.275200
   3969   3981   3984     1   107.2600461 396.643200
   3970   3968   3982     1   109.5600471 388.275200
   3970   3968   3990     1   109.7800468 425.094400
   3971   3969   3972     1   109.5600471 388.275200
   3971   3969   3981     1   110.2600474 425.931200
   3972   3973   3975     1   109.5600471 388.275200
   3972   3980   3983     1   107.2600461 396.643200
   3973   3972   3976     1   109.5600471 388.275200
   3973   3974   3977     1   110.2200475 386.601600
   3973   3979   3985     1   107.2600461 396.643200
   3974   3973   3975     1   109.5600471 388.275200
   3975   3973   3979     1   110.2600474 425.931200
   3976   3972   3980     1   110.2600474 425.931200
   3977   3974   3978     1   109.5800467 425.931200
   3977   3974   3990     1   109.5800467 425.931200
   3982   3988   3989     1   107.2600461 396.643200
   3986   3982   3988     1   110.2600474 425.931200
   3986   3982   3987     1   108.4600466 328.025600
   3987   3982   3988     1   110.2600474 425.931200
   3991   3992   3994     1   109.5600471 388.275200
   3991   4005   4009     1   109.5600471 388.275200
   3991   4005   4010     1   109.5600471 388.275200
   3992   3995   3999     1   109.5600471 388.275200
   3992   4004   4007     1   107.2600461 396.643200
   3992   3991   3993     1   109.5600471 388.275200
   3993   3991   4005     1   109.5600471 388.275200
   3993   3991   4013     1   109.7800468 425.094400
   3994   3992   3995     1   109.5600471 388.275200
   3994   3992   4004     1   110.2600474 425.931200
   3995   3996   3998     1   109.5600471 388.275200
   3995   4003   4006     1   107.2600461 396.643200
   3996   3997   4000     1   110.2200475 386.601600
   3996   4002   4008     1   107.2600461 396.643200
   3996   3995   3999     1   109.5600471 388.275200
   3997   3996   3998     1   109.5600471 388.275200
   3998   3996   4002     1   110.2600474 425.931200
   3999   3995   4003     1   110.2600474 425.931200
   4000   3997   4001     1   109.5800467 425.931200
   4000   3997   4013     1   109.5800467 425.931200
   4005   4011   4012     1   107.2600461 396.643200
   4009   4005   4011     1   110.2600474 425.931200
   4009   4005   4010     1   108.4600466 328.025600
   4010   4005   4011     1   110.2600474 425.931200
   4014   4015   4017     1   109.5600471 388.275200
   4014   4028   4032     1   109.5600471 388.275200
   4014   4028   4033     1   109.5600471 388.275200
   4015   4014   4016     1   109.5600471 388.275200
   4015   4018   4022     1   109.5600471 388.275200
   4015   4027   4030     1   107.2600461 396.643200
   4016   4014   4028     1   109.5600471 388.275200
   4016   4014   4036     1   109.7800468 425.094400
   4017   4015   4018     1   109.5600471 388.275200
   4017   4015   4027     1   110.2600474 425.931200
   4018   4019   4021     1   109.5600471 388.275200
   4018   4026   4029     1   107.2600461 396.643200
   4019   4018   4022     1   109.5600471 388.275200
   4019   4020   4023     1   110.2200475 386.601600
   4019   4025   4031     1   107.2600461 396.643200
   4020   4019   4021     1   109.5600471 388.275200
   4021   4019   4025     1   110.2600474 425.931200
   4022   4018   4026     1   110.2600474 425.931200
   4023   4020   4024     1   109.5800467 425.931200
   4023   4020   4036     1   109.5800467 425.931200
   4028   4034   4035     1   107.2600461 396.643200
   4032   4028   4034     1   110.2600474 425.931200
   4032   4028   4033     1   108.4600466 328.025600
   4033   4028   4034     1   110.2600474 425.931200
   4037   4038   4040     1   109.5600471 388.275200
   4037   4051   4055     1   109.5600471 388.275200
   4037   4051   4056     1   109.5600471 388.275200
   4038   4041   4045     1   109.5600471 388.275200
   4038   4050   4053     1   107.2600461 396.643200
   4038   4037   4039     1   109.5600471 388.275200
   4039   4037   4051     1   109.5600471 388.275200
   4039   4037   4059     1   109.7800468 425.094400
   4040   4038   4041     1   109.5600471 388.275200
   4040   4038   4050     1   110.2600474 425.931200
   4041   4042   4044     1   109.5600471 388.275200
   4041   4049   4052     1   107.2600461 396.643200
   4042   4043   4046     1   110.2200475 386.601600
   4042   4048   4054     1   107.2600461 396.643200
   4042   4041   4045     1   109.5600471 388.275200
   4043   4042   4044     1   109.5600471 388.275200
   4044   4042   4048     1   110.2600474 425.931200
   4045   4041   4049     1   110.2600474 425.931200
   4046   4043   4047     1   109.5800467 425.931200
   4046   4043   4059     1   109.5800467 425.931200
   4051   4057   4058     1   107.2600461 396.643200
   4055   4051   4057     1   110.2600474 425.931200
   4055   4051   4056     1   108.4600466 328.025600
   4056   4051   4057     1   110.2600474 425.931200
   4060   4061   4063     1   109.5600471 388.275200
   4060   4074   4078     1   109.5600471 388.275200
   4060   4074   4079     1   109.5600471 388.275200
   4061   4060   4062     1   109.5600471 388.275200
   4061   4064   4068     1   109.5600471 388.275200
   4061   4073   4076     1   107.2600461 396.643200
   4062   4060   4074     1   109.5600471 388.275200
   4062   4060   4082     1   109.7800468 425.094400
   4063   4061   4064     1   109.5600471 388.275200
   4063   4061   4073     1   110.2600474 425.931200
   4064   4065   4067     1   109.5600471 388.275200
   4064   4072   4075     1   107.2600461 396.643200
   4065   4064   4068     1   109.5600471 388.275200
   4065   4066   4069     1   110.2200475 386.601600
   4065   4071   4077     1   107.2600461 396.643200
   4066   4065   4067     1   109.5600471 388.275200
   4067   4065   4071     1   110.2600474 425.931200
   4068   4064   4072     1   110.2600474 425.931200
   4069   4066   4070     1   109.5800467 425.931200
   4069   4066   4082     1   109.5800467 425.931200
   4074   4080   4081     1   107.2600461 396.643200
   4078   4074   4080     1   110.2600474 425.931200
   4078   4074   4079     1   108.4600466 328.025600
   4079   4074   4080     1   110.2600474 425.931200
   4083   4084   4086     1   109.5600471 388.275200
   4083   4097   4101     1   109.5600471 388.275200
   4083   4097   4102     1   109.5600471 388.275200
   4084   4087   4091     1   109.5600471 388.275200
   4084   4096   4099     1   107.2600461 396.643200
   4084   4083   4085     1   109.5600471 388.275200
   4085   4083   4097     1   109.5600471 388.275200
   4085   4083   4105     1   109.7800468 425.094400
   4086   4084   4087     1   109.5600471 388.275200
   4086   4084   4096     1   110.2600474 425.931200
   4087   4088   4090     1   109.5600471 388.275200
   4087   4095   4098     1   107.2600461 396.643200
   4088   4089   4092     1   110.2200475 386.601600
   4088   4094   4100     1   107.2600461 396.643200
   4088   4087   4091     1   109.5600471 388.275200
   4089   4088   4090     1   109.5600471 388.275200
   4090   4088   4094     1   110.2600474 425.931200
   4091   4087   4095     1   110.2600474 425.931200
   4092   4089   4093     1   109.5800467 425.931200
   4092   4089   4105     1   109.5800467 425.931200
   4097   4103   4104     1   107.2600461 396.643200
   4101   4097   4103     1   110.2600474 425.931200
   4101   4097   4102     1   108.4600466 328.025600
   4102   4097   4103     1   110.2600474 425.931200
   4106   4107   4109     1   109.5600471 388.275200
   4106   4120   4124     1   109.5600471 388.275200
   4106   4120   4125     1   109.5600471 388.275200
   4107   4106   4108     1   109.5600471 388.275200
   4107   4110   4114     1   109.5600471 388.275200
   4107   4119   4122     1   107.2600461 396.643200
   4108   4106   4120     1   109.5600471 388.275200
   4108   4106   4128     1   109.7800468 425.094400
   4109   4107   4110     1   109.5600471 388.275200
   4109   4107   4119     1   110.2600474 425.931200
   4110   4111   4113     1   109.5600471 388.275200
   4110   4118   4121     1   107.2600461 396.643200
   4111   4110   4114     1   109.5600471 388.275200
   4111   4112   4115     1   110.2200475 386.601600
   4111   4117   4123     1   107.2600461 396.643200
   4112   4111   4113     1   109.5600471 388.275200
   4113   4111   4117     1   110.2600474 425.931200
   4114   4110   4118     1   110.2600474 425.931200
   4115   4112   4116     1   109.5800467 425.931200
   4115   4112   4128     1   109.5800467 425.931200
   4120   4126   4127     1   107.2600461 396.643200
   4124   4120   4126     1   110.2600474 425.931200
   4124   4120   4125     1   108.4600466 328.025600
   4125   4120   4126     1   110.2600474 425.931200
   4129   4130   4132     1   109.5600471 388.275200
   4129   4143   4147     1   109.5600471 388.275200
   4129   4143   4148     1   109.5600471 388.275200
   4130   4133   4137     1   109.5600471 388.275200
   4130   4142   4145     1   107.2600461 396.643200
   4130   4129   4131     1   109.5600471 388.275200
   4131   4129   4143     1   109.5600471 388.275200
   4131   4129   4151     1   109.7800468 425.094400
   4132   4130   4133     1   109.5600471 388.275200
   4132   4130   4142     1   110.2600474 425.931200
   4133   4134   4136     1   109.5600471 388.275200
   4133   4141   4144     1   107.2600461 396.643200
   4134   4135   4138     1   110.2200475 386.601600
   4134   4140   4146     1   107.2600461 396.643200
   4134   4133   4137     1   109.5600471 388.275200
   4135   4134   4136     1   109.5600471 388.275200
   4136   4134   4140     1   110.2600474 425.931200
   4137   4133   4141     1   110.2600474 425.931200
   4138   4135   4139     1   109.5800467 425.931200
   4138   4135   4151     1   109.5800467 425.931200
   4143   4149   4150     1   107.2600461 396.643200
   4147   4143   4149     1   110.2600474 425.931200
   4147   4143   4148     1   108.4600466 328.025600
   4148   4143   4149     1   110.2600474 425.931200
   4152   4153   4155     1   109.5600471 388.275200
   4152   4166   4170     1   109.5600471 388.275200
   4152   4166   4171     1   109.5600471 388.275200
   4153   4152   4154     1   109.5600471 388.275200
   4153   4156   4160     1   109.5600471 388.275200
   4153   4165   4168     1   107.2600461 396.643200
   4154   4152   4166     1   109.5600471 388.275200
   4154   4152   4174     1   109.7800468 425.094400
   4155   4153   4156     1   109.5600471 388.275200
   4155   4153   4165     1   110.2600474 425.931200
   4156   4157   4159     1   109.5600471 388.275200
   4156   4164   4167     1   107.2600461 396.643200
   4157   4156   4160     1   109.5600471 388.275200
   4157   4158   4161     1   110.2200475 386.601600
   4157   4163   4169     1   107.2600461 396.643200
   4158   4157   4159     1   109.5600471 388.275200
   4159   4157   4163     1   110.2600474 425.931200
   4160   4156   4164     1   110.2600474 425.931200
   4161   4158   4162     1   109.5800467 425.931200
   4161   4158   4174     1   109.5800467 425.931200
   4166   4172   4173     1   107.2600461 396.643200
   4170   4166   4172     1   110.2600474 425.931200
   4170   4166   4171     1   108.4600466 328.025600
   4171   4166   4172     1   110.2600474 425.931200
   4175   4176   4178     1   109.5600471 388.275200
   4175   4189   4193     1   109.5600471 388.275200
   4175   4189   4194     1   109.5600471 388.275200
   4176   4179   4183     1   109.5600471 388.275200
   4176   4188   4191     1   107.2600461 396.643200
   4176   4175   4177     1   109.5600471 388.275200
   4177   4175   4189     1   109.5600471 388.275200
   4177   4175   4197     1   109.7800468 425.094400
   4178   4176   4179     1   109.5600471 388.275200
   4178   4176   4188     1   110.2600474 425.931200
   4179   4180   4182     1   109.5600471 388.275200
   4179   4187   4190     1   107.2600461 396.643200
   4180   4181   4184     1   110.2200475 386.601600
   4180   4186   4192     1   107.2600461 396.643200
   4180   4179   4183     1   109.5600471 388.275200
   4181   4180   4182     1   109.5600471 388.275200
   4182   4180   4186     1   110.2600474 425.931200
   4183   4179   4187     1   110.2600474 425.931200
   4184   4181   4185     1   109.5800467 425.931200
   4184   4181   4197     1   109.5800467 425.931200
   4189   4195   4196     1   107.2600461 396.643200
   4193   4189   4195     1   110.2600474 425.931200
   4193   4189   4194     1   108.4600466 328.025600
   4194   4189   4195     1   110.2600474 425.931200
   4198   4199   4201     1   109.5600471 388.275200
   4198   4212   4216     1   109.5600471 388.275200
   4198   4212   4217     1   109.5600471 388.275200
   4199   4198   4200     1   109.5600471 388.275200
   4199   4202   4206     1   109.5600471 388.275200
   4199   4211   4214     1   107.2600461 396.643200
   4200   4198   4212     1   109.5600471 388.275200
   4200   4198   4220     1   109.7800468 425.094400
   4201   4199   4202     1   109.5600471 388.275200
   4201   4199   4211     1   110.2600474 425.931200
   4202   4203   4205     1   109.5600471 388.275200
   4202   4210   4213     1   107.2600461 396.643200
   4203   4202   4206     1   109.5600471 388.275200
   4203   4204   4207     1   110.2200475 386.601600
   4203   4209   4215     1   107.2600461 396.643200
   4204   4203   4205     1   109.5600471 388.275200
   4205   4203   4209     1   110.2600474 425.931200
   4206   4202   4210     1   110.2600474 425.931200
   4207   4204   4208     1   109.5800467 425.931200
   4207   4204   4220     1   109.5800467 425.931200
   4212   4218   4219     1   107.2600461 396.643200
   4216   4212   4218     1   110.2600474 425.931200
   4216   4212   4217     1   108.4600466 328.025600
   4217   4212   4218     1   110.2600474 425.931200
   4221   4222   4224     1   109.5600471 388.275200
   4221   4235   4239     1   109.5600471 388.275200
   4221   4235   4240     1   109.5600471 388.275200
   4222   4225   4229     1   109.5600471 388.275200
   4222   4234   4237     1   107.2600461 396.643200
   4222   4221   4223     1   109.5600471 388.275200
   4223   4221   4235     1   109.5600471 388.275200
   4223   4221   4243     1   109.7800468 425.094400
   4224   4222   4225     1   109.5600471 388.275200
   4224   4222   4234     1   110.2600474 425.931200
   4225   4226   4228     1   109.5600471 388.275200
   4225   4233   4236     1   107.2600461 396.643200
   4226   4227   4230     1   110.2200475 386.601600
   4226   4232   4238     1   107.2600461 396.643200
   4226   4225   4229     1   109.5600471 388.275200
   4227   4226   4228     1   109.5600471 388.275200
   4228   4226   4232     1   110.2600474 425.931200
   4229   4225   4233     1   110.2600474 425.931200
   4230   4227   4231     1   109.5800467 425.931200
   4230   4227   4243     1   109.5800467 425.931200
   4235   4241   4242     1   107.2600461 396.643200
   4239   4235   4241     1   110.2600474 425.931200
   4239   4235   4240     1   108.4600466 328.025600
   4240   4235   4241     1   110.2600474 425.931200
   4244   4245   4247     1   109.5600471 388.275200
   4244   4258   4262     1   109.5600471 388.275200
   4244   4258   4263     1   109.5600471 388.275200
   4245   4244   4246     1   109.5600471 388.275200
   4245   4248   4252     1   109.5600471 388.275200
   4245   4257   4260     1   107.2600461 396.643200
   4246   4244   4258     1   109.5600471 388.275200
   4246   4244   4266     1   109.7800468 425.094400
   4247   4245   4248     1   109.5600471 388.275200
   4247   4245   4257     1   110.2600474 425.931200
   4248   4249   4251     1   109.5600471 388.275200
   4248   4256   4259     1   107.2600461 396.643200
   4249   4248   4252     1   109.5600471 388.275200
   4249   4250   4253     1   110.2200475 386.601600
   4249   4255   4261     1   107.2600461 396.643200
   4250   4249   4251     1   109.5600471 388.275200
   4251   4249   4255     1   110.2600474 425.931200
   4252   4248   4256     1   110.2600474 425.931200
   4253   4250   4254     1   109.5800467 425.931200
   4253   4250   4266     1   109.5800467 425.931200
   4258   4264   4265     1   107.2600461 396.643200
   4262   4258   4264     1   110.2600474 425.931200
   4262   4258   4263     1   108.4600466 328.025600
   4263   4258   4264     1   110.2600474 425.931200
   4267   4268   4270     1   109.5600471 388.275200
   4267   4281   4285     1   109.5600471 388.275200
   4267   4281   4286     1   109.5600471 388.275200
   4268   4271   4275     1   109.5600471 388.275200
   4268   4280   4283     1   107.2600461 396.643200
   4268   4267   4269     1   109.5600471 388.275200
   4269   4267   4281     1   109.5600471 388.275200
   4269   4267   4289     1   109.7800468 425.094400
   4270   4268   4271     1   109.5600471 388.275200
   4270   4268   4280     1   110.2600474 425.931200
   4271   4272   4274     1   109.5600471 388.275200
   4271   4279   4282     1   107.2600461 396.643200
   4272   4273   4276     1   110.2200475 386.601600
   4272   4278   4284     1   107.2600461 396.643200
   4272   4271   4275     1   109.5600471 388.275200
   4273   4272   4274     1   109.5600471 388.275200
   4274   4272   4278     1   110.2600474 425.931200
   4275   4271   4279     1   110.2600474 425.931200
   4276   4273   4277     1   109.5800467 425.931200
   4276   4273   4289     1   109.5800467 425.931200
   4281   4287   4288     1   107.2600461 396.643200
   4285   4281   4287     1   110.2600474 425.931200
   4285   4281   4286     1   108.4600466 328.025600
   4286   4281   4287     1   110.2600474 425.931200
   4290   4291   4293     1   109.5600471 388.275200
   4290   4304   4308     1   109.5600471 388.275200
   4290   4304   4309     1   109.5600471 388.275200
   4291   4290   4292     1   109.5600471 388.275200
   4291   4294   4298     1   109.5600471 388.275200
   4291   4303   4306     1   107.2600461 396.643200
   4292   4290   4304     1   109.5600471 388.275200
   4292   4290   4312     1   109.7800468 425.094400
   4293   4291   4294     1   109.5600471 388.275200
   4293   4291   4303     1   110.2600474 425.931200
   4294   4295   4297     1   109.5600471 388.275200
   4294   4302   4305     1   107.2600461 396.643200
   4295   4294   4298     1   109.5600471 388.275200
   4295   4296   4299     1   110.2200475 386.601600
   4295   4301   4307     1   107.2600461 396.643200
   4296   4295   4297     1   109.5600471 388.275200
   4297   4295   4301     1   110.2600474 425.931200
   4298   4294   4302     1   110.2600474 425.931200
   4299   4296   4300     1   109.5800467 425.931200
   4299   4296   4312     1   109.5800467 425.931200
   4304   4310   4311     1   107.2600461 396.643200
   4308   4304   4310     1   110.2600474 425.931200
   4308   4304   4309     1   108.4600466 328.025600
   4309   4304   4310     1   110.2600474 425.931200
   4313   4314   4316     1   109.5600471 388.275200
   4313   4327   4331     1   109.5600471 388.275200
   4313   4327   4332     1   109.5600471 388.275200
   4314   4317   4321     1   109.5600471 388.275200
   4314   4326   4329     1   107.2600461 396.643200
   4314   4313   4315     1   109.5600471 388.275200
   4315   4313   4327     1   109.5600471 388.275200
   4315   4313   4335     1   109.7800468 425.094400
   4316   4314   4317     1   109.5600471 388.275200
   4316   4314   4326     1   110.2600474 425.931200
   4317   4318   4320     1   109.5600471 388.275200
   4317   4325   4328     1   107.2600461 396.643200
   4318   4319   4322     1   110.2200475 386.601600
   4318   4324   4330     1   107.2600461 396.643200
   4318   4317   4321     1   109.5600471 388.275200
   4319   4318   4320     1   109.5600471 388.275200
   4320   4318   4324     1   110.2600474 425.931200
   4321   4317   4325     1   110.2600474 425.931200
   4322   4319   4323     1   109.5800467 425.931200
   4322   4319   4335     1   109.5800467 425.931200
   4327   4333   4334     1   107.2600461 396.643200
   4331   4327   4333     1   110.2600474 425.931200
   4331   4327   4332     1   108.4600466 328.025600
   4332   4327   4333     1   110.2600474 425.931200
   4336   4337   4339     1   109.5600471 388.275200
   4336   4350   4354     1   109.5600471 388.275200
   4336   4350   4355     1   109.5600471 388.275200
   4337   4336   4338     1   109.5600471 388.275200
   4337   4340   4344     1   109.5600471 388.275200
   4337   4349   4352     1   107.2600461 396.643200
   4338   4336   4350     1   109.5600471 388.275200
   4338   4336   4358     1   109.7800468 425.094400
   4339   4337   4340     1   109.5600471 388.275200
   4339   4337   4349     1   110.2600474 425.931200
   4340   4341   4343     1   109.5600471 388.275200
   4340   4348   4351     1   107.2600461 396.643200
   4341   4340   4344     1   109.5600471 388.275200
   4341   4342   4345     1   110.2200475 386.601600
   4341   4347   4353     1   107.2600461 396.643200
   4342   4341   4343     1   109.5600471 388.275200
   4343   4341   4347     1   110.2600474 425.931200
   4344   4340   4348     1   110.2600474 425.931200
   4345   4342   4346     1   109.5800467 425.931200
   4345   4342   4358     1   109.5800467 425.931200
   4350   4356   4357     1   107.2600461 396.643200
   4354   4350   4356     1   110.2600474 425.931200
   4354   4350   4355     1   108.4600466 328.025600
   4355   4350   4356     1   110.2600474 425.931200
   4359   4360   4362     1   109.5600471 388.275200
   4359   4373   4377     1   109.5600471 388.275200
   4359   4373   4378     1   109.5600471 388.275200
   4360   4363   4367     1   109.5600471 388.275200
   4360   4372   4375     1   107.2600461 396.643200
   4360   4359   4361     1   109.5600471 388.275200
   4361   4359   4373     1   109.5600471 388.275200
   4361   4359   4381     1   109.7800468 425.094400
   4362   4360   4363     1   109.5600471 388.275200
   4362   4360   4372     1   110.2600474 425.931200
   4363   4364   4366     1   109.5600471 388.275200
   4363   4371   4374     1   107.2600461 396.643200
   4364   4365   4368     1   110.2200475 386.601600
   4364   4370   4376     1   107.2600461 396.643200
   4364   4363   4367     1   109.5600471 388.275200
   4365   4364   4366     1   109.5600471 388.275200
   4366   4364   4370     1   110.2600474 425.931200
   4367   4363   4371     1   110.2600474 425.931200
   4368   4365   4369     1   109.5800467 425.931200
   4368   4365   4381     1   109.5800467 425.931200
   4373   4379   4380     1   107.2600461 396.643200
   4377   4373   4379     1   110.2600474 425.931200
   4377   4373   4378     1   108.4600466 328.025600
   4378   4373   4379     1   110.2600474 425.931200
   4382   4383   4385     1   109.5600471 388.275200
   4382   4396   4400     1   109.5600471 388.275200
   4382   4396   4401     1   109.5600471 388.275200
   4383   4382   4384     1   109.5600471 388.275200
   4383   4386   4390     1   109.5600471 388.275200
   4383   4395   4398     1   107.2600461 396.643200
   4384   4382   4396     1   109.5600471 388.275200
   4384   4382   4404     1   109.7800468 425.094400
   4385   4383   4386     1   109.5600471 388.275200
   4385   4383   4395     1   110.2600474 425.931200
   4386   4387   4389     1   109.5600471 388.275200
   4386   4394   4397     1   107.2600461 396.643200
   4387   4386   4390     1   109.5600471 388.275200
   4387   4388   4391     1   110.2200475 386.601600
   4387   4393   4399     1   107.2600461 396.643200
   4388   4387   4389     1   109.5600471 388.275200
   4389   4387   4393     1   110.2600474 425.931200
   4390   4386   4394     1   110.2600474 425.931200
   4391   4388   4392     1   109.5800467 425.931200
   4391   4388   4404     1   109.5800467 425.931200
   4396   4402   4403     1   107.2600461 396.643200
   4400   4396   4402     1   110.2600474 425.931200
   4400   4396   4401     1   108.4600466 328.025600
   4401   4396   4402     1   110.2600474 425.931200
   4405   4406   4408     1   109.5600471 388.275200
   4405   4419   4423     1   109.5600471 388.275200
   4405   4419   4424     1   109.5600471 388.275200
   4406   4409   4413     1   109.5600471 388.275200
   4406   4418   4421     1   107.2600461 396.643200
   4406   4405   4407     1   109.5600471 388.275200
   4407   4405   4419     1   109.5600471 388.275200
   4407   4405   4427     1   109.7800468 425.094400
   4408   4406   4409     1   109.5600471 388.275200
   4408   4406   4418     1   110.2600474 425.931200
   4409   4410   4412     1   109.5600471 388.275200
   4409   4417   4420     1   107.2600461 396.643200
   4410   4411   4414     1   110.2200475 386.601600
   4410   4416   4422     1   107.2600461 396.643200
   4410   4409   4413     1   109.5600471 388.275200
   4411   4410   4412     1   109.5600471 388.275200
   4412   4410   4416     1   110.2600474 425.931200
   4413   4409   4417     1   110.2600474 425.931200
   4414   4411   4415     1   109.5800467 425.931200
   4414   4411   4427     1   109.5800467 425.931200
   4419   4425   4426     1   107.2600461 396.643200
   4423   4419   4425     1   110.2600474 425.931200
   4423   4419   4424     1   108.4600466 328.025600
   4424   4419   4425     1   110.2600474 425.931200
   4428   4429   4431     1   109.5600471 388.275200
   4428   4442   4446     1   109.5600471 388.275200
   4428   4442   4447     1   109.5600471 388.275200
   4429   4428   4430     1   109.5600471 388.275200
   4429   4432   4436     1   109.5600471 388.275200
   4429   4441   4444     1   107.2600461 396.643200
   4430   4428   4442     1   109.5600471 388.275200
   4430   4428   4450     1   109.7800468 425.094400
   4431   4429   4432     1   109.5600471 388.275200
   4431   4429   4441     1   110.2600474 425.931200
   4432   4433   4435     1   109.5600471 388.275200
   4432   4440   4443     1   107.2600461 396.643200
   4433   4432   4436     1   109.5600471 388.275200
   4433   4434   4437     1   110.2200475 386.601600
   4433   4439   4445     1   107.2600461 396.643200
   4434   4433   4435     1   109.5600471 388.275200
   4435   4433   4439     1   110.2600474 425.931200
   4436   4432   4440     1   110.2600474 425.931200
   4437   4434   4438     1   109.5800467 425.931200
   4437   4434   4450     1   109.5800467 425.931200
   4442   4448   4449     1   107.2600461 396.643200
   4446   4442   4448     1   110.2600474 425.931200
   4446   4442   4447     1   108.4600466 328.025600
   4447   4442   4448     1   110.2600474 425.931200
   4451   4452   4454     1   109.5600471 388.275200
   4451   4465   4469     1   109.5600471 388.275200
   4451   4465   4470     1   109.5600471 388.275200
   4452   4455   4459     1   109.5600471 388.275200
   4452   4464   4467     1   107.2600461 396.643200
   4452   4451   4453     1   109.5600471 388.275200
   4453   4451   4465     1   109.5600471 388.275200
   4453   4451   4473     1   109.7800468 425.094400
   4454   4452   4455     1   109.5600471 388.275200
   4454   4452   4464     1   110.2600474 425.931200
   4455   4456   4458     1   109.5600471 388.275200
   4455   4463   4466     1   107.2600461 396.643200
   4456   4457   4460     1   110.2200475 386.601600
   4456   4462   4468     1   107.2600461 396.643200
   4456   4455   4459     1   109.5600471 388.275200
   4457   4456   4458     1   109.5600471 388.275200
   4458   4456   4462     1   110.2600474 425.931200
   4459   4455   4463     1   110.2600474 425.931200
   4460   4457   4461     1   109.5800467 425.931200
   4460   4457   4473     1   109.5800467 425.931200
   4465   4471   4472     1   107.2600461 396.643200
   4469   4465   4471     1   110.2600474 425.931200
   4469   4465   4470     1   108.4600466 328.025600
   4470   4465   4471     1   110.2600474 425.931200
   4474   4475   4477     1   109.5600471 388.275200
   4474   4488   4492     1   109.5600471 388.275200
   4474   4488   4493     1   109.5600471 388.275200
   4475   4474   4476     1   109.5600471 388.275200
   4475   4478   4482     1   109.5600471 388.275200
   4475   4487   4490     1   107.2600461 396.643200
   4476   4474   4488     1   109.5600471 388.275200
   4476   4474   4496     1   109.7800468 425.094400
   4477   4475   4478     1   109.5600471 388.275200
   4477   4475   4487     1   110.2600474 425.931200
   4478   4479   4481     1   109.5600471 388.275200
   4478   4486   4489     1   107.2600461 396.643200
   4479   4478   4482     1   109.5600471 388.275200
   4479   4480   4483     1   110.2200475 386.601600
   4479   4485   4491     1   107.2600461 396.643200
   4480   4479   4481     1   109.5600471 388.275200
   4481   4479   4485     1   110.2600474 425.931200
   4482   4478   4486     1   110.2600474 425.931200
   4483   4480   4484     1   109.5800467 425.931200
   4483   4480   4496     1   109.5800467 425.931200
   4488   4494   4495     1   107.2600461 396.643200
   4492   4488   4494     1   110.2600474 425.931200
   4492   4488   4493     1   108.4600466 328.025600
   4493   4488   4494     1   110.2600474 425.931200
   4497   4498   4500     1   109.5600471 388.275200
   4497   4511   4515     1   109.5600471 388.275200
   4497   4511   4516     1   109.5600471 388.275200
   4498   4501   4505     1   109.5600471 388.275200
   4498   4510   4513     1   107.2600461 396.643200
   4498   4497   4499     1   109.5600471 388.275200
   4499   4497   4511     1   109.5600471 388.275200
   4499   4497   4519     1   109.7800468 425.094400
   4500   4498   4501     1   109.5600471 388.275200
   4500   4498   4510     1   110.2600474 425.931200
   4501   4502   4504     1   109.5600471 388.275200
   4501   4509   4512     1   107.2600461 396.643200
   4502   4503   4506     1   110.2200475 386.601600
   4502   4508   4514     1   107.2600461 396.643200
   4502   4501   4505     1   109.5600471 388.275200
   4503   4502   4504     1   109.5600471 388.275200
   4504   4502   4508     1   110.2600474 425.931200
   4505   4501   4509     1   110.2600474 425.931200
   4506   4503   4507     1   109.5800467 425.931200
   4506   4503   4519     1   109.5800467 425.931200
   4511   4517   4518     1   107.2600461 396.643200
   4515   4511   4517     1   110.2600474 425.931200
   4515   4511   4516     1   108.4600466 328.025600
   4516   4511   4517     1   110.2600474 425.931200
   4520   4521   4523     1   109.5600471 388.275200
   4520   4534   4538     1   109.5600471 388.275200
   4520   4534   4539     1   109.5600471 388.275200
   4521   4520   4522     1   109.5600471 388.275200
   4521   4524   4528     1   109.5600471 388.275200
   4521   4533   4536     1   107.2600461 396.643200
   4522   4520   4534     1   109.5600471 388.275200
   4522   4520   4542     1   109.7800468 425.094400
   4523   4521   4524     1   109.5600471 388.275200
   4523   4521   4533     1   110.2600474 425.931200
   4524   4525   4527     1   109.5600471 388.275200
   4524   4532   4535     1   107.2600461 396.643200
   4525   4524   4528     1   109.5600471 388.275200
   4525   4526   4529     1   110.2200475 386.601600
   4525   4531   4537     1   107.2600461 396.643200
   4526   4525   4527     1   109.5600471 388.275200
   4527   4525   4531     1   110.2600474 425.931200
   4528   4524   4532     1   110.2600474 425.931200
   4529   4526   4530     1   109.5800467 425.931200
   4529   4526   4542     1   109.5800467 425.931200
   4534   4540   4541     1   107.2600461 396.643200
   4538   4534   4540     1   110.2600474 425.931200
   4538   4534   4539     1   108.4600466 328.025600
   4539   4534   4540     1   110.2600474 425.931200
   4543   4544   4546     1   109.5600471 388.275200
   4543   4557   4561     1   109.5600471 388.275200
   4543   4557   4562     1   109.5600471 388.275200
   4544   4547   4551     1   109.5600471 388.275200
   4544   4556   4559     1   107.2600461 396.643200
   4544   4543   4545     1   109.5600471 388.275200
   4545   4543   4557     1   109.5600471 388.275200
   4545   4543   4565     1   109.7800468 425.094400
   4546   4544   4547     1   109.5600471 388.275200
   4546   4544   4556     1   110.2600474 425.931200
   4547   4548   4550     1   109.5600471 388.275200
   4547   4555   4558     1   107.2600461 396.643200
   4548   4549   4552     1   110.2200475 386.601600
   4548   4554   4560     1   107.2600461 396.643200
   4548   4547   4551     1   109.5600471 388.275200
   4549   4548   4550     1   109.5600471 388.275200
   4550   4548   4554     1   110.2600474 425.931200
   4551   4547   4555     1   110.2600474 425.931200
   4552   4549   4553     1   109.5800467 425.931200
   4552   4549   4565     1   109.5800467 425.931200
   4557   4563   4564     1   107.2600461 396.643200
   4561   4557   4563     1   110.2600474 425.931200
   4561   4557   4562     1   108.4600466 328.025600
   4562   4557   4563     1   110.2600474 425.931200
   4566   4567   4569     1   109.5600471 388.275200
   4566   4580   4584     1   109.5600471 388.275200
   4566   4580   4585     1   109.5600471 388.275200
   4567   4566   4568     1   109.5600471 388.275200
   4567   4570   4574     1   109.5600471 388.275200
   4567   4579   4582     1   107.2600461 396.643200
   4568   4566   4580     1   109.5600471 388.275200
   4568   4566   4588     1   109.7800468 425.094400
   4569   4567   4570     1   109.5600471 388.275200
   4569   4567   4579     1   110.2600474 425.931200
   4570   4571   4573     1   109.5600471 388.275200
   4570   4578   4581     1   107.2600461 396.643200
   4571   4570   4574     1   109.5600471 388.275200
   4571   4572   4575     1   110.2200475 386.601600
   4571   4577   4583     1   107.2600461 396.643200
   4572   4571   4573     1   109.5600471 388.275200
   4573   4571   4577     1   110.2600474 425.931200
   4574   4570   4578     1   110.2600474 425.931200
   4575   4572   4576     1   109.5800467 425.931200
   4575   4572   4588     1   109.5800467 425.931200
   4580   4586   4587     1   107.2600461 396.643200
   4584   4580   4586     1   110.2600474 425.931200
   4584   4580   4585     1   108.4600466 328.025600
   4585   4580   4586     1   110.2600474 425.931200
   4589   4590   4592     1   109.5600471 388.275200
   4589   4603   4607     1   109.5600471 388.275200
   4589   4603   4608     1   109.5600471 388.275200
   4590   4593   4597     1   109.5600471 388.275200
   4590   4602   4605     1   107.2600461 396.643200
   4590   4589   4591     1   109.5600471 388.275200
   4591   4589   4603     1   109.5600471 388.275200
   4591   4589   4611     1   109.7800468 425.094400
   4592   4590   4593     1   109.5600471 388.275200
   4592   4590   4602     1   110.2600474 425.931200
   4593   4594   4596     1   109.5600471 388.275200
   4593   4601   4604     1   107.2600461 396.643200
   4594   4595   4598     1   110.2200475 386.601600
   4594   4600   4606     1   107.2600461 396.643200
   4594   4593   4597     1   109.5600471 388.275200
   4595   4594   4596     1   109.5600471 388.275200
   4596   4594   4600     1   110.2600474 425.931200
   4597   4593   4601     1   110.2600474 425.931200
   4598   4595   4599     1   109.5800467 425.931200
   4598   4595   4611     1   109.5800467 425.931200
   4603   4609   4610     1   107.2600461 396.643200
   4607   4603   4609     1   110.2600474 425.931200
   4607   4603   4608     1   108.4600466 328.025600
   4608   4603   4609     1   110.2600474 425.931200
   4612   4613   4615     1   109.5600471 388.275200
   4612   4626   4630     1   109.5600471 388.275200
   4612   4626   4631     1   109.5600471 388.275200
   4613   4612   4614     1   109.5600471 388.275200
   4613   4616   4620     1   109.5600471 388.275200
   4613   4625   4628     1   107.2600461 396.643200
   4614   4612   4626     1   109.5600471 388.275200
   4614   4612   4634     1   109.7800468 425.094400
   4615   4613   4616     1   109.5600471 388.275200
   4615   4613   4625     1   110.2600474 425.931200
   4616   4617   4619     1   109.5600471 388.275200
   4616   4624   4627     1   107.2600461 396.643200
   4617   4616   4620     1   109.5600471 388.275200
   4617   4618   4621     1   110.2200475 386.601600
   4617   4623   4629     1   107.2600461 396.643200
   4618   4617   4619     1   109.5600471 388.275200
   4619   4617   4623     1   110.2600474 425.931200
   4620   4616   4624     1   110.2600474 425.931200
   4621   4618   4622     1   109.5800467 425.931200
   4621   4618   4634     1   109.5800467 425.931200
   4626   4632   4633     1   107.2600461 396.643200
   4630   4626   4632     1   110.2600474 425.931200
   4630   4626   4631     1   108.4600466 328.025600
   4631   4626   4632     1   110.2600474 425.931200
   4635   4636   4638     1   109.5600471 388.275200
   4635   4649   4653     1   109.5600471 388.275200
   4635   4649   4654     1   109.5600471 388.275200
   4636   4639   4643     1   109.5600471 388.275200
   4636   4648   4651     1   107.2600461 396.643200
   4636   4635   4637     1   109.5600471 388.275200
   4637   4635   4649     1   109.5600471 388.275200
   4637   4635   4657     1   109.7800468 425.094400
   4638   4636   4639     1   109.5600471 388.275200
   4638   4636   4648     1   110.2600474 425.931200
   4639   4640   4642     1   109.5600471 388.275200
   4639   4647   4650     1   107.2600461 396.643200
   4640   4641   4644     1   110.2200475 386.601600
   4640   4646   4652     1   107.2600461 396.643200
   4640   4639   4643     1   109.5600471 388.275200
   4641   4640   4642     1   109.5600471 388.275200
   4642   4640   4646     1   110.2600474 425.931200
   4643   4639   4647     1   110.2600474 425.931200
   4644   4641   4645     1   109.5800467 425.931200
   4644   4641   4657     1   109.5800467 425.931200
   4649   4655   4656     1   107.2600461 396.643200
   4653   4649   4655     1   110.2600474 425.931200
   4653   4649   4654     1   108.4600466 328.025600
   4654   4649   4655     1   110.2600474 425.931200
   4658   4659   4661     1   109.5600471 388.275200
   4658   4672   4676     1   109.5600471 388.275200
   4658   4672   4677     1   109.5600471 388.275200
   4659   4658   4660     1   109.5600471 388.275200
   4659   4662   4666     1   109.5600471 388.275200
   4659   4671   4674     1   107.2600461 396.643200
   4660   4658   4672     1   109.5600471 388.275200
   4660   4658   4680     1   109.7800468 425.094400
   4661   4659   4662     1   109.5600471 388.275200
   4661   4659   4671     1   110.2600474 425.931200
   4662   4663   4665     1   109.5600471 388.275200
   4662   4670   4673     1   107.2600461 396.643200
   4663   4662   4666     1   109.5600471 388.275200
   4663   4664   4667     1   110.2200475 386.601600
   4663   4669   4675     1   107.2600461 396.643200
   4664   4663   4665     1   109.5600471 388.275200
   4665   4663   4669     1   110.2600474 425.931200
   4666   4662   4670     1   110.2600474 425.931200
   4667   4664   4668     1   109.5800467 425.931200
   4667   4664   4680     1   109.5800467 425.931200
   4672   4678   4679     1   107.2600461 396.643200
   4676   4672   4678     1   110.2600474 425.931200
   4676   4672   4677     1   108.4600466 328.025600
   4677   4672   4678     1   110.2600474 425.931200
   4681   4682   4684     1   109.5600471 388.275200
   4681   4695   4699     1   109.5600471 388.275200
   4681   4695   4700     1   109.5600471 388.275200
   4682   4685   4689     1   109.5600471 388.275200
   4682   4694   4697     1   107.2600461 396.643200
   4682   4681   4683     1   109.5600471 388.275200
   4683   4681   4695     1   109.5600471 388.275200
   4683   4681   4703     1   109.7800468 425.094400
   4684   4682   4685     1   109.5600471 388.275200
   4684   4682   4694     1   110.2600474 425.931200
   4685   4686   4688     1   109.5600471 388.275200
   4685   4693   4696     1   107.2600461 396.643200
   4686   4687   4690     1   110.2200475 386.601600
   4686   4692   4698     1   107.2600461 396.643200
   4686   4685   4689     1   109.5600471 388.275200
   4687   4686   4688     1   109.5600471 388.275200
   4688   4686   4692     1   110.2600474 425.931200
   4689   4685   4693     1   110.2600474 425.931200
   4690   4687   4691     1   109.5800467 425.931200
   4690   4687   4703     1   109.5800467 425.931200
   4695   4701   4702     1   107.2600461 396.643200
   4699   4695   4701     1   110.2600474 425.931200
   4699   4695   4700     1   108.4600466 328.025600
   4700   4695   4701     1   110.2600474 425.931200
   4704   4705   4707     1   109.5600471 388.275200
   4704   4718   4722     1   109.5600471 388.275200
   4704   4718   4723     1   109.5600471 388.275200
   4705   4704   4706     1   109.5600471 388.275200
   4705   4708   4712     1   109.5600471 388.275200
   4705   4717   4720     1   107.2600461 396.643200
   4706   4704   4718     1   109.5600471 388.275200
   4706   4704   4726     1   109.7800468 425.094400
   4707   4705   4708     1   109.5600471 388.275200
   4707   4705   4717     1   110.2600474 425.931200
   4708   4709   4711     1   109.5600471 388.275200
   4708   4716   4719     1   107.2600461 396.643200
   4709   4708   4712     1   109.5600471 388.275200
   4709   4710   4713     1   110.2200475 386.601600
   4709   4715   4721     1   107.2600461 396.643200
   4710   4709   4711     1   109.5600471 388.275200
   4711   4709   4715     1   110.2600474 425.931200
   4712   4708   4716     1   110.2600474 425.931200
   4713   4710   4714     1   109.5800467 425.931200
   4713   4710   4726     1   109.5800467 425.931200
   4718   4724   4725     1   107.2600461 396.643200
   4722   4718   4724     1   110.2600474 425.931200
   4722   4718   4723     1   108.4600466 328.025600
   4723   4718   4724     1   110.2600474 425.931200
   4727   4728   4730     1   109.5600471 388.275200
   4727   4741   4745     1   109.5600471 388.275200
   4727   4741   4746     1   109.5600471 388.275200
   4728   4731   4735     1   109.5600471 388.275200
   4728   4740   4743     1   107.2600461 396.643200
   4728   4727   4729     1   109.5600471 388.275200
   4729   4727   4741     1   109.5600471 388.275200
   4729   4727   4749     1   109.7800468 425.094400
   4730   4728   4731     1   109.5600471 388.275200
   4730   4728   4740     1   110.2600474 425.931200
   4731   4732   4734     1   109.5600471 388.275200
   4731   4739   4742     1   107.2600461 396.643200
   4732   4733   4736     1   110.2200475 386.601600
   4732   4738   4744     1   107.2600461 396.643200
   4732   4731   4735     1   109.5600471 388.275200
   4733   4732   4734     1   109.5600471 388.275200
   4734   4732   4738     1   110.2600474 425.931200
   4735   4731   4739     1   110.2600474 425.931200
   4736   4733   4737     1   109.5800467 425.931200
   4736   4733   4749     1   109.5800467 425.931200
   4741   4747   4748     1   107.2600461 396.643200
   4745   4741   4747     1   110.2600474 425.931200
   4745   4741   4746     1   108.4600466 328.025600
   4746   4741   4747     1   110.2600474 425.931200
   4750   4751   4753     1   109.5600471 388.275200
   4750   4764   4768     1   109.5600471 388.275200
   4750   4764   4769     1   109.5600471 388.275200
   4751   4750   4752     1   109.5600471 388.275200
   4751   4754   4758     1   109.5600471 388.275200
   4751   4763   4766     1   107.2600461 396.643200
   4752   4750   4764     1   109.5600471 388.275200
   4752   4750   4772     1   109.7800468 425.094400
   4753   4751   4754     1   109.5600471 388.275200
   4753   4751   4763     1   110.2600474 425.931200
   4754   4755   4757     1   109.5600471 388.275200
   4754   4762   4765     1   107.2600461 396.643200
   4755   4754   4758     1   109.5600471 388.275200
   4755   4756   4759     1   110.2200475 386.601600
   4755   4761   4767     1   107.2600461 396.643200
   4756   4755   4757     1   109.5600471 388.275200
   4757   4755   4761     1   110.2600474 425.931200
   4758   4754   4762     1   110.2600474 425.931200
   4759   4756   4760     1   109.5800467 425.931200
   4759   4756   4772     1   109.5800467 425.931200
   4764   4770   4771     1   107.2600461 396.643200
   4768   4764   4770     1   110.2600474 425.931200
   4768   4764   4769     1   108.4600466 328.025600
   4769   4764   4770     1   110.2600474 425.931200
   4773   4774   4776     1   109.5600471 388.275200
   4773   4787   4791     1   109.5600471 388.275200
   4773   4787   4792     1   109.5600471 388.275200
   4774   4777   4781     1   109.5600471 388.275200
   4774   4786   4789     1   107.2600461 396.643200
   4774   4773   4775     1   109.5600471 388.275200
   4775   4773   4787     1   109.5600471 388.275200
   4775   4773   4795     1   109.7800468 425.094400
   4776   4774   4777     1   109.5600471 388.275200
   4776   4774   4786     1   110.2600474 425.931200
   4777   4778   4780     1   109.5600471 388.275200
   4777   4785   4788     1   107.2600461 396.643200
   4778   4779   4782     1   110.2200475 386.601600
   4778   4784   4790     1   107.2600461 396.643200
   4778   4777   4781     1   109.5600471 388.275200
   4779   4778   4780     1   109.5600471 388.275200
   4780   4778   4784     1   110.2600474 425.931200
   4781   4777   4785     1   110.2600474 425.931200
   4782   4779   4783     1   109.5800467 425.931200
   4782   4779   4795     1   109.5800467 425.931200
   4787   4793   4794     1   107.2600461 396.643200
   4791   4787   4793     1   110.2600474 425.931200
   4791   4787   4792     1   108.4600466 328.025600
   4792   4787   4793     1   110.2600474 425.931200
   4796   4797   4799     1   109.5600471 388.275200
   4796   4810   4814     1   109.5600471 388.275200
   4796   4810   4815     1   109.5600471 388.275200
   4797   4796   4798     1   109.5600471 388.275200
   4797   4800   4804     1   109.5600471 388.275200
   4797   4809   4812     1   107.2600461 396.643200
   4798   4796   4810     1   109.5600471 388.275200
   4798   4796   4818     1   109.7800468 425.094400
   4799   4797   4800     1   109.5600471 388.275200
   4799   4797   4809     1   110.2600474 425.931200
   4800   4801   4803     1   109.5600471 388.275200
   4800   4808   4811     1   107.2600461 396.643200
   4801   4800   4804     1   109.5600471 388.275200
   4801   4802   4805     1   110.2200475 386.601600
   4801   4807   4813     1   107.2600461 396.643200
   4802   4801   4803     1   109.5600471 388.275200
   4803   4801   4807     1   110.2600474 425.931200
   4804   4800   4808     1   110.2600474 425.931200
   4805   4802   4806     1   109.5800467 425.931200
   4805   4802   4818     1   109.5800467 425.931200
   4810   4816   4817     1   107.2600461 396.643200
   4814   4810   4816     1   110.2600474 425.931200
   4814   4810   4815     1   108.4600466 328.025600
   4815   4810   4816     1   110.2600474 425.931200
   4819   4820   4822     1   109.5600471 388.275200
   4819   4833   4837     1   109.5600471 388.275200
   4819   4833   4838     1   109.5600471 388.275200
   4820   4823   4827     1   109.5600471 388.275200
   4820   4832   4835     1   107.2600461 396.643200
   4820   4819   4821     1   109.5600471 388.275200
   4821   4819   4833     1   109.5600471 388.275200
   4821   4819   4841     1   109.7800468 425.094400
   4822   4820   4823     1   109.5600471 388.275200
   4822   4820   4832     1   110.2600474 425.931200
   4823   4824   4826     1   109.5600471 388.275200
   4823   4831   4834     1   107.2600461 396.643200
   4824   4825   4828     1   110.2200475 386.601600
   4824   4830   4836     1   107.2600461 396.643200
   4824   4823   4827     1   109.5600471 388.275200
   4825   4824   4826     1   109.5600471 388.275200
   4826   4824   4830     1   110.2600474 425.931200
   4827   4823   4831     1   110.2600474 425.931200
   4828   4825   4829     1   109.5800467 425.931200
   4828   4825   4841     1   109.5800467 425.931200
   4833   4839   4840     1   107.2600461 396.643200
   4837   4833   4839     1   110.2600474 425.931200
   4837   4833   4838     1   108.4600466 328.025600
   4838   4833   4839     1   110.2600474 425.931200
   4842   4843   4845     1   109.5600471 388.275200
   4842   4856   4860     1   109.5600471 388.275200
   4842   4856   4861     1   109.5600471 388.275200
   4843   4842   4844     1   109.5600471 388.275200
   4843   4846   4850     1   109.5600471 388.275200
   4843   4855   4858     1   107.2600461 396.643200
   4844   4842   4856     1   109.5600471 388.275200
   4844   4842   4864     1   109.7800468 425.094400
   4845   4843   4846     1   109.5600471 388.275200
   4845   4843   4855     1   110.2600474 425.931200
   4846   4847   4849     1   109.5600471 388.275200
   4846   4854   4857     1   107.2600461 396.643200
   4847   4846   4850     1   109.5600471 388.275200
   4847   4848   4851     1   110.2200475 386.601600
   4847   4853   4859     1   107.2600461 396.643200
   4848   4847   4849     1   109.5600471 388.275200
   4849   4847   4853     1   110.2600474 425.931200
   4850   4846   4854     1   110.2600474 425.931200
   4851   4848   4852     1   109.5800467 425.931200
   4851   4848   4864     1   109.5800467 425.931200
   4856   4862   4863     1   107.2600461 396.643200
   4860   4856   4862     1   110.2600474 425.931200
   4860   4856   4861     1   108.4600466 328.025600
   4861   4856   4862     1   110.2600474 425.931200
   4865   4866   4868     1   109.5600471 388.275200
   4865   4879   4883     1   109.5600471 388.275200
   4865   4879   4884     1   109.5600471 388.275200
   4866   4869   4873     1   109.5600471 388.275200
   4866   4878   4881     1   107.2600461 396.643200
   4866   4865   4867     1   109.5600471 388.275200
   4867   4865   4879     1   109.5600471 388.275200
   4867   4865   4887     1   109.7800468 425.094400
   4868   4866   4869     1   109.5600471 388.275200
   4868   4866   4878     1   110.2600474 425.931200
   4869   4870   4872     1   109.5600471 388.275200
   4869   4877   4880     1   107.2600461 396.643200
   4870   4871   4874     1   110.2200475 386.601600
   4870   4876   4882     1   107.2600461 396.643200
   4870   4869   4873     1   109.5600471 388.275200
   4871   4870   4872     1   109.5600471 388.275200
   4872   4870   4876     1   110.2600474 425.931200
   4873   4869   4877     1   110.2600474 425.931200
   4874   4871   4875     1   109.5800467 425.931200
   4874   4871   4887     1   109.5800467 425.931200
   4879   4885   4886     1   107.2600461 396.643200
   4883   4879   4885     1   110.2600474 425.931200
   4883   4879   4884     1   108.4600466 328.025600
   4884   4879   4885     1   110.2600474 425.931200
   4888   4889   4891     1   109.5600471 388.275200
   4888   4902   4906     1   109.5600471 388.275200
   4888   4902   4907     1   109.5600471 388.275200
   4889   4888   4890     1   109.5600471 388.275200
   4889   4892   4896     1   109.5600471 388.275200
   4889   4901   4904     1   107.2600461 396.643200
   4890   4888   4902     1   109.5600471 388.275200
   4890   4888   4910     1   109.7800468 425.094400
   4891   4889   4892     1   109.5600471 388.275200
   4891   4889   4901     1   110.2600474 425.931200
   4892   4893   4895     1   109.5600471 388.275200
   4892   4900   4903     1   107.2600461 396.643200
   4893   4892   4896     1   109.5600471 388.275200
   4893   4894   4897     1   110.2200475 386.601600
   4893   4899   4905     1   107.2600461 396.643200
   4894   4893   4895     1   109.5600471 388.275200
   4895   4893   4899     1   110.2600474 425.931200
   4896   4892   4900     1   110.2600474 425.931200
   4897   4894   4898     1   109.5800467 425.931200
   4897   4894   4910     1   109.5800467 425.931200
   4902   4908   4909     1   107.2600461 396.643200
   4906   4902   4908     1   110.2600474 425.931200
   4906   4902   4907     1   108.4600466 328.025600
   4907   4902   4908     1   110.2600474 425.931200
   4911   4912   4914     1   109.5600471 388.275200
   4911   4925   4929     1   109.5600471 388.275200
   4911   4925   4930     1   109.5600471 388.275200
   4912   4915   4919     1   109.5600471 388.275200
   4912   4924   4927     1   107.2600461 396.643200
   4912   4911   4913     1   109.5600471 388.275200
   4913   4911   4925     1   109.5600471 388.275200
   4913   4911   4933     1   109.7800468 425.094400
   4914   4912   4915     1   109.5600471 388.275200
   4914   4912   4924     1   110.2600474 425.931200
   4915   4916   4918     1   109.5600471 388.275200
   4915   4923   4926     1   107.2600461 396.643200
   4916   4917   4920     1   110.2200475 386.601600
   4916   4922   4928     1   107.2600461 396.643200
   4916   4915   4919     1   109.5600471 388.275200
   4917   4916   4918     1   109.5600471 388.275200
   4918   4916   4922     1   110.2600474 425.931200
   4919   4915   4923     1   110.2600474 425.931200
   4920   4917   4921     1   109.5800467 425.931200
   4920   4917   4933     1   109.5800467 425.931200
   4925   4931   4932     1   107.2600461 396.643200
   4929   4925   4931     1   110.2600474 425.931200
   4929   4925   4930     1   108.4600466 328.025600
   4930   4925   4931     1   110.2600474 425.931200

[ dihedrals ]
;    ai     aj     ak     al funct         c0         c1         c2         c3         c4         c5
      1      2     14     26     1  0.0000000  0.6508444  3
      1      5     17     20     1  0.0000000  0.6508444  3
      1      8     11     23     1  0.0000000  0.6508444  3
      2      1      5     17     1  180.0000771  2.0083200  2
      2      1      5     17     1  0.0000000  1.2552000  3
      2      1      8     11     1  180.0000771  2.0083200  2
      2      1      8     11     1  0.0000000  1.2552000  3
      2     14     26    115     1  0.0000000  0.6508444  3
      5      1      2     14     1  180.0000771  2.0083200  2
      5      1      2     14     1  0.0000000  1.2552000  3
      5      1      8     11     1  180.0000771  2.0083200  2
      5      1      8     11     1  0.0000000  1.2552000  3
      5     17     20     57     1  0.0000000  0.6508444  3
      8      1      2     14     1  180.0000771  2.0083200  2
      8      1      2     14     1  0.0000000  1.2552000  3
      8      1      5     17     1  180.0000771  2.0083200  2
      8      1      5     17     1  0.0000000  1.2552000  3
      8     11     23     86     1  0.0000000  0.6508444  3
     11     23     86     77     1  180.0000771  0.4184000  2
     11     23     86     77     1  0.0000000  1.6024720  3
     14     26    115    106     1  180.0000771  0.4184000  2
     14     26    115    106     1  0.0000000  1.6024720  3
     17     20     57     48     1  180.0000771  0.4184000  2
     17     20     57     48     1  0.0000000  1.6024720  3
     20     57     48     39     1  180.0000771  0.4184000  2
     20     57     48     39     1  0.0000000  1.6024720  3
     23     86     77     68     1  180.0000771  0.4184000  2
     23     86     77     68     1  0.0000000  1.6024720  3
     26    115    106     97     1  180.0000771  0.4184000  2
     26    115    106     97     1  0.0000000  1.6024720  3
     29     30     42     54     1  0.0000000  0.6508444  3
     29     33     45     51     1  0.0000000  0.6508444  3
     29     36     39     48     1  0.0000000  0.6508444  3
     30     29     33     45     1  180.0000771  2.0083200  2
     30     29     33     45     1  0.0000000  1.2552000  3
     30     29     36     39     1  180.0000771  2.0083200  2
     30     29     36     39     1  0.0000000  1.2552000  3
     30     42     54    173     1  0.0000000  0.6508444  3
     33     29     30     42     1  180.0000771  2.0083200  2
     33     29     30     42     1  0.0000000  1.2552000  3
     33     29     36     39     1  180.0000771  2.0083200  2
     33     29     36     39     1  0.0000000  1.2552000  3
     33     45     51    144     1  0.0000000  0.6508444  3
     36     29     30     42     1  180.0000771  2.0083200  2
     36     29     30     42     1  0.0000000  1.2552000  3
     36     29     33     45     1  180.0000771  2.0083200  2
     36     29     33     45     1  0.0000000  1.2552000  3
     36     39     48     57     1  0.0000000  0.6508444  3
     42     54    173    164     1  180.0000771  0.4184000  2
     42     54    173    164     1  0.0000000  1.6024720  3
     45     51    144    135     1  180.0000771  0.4184000  2
     45     51    144    135     1  0.0000000  1.6024720  3
     51    144    135    126     1  180.0000771  0.4184000  2
     51    144    135    126     1  0.0000000  1.6024720  3
     54    173    164    155     1  180.0000771  0.4184000  2
     54    173    164    155     1  0.0000000  1.6024720  3
     58     59     71     83     1  0.0000000  0.6508444  3
     58     62     74     80     1  0.0000000  0.6508444  3
     58     65     68     77     1  0.0000000  0.6508444  3
     59     58     62     74     1  180.0000771  2.0083200  2
     59     58     62     74     1  0.0000000  1.2552000  3
     59     58     65     68     1  180.0000771  2.0083200  2
     59     58     65     68     1  0.0000000  1.2552000  3
     59     71     83    231     1  0.0000000  0.6508444  3
     62     58     59     71     1  180.0000771  2.0083200  2
     62     58     59     71     1  0.0000000  1.2552000  3
     62     58     65     68     1  180.0000771  2.0083200  2
     62     58     65     68     1  0.0000000  1.2552000  3
     62     74     80    202     1  0.0000000  0.6508444  3
     65     58     59     71     1  180.0000771  2.0083200  2
     65     58     59     71     1  0.0000000  1.2552000  3
     65     58     62     74     1  180.0000771  2.0083200  2
     65     58     62     74     1  0.0000000  1.2552000  3
     65     68     77     86     1  0.0000000  0.6508444  3
     71     83    231    222     1  180.0000771  0.4184000  2
     71     83    231    222     1  0.0000000  1.6024720  3
     74     80    202    193     1  180.0000771  0.4184000  2
     74     80    202    193     1  0.0000000  1.6024720  3
     80    202    193    184     1  180.0000771  0.4184000  2
     80    202    193    184     1  0.0000000  1.6024720  3
     83    231    222    213     1  180.0000771  0.4184000  2
     83    231    222    213     1  0.0000000  1.6024720  3
     87     88    100    112     1  0.0000000  0.6508444  3
     87     91    103    109     1  0.0000000  0.6508444  3
     87     94     97    106     1  0.0000000  0.6508444  3
     88     87     91    103     1  180.0000771  2.0083200  2
     88     87     91    103     1  0.0000000  1.2552000  3
     88     87     94     97     1  180.0000771  2.0083200  2
     88     87     94     97     1  0.0000000  1.2552000  3
     88    100    112    289     1  0.0000000  0.6508444  3
     91     87     88    100     1  180.0000771  2.0083200  2
     91     87     88    100     1  0.0000000  1.2552000  3
     91     87     94     97     1  180.0000771  2.0083200  2
     91     87     94     97     1  0.0000000  1.2552000  3
     91    103    109    260     1  0.0000000  0.6508444  3
     94     87     88    100     1  180.0000771  2.0083200  2
     94     87     88    100     1  0.0000000  1.2552000  3
     94     87     91    103     1  180.0000771  2.0083200  2
     94     87     91    103     1  0.0000000  1.2552000  3
     94     97    106    115     1  0.0000000  0.6508444  3
    100    112    289    280     1  180.0000771  0.4184000  2
    100    112    289    280     1  0.0000000  1.6024720  3
    103    109    260    251     1  180.0000771  0.4184000  2
    103    109    260    251     1  0.0000000  1.6024720  3
    109    260    251    242     1  180.0000771  0.4184000  2
    109    260    251    242     1  0.0000000  1.6024720  3
    112    289    280    271     1  180.0000771  0.4184000  2
    112    289    280    271     1  0.0000000  1.6024720  3
    116    117    129    141     1  0.0000000  0.6508444  3
    116    120    132    138     1  0.0000000  0.6508444  3
    116    123    126    135     1  0.0000000  0.6508444  3
    117    116    120    132     1  180.0000771  2.0083200  2
    117    116    120    132     1  0.0000000  1.2552000  3
    117    116    123    126     1  180.0000771  2.0083200  2
    117    116    123    126     1  0.0000000  1.2552000  3
    117    129    141    347     1  0.0000000  0.6508444  3
    120    116    117    129     1  180.0000771  2.0083200  2
    120    116    117    129     1  0.0000000  1.2552000  3
    120    116    123    126     1  180.0000771  2.0083200  2
    120    116    123    126     1  0.0000000  1.2552000  3
    120    132    138    318     1  0.0000000  0.6508444  3
    123    116    117    129     1  180.0000771  2.0083200  2
    123    116    117    129     1  0.0000000  1.2552000  3
    123    116    120    132     1  180.0000771  2.0083200  2
    123    116    120    132     1  0.0000000  1.2552000  3
    123    126    135    144     1  0.0000000  0.6508444  3
    129    141    347    338     1  180.0000771  0.4184000  2
    129    141    347    338     1  0.0000000  1.6024720  3
    132    138    318    309     1  180.0000771  0.4184000  2
    132    138    318    309     1  0.0000000  1.6024720  3
    138    318    309    300     1  180.0000771  0.4184000  2
    138    318    309    300     1  0.0000000  1.6024720  3
    141    347    338    329     1  180.0000771  0.4184000  2
    141    347    338    329     1  0.0000000  1.6024720  3
    145    146    158    170     1  0.0000000  0.6508444  3
    145    149    161    167     1  0.0000000  0.6508444  3
    145    152    155    164     1  0.0000000  0.6508444  3
    146    145    149    161     1  180.0000771  2.0083200  2
    146    145    149    161     1  0.0000000  1.2552000  3
    146    145    152    155     1  180.0000771  2.0083200  2
    146    145    152    155     1  0.0000000  1.2552000  3
    146    158    170    405     1  0.0000000  0.6508444  3
    149    145    146    158     1  180.0000771  2.0083200  2
    149    145    146    158     1  0.0000000  1.2552000  3
    149    145    152    155     1  180.0000771  2.0083200  2
    149    145    152    155     1  0.0000000  1.2552000  3
    149    161    167    376     1  0.0000000  0.6508444  3
    152    145    146    158     1  180.0000771  2.0083200  2
    152    145    146    158     1  0.0000000  1.2552000  3
    152    145    149    161     1  180.0000771  2.0083200  2
    152    145    149    161     1  0.0000000  1.2552000  3
    152    155    164    173     1  0.0000000  0.6508444  3
    158    170    405    396     1  180.0000771  0.4184000  2
    158    170    405    396     1  0.0000000  1.6024720  3
    161    167    376    367     1  180.0000771  0.4184000  2
    161    167    376    367     1  0.0000000  1.6024720  3
    167    376    367    358     1  180.0000771  0.4184000  2
    167    376    367    358     1  0.0000000  1.6024720  3
    170    405    396    387     1  180.0000771  0.4184000  2
    170    405    396    387     1  0.0000000  1.6024720  3
    174    175    187    199     1  0.0000000  0.6508444  3
    174    178    190    196     1  0.0000000  0.6508444  3
    174    181    184    193     1  0.0000000  0.6508444  3
    175    174    178    190     1  180.0000771  2.0083200  2
    175    174    178    190     1  0.0000000  1.2552000  3
    175    174    181    184     1  180.0000771  2.0083200  2
    175    174    181    184     1  0.0000000  1.2552000  3
    175    187    199    463     1  0.0000000  0.6508444  3
    178    174    175    187     1  180.0000771  2.0083200  2
    178    174    175    187     1  0.0000000  1.2552000  3
    178    174    181    184     1  180.0000771  2.0083200  2
    178    174    181    184     1  0.0000000  1.2552000  3
    178    190    196    434     1  0.0000000  0.6508444  3
    181    174    175    187     1  180.0000771  2.0083200  2
    181    174    175    187     1  0.0000000  1.2552000  3
    181    174    178    190     1  180.0000771  2.0083200  2
    181    174    178    190     1  0.0000000  1.2552000  3
    181    184    193    202     1  0.0000000  0.6508444  3
    187    199    463    454     1  180.0000771  0.4184000  2
    187    199    463    454     1  0.0000000  1.6024720  3
    190    196    434    425     1  180.0000771  0.4184000  2
    190    196    434    425     1  0.0000000  1.6024720  3
    196    434    425    416     1  180.0000771  0.4184000  2
    196    434    425    416     1  0.0000000  1.6024720  3
    199    463    454    445     1  180.0000771  0.4184000  2
    199    463    454    445     1  0.0000000  1.6024720  3
    203    204    216    228     1  0.0000000  0.6508444  3
    203    207    219    225     1  0.0000000  0.6508444  3
    203    210    213    222     1  0.0000000  0.6508444  3
    204    203    207    219     1  180.0000771  2.0083200  2
    204    203    207    219     1  0.0000000  1.2552000  3
    204    203    210    213     1  180.0000771  2.0083200  2
    204    203    210    213     1  0.0000000  1.2552000  3
    204    216    228    521     1  0.0000000  0.6508444  3
    207    203    204    216     1  180.0000771  2.0083200  2
    207    203    204    216     1  0.0000000  1.2552000  3
    207    203    210    213     1  180.0000771  2.0083200  2
    207    203    210    213     1  0.0000000  1.2552000  3
    207    219    225    492     1  0.0000000  0.6508444  3
    210    203    204    216     1  180.0000771  2.0083200  2
    210    203    204    216     1  0.0000000  1.2552000  3
    210    203    207    219     1  180.0000771  2.0083200  2
    210    203    207    219     1  0.0000000  1.2552000  3
    210    213    222    231     1  0.0000000  0.6508444  3
    216    228    521    512     1  180.0000771  0.4184000  2
    216    228    521    512     1  0.0000000  1.6024720  3
    219    225    492    483     1  180.0000771  0.4184000  2
    219    225    492    483     1  0.0000000  1.6024720  3
    225    492    483    474     1  180.0000771  0.4184000  2
    225    492    483    474     1  0.0000000  1.6024720  3
    228    521    512    503     1  180.0000771  0.4184000  2
    228    521    512    503     1  0.0000000  1.6024720  3
    232    233    245    257     1  0.0000000  0.6508444  3
    232    236    248    254     1  0.0000000  0.6508444  3
    232    239    242    251     1  0.0000000  0.6508444  3
    233    232    236    248     1  180.0000771  2.0083200  2
    233    232    236    248     1  0.0000000  1.2552000  3
    233    232    239    242     1  180.0000771  2.0083200  2
    233    232    239    242     1  0.0000000  1.2552000  3
    233    245    257    579     1  0.0000000  0.6508444  3
    236    232    233    245     1  180.0000771  2.0083200  2
    236    232    233    245     1  0.0000000  1.2552000  3
    236    232    239    242     1  180.0000771  2.0083200  2
    236    232    239    242     1  0.0000000  1.2552000  3
    236    248    254    550     1  0.0000000  0.6508444  3
    239    232    233    245     1  180.0000771  2.0083200  2
    239    232    233    245     1  0.0000000  1.2552000  3
    239    232    236    248     1  180.0000771  2.0083200  2
    239    232    236    248     1  0.0000000  1.2552000  3
    239    242    251    260     1  0.0000000  0.6508444  3
    245    257    579    570     1  180.0000771  0.4184000  2
    245    257    579    570     1  0.0000000  1.6024720  3
    248    254    550    541     1  180.0000771  0.4184000  2
    248    254    550    541     1  0.0000000  1.6024720  3
    254    550    541    532     1  180.0000771  0.4184000  2
    254    550    541    532     1  0.0000000  1.6024720  3
    257    579    570    561     1  180.0000771  0.4184000  2
    257    579    570    561     1  0.0000000  1.6024720  3
    261    262    274    286     1  0.0000000  0.6508444  3
    261    265    277    283     1  0.0000000  0.6508444  3
    261    268    271    280     1  0.0000000  0.6508444  3
    262    261    265    277     1  180.0000771  2.0083200  2
    262    261    265    277     1  0.0000000  1.2552000  3
    262    261    268    271     1  180.0000771  2.0083200  2
    262    261    268    271     1  0.0000000  1.2552000  3
    262    274    286    637     1  0.0000000  0.6508444  3
    265    261    262    274     1  180.0000771  2.0083200  2
    265    261    262    274     1  0.0000000  1.2552000  3
    265    261    268    271     1  180.0000771  2.0083200  2
    265    261    268    271     1  0.0000000  1.2552000  3
    265    277    283    608     1  0.0000000  0.6508444  3
    268    261    262    274     1  180.0000771  2.0083200  2
    268    261    262    274     1  0.0000000  1.2552000  3
    268    261    265    277     1  180.0000771  2.0083200  2
    268    261    265    277     1  0.0000000  1.2552000  3
    268    271    280    289     1  0.0000000  0.6508444  3
    274    286    637    628     1  180.0000771  0.4184000  2
    274    286    637    628     1  0.0000000  1.6024720  3
    277    283    608    599     1  180.0000771  0.4184000  2
    277    283    608    599     1  0.0000000  1.6024720  3
    283    608    599    590     1  180.0000771  0.4184000  2
    283    608    599    590     1  0.0000000  1.6024720  3
    286    637    628    619     1  180.0000771  0.4184000  2
    286    637    628    619     1  0.0000000  1.6024720  3
    290    291    303    315     1  0.0000000  0.6508444  3
    290    294    306    312     1  0.0000000  0.6508444  3
    290    297    300    309     1  0.0000000  0.6508444  3
    291    290    294    306     1  180.0000771  2.0083200  2
    291    290    294    306     1  0.0000000  1.2552000  3
    291    290    297    300     1  180.0000771  2.0083200  2
    291    290    297    300     1  0.0000000  1.2552000  3
    291    303    315    695     1  0.0000000  0.6508444  3
    294    290    291    303     1  180.0000771  2.0083200  2
    294    290    291    303     1  0.0000000  1.2552000  3
    294    290    297    300     1  180.0000771  2.0083200  2
    294    290    297    300     1  0.0000000  1.2552000  3
    294    306    312    666     1  0.0000000  0.6508444  3
    297    290    291    303     1  180.0000771  2.0083200  2
    297    290    291    303     1  0.0000000  1.2552000  3
    297    290    294    306     1  180.0000771  2.0083200  2
    297    290    294    306     1  0.0000000  1.2552000  3
    297    300    309    318     1  0.0000000  0.6508444  3
    303    315    695    686     1  180.0000771  0.4184000  2
    303    315    695    686     1  0.0000000  1.6024720  3
    306    312    666    657     1  180.0000771  0.4184000  2
    306    312    666    657     1  0.0000000  1.6024720  3
    312    666    657    648     1  180.0000771  0.4184000  2
    312    666    657    648     1  0.0000000  1.6024720  3
    315    695    686    677     1  180.0000771  0.4184000  2
    315    695    686    677     1  0.0000000  1.6024720  3
    319    320    332    344     1  0.0000000  0.6508444  3
    319    323    335    341     1  0.0000000  0.6508444  3
    319    326    329    338     1  0.0000000  0.6508444  3
    320    319    323    335     1  180.0000771  2.0083200  2
    320    319    323    335     1  0.0000000  1.2552000  3
    320    319    326    329     1  180.0000771  2.0083200  2
    320    319    326    329     1  0.0000000  1.2552000  3
    320    332    344    753     1  0.0000000  0.6508444  3
    323    319    320    332     1  180.0000771  2.0083200  2
    323    319    320    332     1  0.0000000  1.2552000  3
    323    319    326    329     1  180.0000771  2.0083200  2
    323    319    326    329     1  0.0000000  1.2552000  3
    323    335    341    724     1  0.0000000  0.6508444  3
    326    319    320    332     1  180.0000771  2.0083200  2
    326    319    320    332     1  0.0000000  1.2552000  3
    326    319    323    335     1  180.0000771  2.0083200  2
    326    319    323    335     1  0.0000000  1.2552000  3
    326    329    338    347     1  0.0000000  0.6508444  3
    332    344    753    744     1  180.0000771  0.4184000  2
    332    344    753    744     1  0.0000000  1.6024720  3
    335    341    724    715     1  180.0000771  0.4184000  2
    335    341    724    715     1  0.0000000  1.6024720  3
    341    724    715    706     1  180.0000771  0.4184000  2
    341    724    715    706     1  0.0000000  1.6024720  3
    344    753    744    735     1  180.0000771  0.4184000  2
    344    753    744    735     1  0.0000000  1.6024720  3
    348    349    361    373     1  0.0000000  0.6508444  3
    348    352    364    370     1  0.0000000  0.6508444  3
    348    355    358    367     1  0.0000000  0.6508444  3
    349    348    352    364     1  180.0000771  2.0083200  2
    349    348    352    364     1  0.0000000  1.2552000  3
    349    348    355    358     1  180.0000771  2.0083200  2
    349    348    355    358     1  0.0000000  1.2552000  3
    349    361    373    811     1  0.0000000  0.6508444  3
    352    348    349    361     1  180.0000771  2.0083200  2
    352    348    349    361     1  0.0000000  1.2552000  3
    352    348    355    358     1  180.0000771  2.0083200  2
    352    348    355    358     1  0.0000000  1.2552000  3
    352    364    370    782     1  0.0000000  0.6508444  3
    355    348    349    361     1  180.0000771  2.0083200  2
    355    348    349    361     1  0.0000000  1.2552000  3
    355    348    352    364     1  180.0000771  2.0083200  2
    355    348    352    364     1  0.0000000  1.2552000  3
    355    358    367    376     1  0.0000000  0.6508444  3
    361    373    811    802     1  180.0000771  0.4184000  2
    361    373    811    802     1  0.0000000  1.6024720  3
    364    370    782    773     1  180.0000771  0.4184000  2
    364    370    782    773     1  0.0000000  1.6024720  3
    370    782    773    764     1  180.0000771  0.4184000  2
    370    782    773    764     1  0.0000000  1.6024720  3
    373    811    802    793     1  180.0000771  0.4184000  2
    373    811    802    793     1  0.0000000  1.6024720  3
    377    378    390    402     1  0.0000000  0.6508444  3
    377    381    393    399     1  0.0000000  0.6508444  3
    377    384    387    396     1  0.0000000  0.6508444  3
    378    377    381    393     1  180.0000771  2.0083200  2
    378    377    381    393     1  0.0000000  1.2552000  3
    378    377    384    387     1  180.0000771  2.0083200  2
    378    377    384    387     1  0.0000000  1.2552000  3
    378    390    402    869     1  0.0000000  0.6508444  3
    381    377    378    390     1  180.0000771  2.0083200  2
    381    377    378    390     1  0.0000000  1.2552000  3
    381    377    384    387     1  180.0000771  2.0083200  2
    381    377    384    387     1  0.0000000  1.2552000  3
    381    393    399    840     1  0.0000000  0.6508444  3
    384    377    378    390     1  180.0000771  2.0083200  2
    384    377    378    390     1  0.0000000  1.2552000  3
    384    377    381    393     1  180.0000771  2.0083200  2
    384    377    381    393     1  0.0000000  1.2552000  3
    384    387    396    405     1  0.0000000  0.6508444  3
    390    402    869    860     1  180.0000771  0.4184000  2
    390    402    869    860     1  0.0000000  1.6024720  3
    393    399    840    831     1  180.0000771  0.4184000  2
    393    399    840    831     1  0.0000000  1.6024720  3
    399    840    831    822     1  180.0000771  0.4184000  2
    399    840    831    822     1  0.0000000  1.6024720  3
    402    869    860    851     1  180.0000771  0.4184000  2
    402    869    860    851     1  0.0000000  1.6024720  3
    406    407    419    431     1  0.0000000  0.6508444  3
    406    410    422    428     1  0.0000000  0.6508444  3
    406    413    416    425     1  0.0000000  0.6508444  3
    407    406    410    422     1  180.0000771  2.0083200  2
    407    406    410    422     1  0.0000000  1.2552000  3
    407    406    413    416     1  180.0000771  2.0083200  2
    407    406    413    416     1  0.0000000  1.2552000  3
    407    419    431    927     1  0.0000000  0.6508444  3
    410    406    407    419     1  180.0000771  2.0083200  2
    410    406    407    419     1  0.0000000  1.2552000  3
    410    406    413    416     1  180.0000771  2.0083200  2
    410    406    413    416     1  0.0000000  1.2552000  3
    410    422    428    898     1  0.0000000  0.6508444  3
    413    406    407    419     1  180.0000771  2.0083200  2
    413    406    407    419     1  0.0000000  1.2552000  3
    413    406    410    422     1  180.0000771  2.0083200  2
    413    406    410    422     1  0.0000000  1.2552000  3
    413    416    425    434     1  0.0000000  0.6508444  3
    419    431    927    918     1  180.0000771  0.4184000  2
    419    431    927    918     1  0.0000000  1.6024720  3
    422    428    898    889     1  180.0000771  0.4184000  2
    422    428    898    889     1  0.0000000  1.6024720  3
    428    898    889    880     1  180.0000771  0.4184000  2
    428    898    889    880     1  0.0000000  1.6024720  3
    431    927    918    909     1  180.0000771  0.4184000  2
    431    927    918    909     1  0.0000000  1.6024720  3
    435    436    448    460     1  0.0000000  0.6508444  3
    435    439    451    457     1  0.0000000  0.6508444  3
    435    442    445    454     1  0.0000000  0.6508444  3
    436    435    439    451     1  180.0000771  2.0083200  2
    436    435    439    451     1  0.0000000  1.2552000  3
    436    435    442    445     1  180.0000771  2.0083200  2
    436    435    442    445     1  0.0000000  1.2552000  3
    436    448    460    985     1  0.0000000  0.6508444  3
    439    435    436    448     1  180.0000771  2.0083200  2
    439    435    436    448     1  0.0000000  1.2552000  3
    439    435    442    445     1  180.0000771  2.0083200  2
    439    435    442    445     1  0.0000000  1.2552000  3
    439    451    457    956     1  0.0000000  0.6508444  3
    442    435    436    448     1  180.0000771  2.0083200  2
    442    435    436    448     1  0.0000000  1.2552000  3
    442    435    439    451     1  180.0000771  2.0083200  2
    442    435    439    451     1  0.0000000  1.2552000  3
    442    445    454    463     1  0.0000000  0.6508444  3
    448    460    985    976     1  180.0000771  0.4184000  2
    448    460    985    976     1  0.0000000  1.6024720  3
    451    457    956    947     1  180.0000771  0.4184000  2
    451    457    956    947     1  0.0000000  1.6024720  3
    457    956    947    938     1  180.0000771  0.4184000  2
    457    956    947    938     1  0.0000000  1.6024720  3
    460    985    976    967     1  180.0000771  0.4184000  2
    460    985    976    967     1  0.0000000  1.6024720  3
    464    465    477    489     1  0.0000000  0.6508444  3
    464    468    480    486     1  0.0000000  0.6508444  3
    464    471    474    483     1  0.0000000  0.6508444  3
    465    464    468    480     1  180.0000771  2.0083200  2
    465    464    468    480     1  0.0000000  1.2552000  3
    465    464    471    474     1  180.0000771  2.0083200  2
    465    464    471    474     1  0.0000000  1.2552000  3
    465    477    489   1043     1  0.0000000  0.6508444  3
    468    464    465    477     1  180.0000771  2.0083200  2
    468    464    465    477     1  0.0000000  1.2552000  3
    468    464    471    474     1  180.0000771  2.0083200  2
    468    464    471    474     1  0.0000000  1.2552000  3
    468    480    486   1014     1  0.0000000  0.6508444  3
    471    464    465    477     1  180.0000771  2.0083200  2
    471    464    465    477     1  0.0000000  1.2552000  3
    471    464    468    480     1  180.0000771  2.0083200  2
    471    464    468    480     1  0.0000000  1.2552000  3
    471    474    483    492     1  0.0000000  0.6508444  3
    477    489   1043   1034     1  180.0000771  0.4184000  2
    477    489   1043   1034     1  0.0000000  1.6024720  3
    480    486   1014   1005     1  180.0000771  0.4184000  2
    480    486   1014   1005     1  0.0000000  1.6024720  3
    486   1014   1005    996     1  180.0000771  0.4184000  2
    486   1014   1005    996     1  0.0000000  1.6024720  3
    489   1043   1034   1025     1  180.0000771  0.4184000  2
    489   1043   1034   1025     1  0.0000000  1.6024720  3
    493    494    506    518     1  0.0000000  0.6508444  3
    493    497    509    515     1  0.0000000  0.6508444  3
    493    500    503    512     1  0.0000000  0.6508444  3
    494    493    497    509     1  180.0000771  2.0083200  2
    494    493    497    509     1  0.0000000  1.2552000  3
    494    493    500    503     1  180.0000771  2.0083200  2
    494    493    500    503     1  0.0000000  1.2552000  3
    494    506    518   1101     1  0.0000000  0.6508444  3
    497    493    494    506     1  180.0000771  2.0083200  2
    497    493    494    506     1  0.0000000  1.2552000  3
    497    493    500    503     1  180.0000771  2.0083200  2
    497    493    500    503     1  0.0000000  1.2552000  3
    497    509    515   1072     1  0.0000000  0.6508444  3
    500    493    494    506     1  180.0000771  2.0083200  2
    500    493    494    506     1  0.0000000  1.2552000  3
    500    493    497    509     1  180.0000771  2.0083200  2
    500    493    497    509     1  0.0000000  1.2552000  3
    500    503    512    521     1  0.0000000  0.6508444  3
    506    518   1101   1092     1  180.0000771  0.4184000  2
    506    518   1101   1092     1  0.0000000  1.6024720  3
    509    515   1072   1063     1  180.0000771  0.4184000  2
    509    515   1072   1063     1  0.0000000  1.6024720  3
    515   1072   1063   1054     1  180.0000771  0.4184000  2
    515   1072   1063   1054     1  0.0000000  1.6024720  3
    518   1101   1092   1083     1  180.0000771  0.4184000  2
    518   1101   1092   1083     1  0.0000000  1.6024720  3
    522    523    535    547     1  0.0000000  0.6508444  3
    522    526    538    544     1  0.0000000  0.6508444  3
    522    529    532    541     1  0.0000000  0.6508444  3
    523    522    526    538     1  180.0000771  2.0083200  2
    523    522    526    538     1  0.0000000  1.2552000  3
    523    522    529    532     1  180.0000771  2.0083200  2
    523    522    529    532     1  0.0000000  1.2552000  3
    523    535    547   1159     1  0.0000000  0.6508444  3
    526    522    523    535     1  180.0000771  2.0083200  2
    526    522    523    535     1  0.0000000  1.2552000  3
    526    522    529    532     1  180.0000771  2.0083200  2
    526    522    529    532     1  0.0000000  1.2552000  3
    526    538    544   1130     1  0.0000000  0.6508444  3
    529    522    523    535     1  180.0000771  2.0083200  2
    529    522    523    535     1  0.0000000  1.2552000  3
    529    522    526    538     1  180.0000771  2.0083200  2
    529    522    526    538     1  0.0000000  1.2552000  3
    529    532    541    550     1  0.0000000  0.6508444  3
    535    547   1159   1150     1  180.0000771  0.4184000  2
    535    547   1159   1150     1  0.0000000  1.6024720  3
    538    544   1130   1121     1  180.0000771  0.4184000  2
    538    544   1130   1121     1  0.0000000  1.6024720  3
    544   1130   1121   1112     1  180.0000771  0.4184000  2
    544   1130   1121   1112     1  0.0000000  1.6024720  3
    547   1159   1150   1141     1  180.0000771  0.4184000  2
    547   1159   1150   1141     1  0.0000000  1.6024720  3
    551    552    564    576     1  0.0000000  0.6508444  3
    551    555    567    573     1  0.0000000  0.6508444  3
    551    558    561    570     1  0.0000000  0.6508444  3
    552    551    555    567     1  180.0000771  2.0083200  2
    552    551    555    567     1  0.0000000  1.2552000  3
    552    551    558    561     1  180.0000771  2.0083200  2
    552    551    558    561     1  0.0000000  1.2552000  3
    552    564    576   1217     1  0.0000000  0.6508444  3
    555    551    552    564     1  180.0000771  2.0083200  2
    555    551    552    564     1  0.0000000  1.2552000  3
    555    551    558    561     1  180.0000771  2.0083200  2
    555    551    558    561     1  0.0000000  1.2552000  3
    555    567    573   1188     1  0.0000000  0.6508444  3
    558    551    552    564     1  180.0000771  2.0083200  2
    558    551    552    564     1  0.0000000  1.2552000  3
    558    551    555    567     1  180.0000771  2.0083200  2
    558    551    555    567     1  0.0000000  1.2552000  3
    558    561    570    579     1  0.0000000  0.6508444  3
    564    576   1217   1208     1  180.0000771  0.4184000  2
    564    576   1217   1208     1  0.0000000  1.6024720  3
    567    573   1188   1179     1  180.0000771  0.4184000  2
    567    573   1188   1179     1  0.0000000  1.6024720  3
    573   1188   1179   1170     1  180.0000771  0.4184000  2
    573   1188   1179   1170     1  0.0000000  1.6024720  3
    576   1217   1208   1199     1  180.0000771  0.4184000  2
    576   1217   1208   1199     1  0.0000000  1.6024720  3
    580    581    593    605     1  0.0000000  0.6508444  3
    580    584    596    602     1  0.0000000  0.6508444  3
    580    587    590    599     1  0.0000000  0.6508444  3
    581    580    584    596     1  180.0000771  2.0083200  2
    581    580    584    596     1  0.0000000  1.2552000  3
    581    580    587    590     1  180.0000771  2.0083200  2
    581    580    587    590     1  0.0000000  1.2552000  3
    581    593    605   1275     1  0.0000000  0.6508444  3
    584    580    581    593     1  180.0000771  2.0083200  2
    584    580    581    593     1  0.0000000  1.2552000  3
    584    580    587    590     1  180.0000771  2.0083200  2
    584    580    587    590     1  0.0000000  1.2552000  3
    584    596    602   1246     1  0.0000000  0.6508444  3
    587    580    581    593     1  180.0000771  2.0083200  2
    587    580    581    593     1  0.0000000  1.2552000  3
    587    580    584    596     1  180.0000771  2.0083200  2
    587    580    584    596     1  0.0000000  1.2552000  3
    587    590    599    608     1  0.0000000  0.6508444  3
    593    605   1275   1266     1  180.0000771  0.4184000  2
    593    605   1275   1266     1  0.0000000  1.6024720  3
    596    602   1246   1237     1  180.0000771  0.4184000  2
    596    602   1246   1237     1  0.0000000  1.6024720  3
    602   1246   1237   1228     1  180.0000771  0.4184000  2
    602   1246   1237   1228     1  0.0000000  1.6024720  3
    605   1275   1266   1257     1  180.0000771  0.4184000  2
    605   1275   1266   1257     1  0.0000000  1.6024720  3
    609    610    622    634     1  0.0000000  0.6508444  3
    609    613    625    631     1  0.0000000  0.6508444  3
    609    616    619    628     1  0.0000000  0.6508444  3
    610    609    613    625     1  180.0000771  2.0083200  2
    610    609    613    625     1  0.0000000  1.2552000  3
    610    609    616    619     1  180.0000771  2.0083200  2
    610    609    616    619     1  0.0000000  1.2552000  3
    610    622    634   1333     1  0.0000000  0.6508444  3
    613    609    610    622     1  180.0000771  2.0083200  2
    613    609    610    622     1  0.0000000  1.2552000  3
    613    609    616    619     1  180.0000771  2.0083200  2
    613    609    616    619     1  0.0000000  1.2552000  3
    613    625    631   1304     1  0.0000000  0.6508444  3
    616    609    610    622     1  180.0000771  2.0083200  2
    616    609    610    622     1  0.0000000  1.2552000  3
    616    609    613    625     1  180.0000771  2.0083200  2
    616    609    613    625     1  0.0000000  1.2552000  3
    616    619    628    637     1  0.0000000  0.6508444  3
    622    634   1333   1324     1  180.0000771  0.4184000  2
    622    634   1333   1324     1  0.0000000  1.6024720  3
    625    631   1304   1295     1  180.0000771  0.4184000  2
    625    631   1304   1295     1  0.0000000  1.6024720  3
    631   1304   1295   1286     1  180.0000771  0.4184000  2
    631   1304   1295   1286     1  0.0000000  1.6024720  3
    634   1333   1324   1315     1  180.0000771  0.4184000  2
    634   1333   1324   1315     1  0.0000000  1.6024720  3
    638    639    651    663     1  0.0000000  0.6508444  3
    638    642    654    660     1  0.0000000  0.6508444  3
    638    645    648    657     1  0.0000000  0.6508444  3
    639    638    642    654     1  180.0000771  2.0083200  2
    639    638    642    654     1  0.0000000  1.2552000  3
    639    638    645    648     1  180.0000771  2.0083200  2
    639    638    645    648     1  0.0000000  1.2552000  3
    639    651    663   1391     1  0.0000000  0.6508444  3
    642    638    639    651     1  180.0000771  2.0083200  2
    642    638    639    651     1  0.0000000  1.2552000  3
    642    638    645    648     1  180.0000771  2.0083200  2
    642    638    645    648     1  0.0000000  1.2552000  3
    642    654    660   1362     1  0.0000000  0.6508444  3
    645    638    639    651     1  180.0000771  2.0083200  2
    645    638    639    651     1  0.0000000  1.2552000  3
    645    638    642    654     1  180.0000771  2.0083200  2
    645    638    642    654     1  0.0000000  1.2552000  3
    645    648    657    666     1  0.0000000  0.6508444  3
    651    663   1391   1382     1  180.0000771  0.4184000  2
    651    663   1391   1382     1  0.0000000  1.6024720  3
    654    660   1362   1353     1  180.0000771  0.4184000  2
    654    660   1362   1353     1  0.0000000  1.6024720  3
    660   1362   1353   1344     1  180.0000771  0.4184000  2
    660   1362   1353   1344     1  0.0000000  1.6024720  3
    663   1391   1382   1373     1  180.0000771  0.4184000  2
    663   1391   1382   1373     1  0.0000000  1.6024720  3
    667    668    680    692     1  0.0000000  0.6508444  3
    667    671    683    689     1  0.0000000  0.6508444  3
    667    674    677    686     1  0.0000000  0.6508444  3
    668    667    671    683     1  180.0000771  2.0083200  2
    668    667    671    683     1  0.0000000  1.2552000  3
    668    667    674    677     1  180.0000771  2.0083200  2
    668    667    674    677     1  0.0000000  1.2552000  3
    668    680    692   1449     1  0.0000000  0.6508444  3
    671    667    668    680     1  180.0000771  2.0083200  2
    671    667    668    680     1  0.0000000  1.2552000  3
    671    667    674    677     1  180.0000771  2.0083200  2
    671    667    674    677     1  0.0000000  1.2552000  3
    671    683    689   1420     1  0.0000000  0.6508444  3
    674    667    668    680     1  180.0000771  2.0083200  2
    674    667    668    680     1  0.0000000  1.2552000  3
    674    667    671    683     1  180.0000771  2.0083200  2
    674    667    671    683     1  0.0000000  1.2552000  3
    674    677    686    695     1  0.0000000  0.6508444  3
    680    692   1449   1440     1  180.0000771  0.4184000  2
    680    692   1449   1440     1  0.0000000  1.6024720  3
    683    689   1420   1411     1  180.0000771  0.4184000  2
    683    689   1420   1411     1  0.0000000  1.6024720  3
    689   1420   1411   1402     1  180.0000771  0.4184000  2
    689   1420   1411   1402     1  0.0000000  1.6024720  3
    692   1449   1440   1431     1  180.0000771  0.4184000  2
    692   1449   1440   1431     1  0.0000000  1.6024720  3
    696    697    709    721     1  0.0000000  0.6508444  3
    696    700    712    718     1  0.0000000  0.6508444  3
    696    703    706    715     1  0.0000000  0.6508444  3
    697    696    700    712     1  180.0000771  2.0083200  2
    697    696    700    712     1  0.0000000  1.2552000  3
    697    696    703    706     1  180.0000771  2.0083200  2
    697    696    703    706     1  0.0000000  1.2552000  3
    697    709    721   1507     1  0.0000000  0.6508444  3
    700    696    697    709     1  180.0000771  2.0083200  2
    700    696    697    709     1  0.0000000  1.2552000  3
    700    696    703    706     1  180.0000771  2.0083200  2
    700    696    703    706     1  0.0000000  1.2552000  3
    700    712    718   1478     1  0.0000000  0.6508444  3
    703    696    697    709     1  180.0000771  2.0083200  2
    703    696    697    709     1  0.0000000  1.2552000  3
    703    696    700    712     1  180.0000771  2.0083200  2
    703    696    700    712     1  0.0000000  1.2552000  3
    703    706    715    724     1  0.0000000  0.6508444  3
    709    721   1507   1498     1  180.0000771  0.4184000  2
    709    721   1507   1498     1  0.0000000  1.6024720  3
    712    718   1478   1469     1  180.0000771  0.4184000  2
    712    718   1478   1469     1  0.0000000  1.6024720  3
    718   1478   1469   1460     1  180.0000771  0.4184000  2
    718   1478   1469   1460     1  0.0000000  1.6024720  3
    721   1507   1498   1489     1  180.0000771  0.4184000  2
    721   1507   1498   1489     1  0.0000000  1.6024720  3
    725    726    738    750     1  0.0000000  0.6508444  3
    725    729    741    747     1  0.0000000  0.6508444  3
    725    732    735    744     1  0.0000000  0.6508444  3
    726    725    729    741     1  180.0000771  2.0083200  2
    726    725    729    741     1  0.0000000  1.2552000  3
    726    725    732    735     1  180.0000771  2.0083200  2
    726    725    732    735     1  0.0000000  1.2552000  3
    726    738    750   1565     1  0.0000000  0.6508444  3
    729    725    726    738     1  180.0000771  2.0083200  2
    729    725    726    738     1  0.0000000  1.2552000  3
    729    725    732    735     1  180.0000771  2.0083200  2
    729    725    732    735     1  0.0000000  1.2552000  3
    729    741    747   1536     1  0.0000000  0.6508444  3
    732    725    726    738     1  180.0000771  2.0083200  2
    732    725    726    738     1  0.0000000  1.2552000  3
    732    725    729    741     1  180.0000771  2.0083200  2
    732    725    729    741     1  0.0000000  1.2552000  3
    732    735    744    753     1  0.0000000  0.6508444  3
    738    750   1565   1556     1  180.0000771  0.4184000  2
    738    750   1565   1556     1  0.0000000  1.6024720  3
    741    747   1536   1527     1  180.0000771  0.4184000  2
    741    747   1536   1527     1  0.0000000  1.6024720  3
    747   1536   1527   1518     1  180.0000771  0.4184000  2
    747   1536   1527   1518     1  0.0000000  1.6024720  3
    750   1565   1556   1547     1  180.0000771  0.4184000  2
    750   1565   1556   1547     1  0.0000000  1.6024720  3
    754    755    767    779     1  0.0000000  0.6508444  3
    754    758    770    776     1  0.0000000  0.6508444  3
    754    761    764    773     1  0.0000000  0.6508444  3
    755    754    758    770     1  180.0000771  2.0083200  2
    755    754    758    770     1  0.0000000  1.2552000  3
    755    754    761    764     1  180.0000771  2.0083200  2
    755    754    761    764     1  0.0000000  1.2552000  3
    755    767    779   1623     1  0.0000000  0.6508444  3
    758    754    755    767     1  180.0000771  2.0083200  2
    758    754    755    767     1  0.0000000  1.2552000  3
    758    754    761    764     1  180.0000771  2.0083200  2
    758    754    761    764     1  0.0000000  1.2552000  3
    758    770    776   1594     1  0.0000000  0.6508444  3
    761    754    755    767     1  180.0000771  2.0083200  2
    761    754    755    767     1  0.0000000  1.2552000  3
    761    754    758    770     1  180.0000771  2.0083200  2
    761    754    758    770     1  0.0000000  1.2552000  3
    761    764    773    782     1  0.0000000  0.6508444  3
    767    779   1623   1614     1  180.0000771  0.4184000  2
    767    779   1623   1614     1  0.0000000  1.6024720  3
    770    776   1594   1585     1  180.0000771  0.4184000  2
    770    776   1594   1585     1  0.0000000  1.6024720  3
    776   1594   1585   1576     1  180.0000771  0.4184000  2
    776   1594   1585   1576     1  0.0000000  1.6024720  3
    779   1623   1614   1605     1  180.0000771  0.4184000  2
    779   1623   1614   1605     1  0.0000000  1.6024720  3
    783    784    796    808     1  0.0000000  0.6508444  3
    783    787    799    805     1  0.0000000  0.6508444  3
    783    790    793    802     1  0.0000000  0.6508444  3
    784    783    787    799     1  180.0000771  2.0083200  2
    784    783    787    799     1  0.0000000  1.2552000  3
    784    783    790    793     1  180.0000771  2.0083200  2
    784    783    790    793     1  0.0000000  1.2552000  3
    784    796    808   1681     1  0.0000000  0.6508444  3
    787    783    784    796     1  180.0000771  2.0083200  2
    787    783    784    796     1  0.0000000  1.2552000  3
    787    783    790    793     1  180.0000771  2.0083200  2
    787    783    790    793     1  0.0000000  1.2552000  3
    787    799    805   1652     1  0.0000000  0.6508444  3
    790    783    784    796     1  180.0000771  2.0083200  2
    790    783    784    796     1  0.0000000  1.2552000  3
    790    783    787    799     1  180.0000771  2.0083200  2
    790    783    787    799     1  0.0000000  1.2552000  3
    790    793    802    811     1  0.0000000  0.6508444  3
    796    808   1681   1672     1  180.0000771  0.4184000  2
    796    808   1681   1672     1  0.0000000  1.6024720  3
    799    805   1652   1643     1  180.0000771  0.4184000  2
    799    805   1652   1643     1  0.0000000  1.6024720  3
    805   1652   1643   1634     1  180.0000771  0.4184000  2
    805   1652   1643   1634     1  0.0000000  1.6024720  3
    808   1681   1672   1663     1  180.0000771  0.4184000  2
    808   1681   1672   1663     1  0.0000000  1.6024720  3
    812    813    825    837     1  0.0000000  0.6508444  3
    812    816    828    834     1  0.0000000  0.6508444  3
    812    819    822    831     1  0.0000000  0.6508444  3
    813    812    816    828     1  180.0000771  2.0083200  2
    813    812    816    828     1  0.0000000  1.2552000  3
    813    812    819    822     1  180.0000771  2.0083200  2
    813    812    819    822     1  0.0000000  1.2552000  3
    813    825    837   1739     1  0.0000000  0.6508444  3
    816    812    813    825     1  180.0000771  2.0083200  2
    816    812    813    825     1  0.0000000  1.2552000  3
    816    812    819    822     1  180.0000771  2.0083200  2
    816    812    819    822     1  0.0000000  1.2552000  3
    816    828    834   1710     1  0.0000000  0.6508444  3
    819    812    813    825     1  180.0000771  2.0083200  2
    819    812    813    825     1  0.0000000  1.2552000  3
    819    812    816    828     1  180.0000771  2.0083200  2
    819    812    816    828     1  0.0000000  1.2552000  3
    819    822    831    840     1  0.0000000  0.6508444  3
    825    837   1739   1730     1  180.0000771  0.4184000  2
    825    837   1739   1730     1  0.0000000  1.6024720  3
    828    834   1710   1701     1  180.0000771  0.4184000  2
    828    834   1710   1701     1  0.0000000  1.6024720  3
    834   1710   1701   1692     1  180.0000771  0.4184000  2
    834   1710   1701   1692     1  0.0000000  1.6024720  3
    837   1739   1730   1721     1  180.0000771  0.4184000  2
    837   1739   1730   1721     1  0.0000000  1.6024720  3
    841    842    854    866     1  0.0000000  0.6508444  3
    841    845    857    863     1  0.0000000  0.6508444  3
    841    848    851    860     1  0.0000000  0.6508444  3
    842    841    845    857     1  180.0000771  2.0083200  2
    842    841    845    857     1  0.0000000  1.2552000  3
    842    841    848    851     1  180.0000771  2.0083200  2
    842    841    848    851     1  0.0000000  1.2552000  3
    842    854    866   1797     1  0.0000000  0.6508444  3
    845    841    842    854     1  180.0000771  2.0083200  2
    845    841    842    854     1  0.0000000  1.2552000  3
    845    841    848    851     1  180.0000771  2.0083200  2
    845    841    848    851     1  0.0000000  1.2552000  3
    845    857    863   1768     1  0.0000000  0.6508444  3
    848    841    842    854     1  180.0000771  2.0083200  2
    848    841    842    854     1  0.0000000  1.2552000  3
    848    841    845    857     1  180.0000771  2.0083200  2
    848    841    845    857     1  0.0000000  1.2552000  3
    848    851    860    869     1  0.0000000  0.6508444  3
    854    866   1797   1788     1  180.0000771  0.4184000  2
    854    866   1797   1788     1  0.0000000  1.6024720  3
    857    863   1768   1759     1  180.0000771  0.4184000  2
    857    863   1768   1759     1  0.0000000  1.6024720  3
    863   1768   1759   1750     1  180.0000771  0.4184000  2
    863   1768   1759   1750     1  0.0000000  1.6024720  3
    866   1797   1788   1779     1  180.0000771  0.4184000  2
    866   1797   1788   1779     1  0.0000000  1.6024720  3
    870    871    883    895     1  0.0000000  0.6508444  3
    870    874    886    892     1  0.0000000  0.6508444  3
    870    877    880    889     1  0.0000000  0.6508444  3
    871    870    874    886     1  180.0000771  2.0083200  2
    871    870    874    886     1  0.0000000  1.2552000  3
    871    870    877    880     1  180.0000771  2.0083200  2
    871    870    877    880     1  0.0000000  1.2552000  3
    871    883    895   1855     1  0.0000000  0.6508444  3
    874    870    871    883     1  180.0000771  2.0083200  2
    874    870    871    883     1  0.0000000  1.2552000  3
    874    870    877    880     1  180.0000771  2.0083200  2
    874    870    877    880     1  0.0000000  1.2552000  3
    874    886    892   1826     1  0.0000000  0.6508444  3
    877    870    871    883     1  180.0000771  2.0083200  2
    877    870    871    883     1  0.0000000  1.2552000  3
    877    870    874    886     1  180.0000771  2.0083200  2
    877    870    874    886     1  0.0000000  1.2552000  3
    877    880    889    898     1  0.0000000  0.6508444  3
    883    895   1855   1846     1  180.0000771  0.4184000  2
    883    895   1855   1846     1  0.0000000  1.6024720  3
    886    892   1826   1817     1  180.0000771  0.4184000  2
    886    892   1826   1817     1  0.0000000  1.6024720  3
    892   1826   1817   1808     1  180.0000771  0.4184000  2
    892   1826   1817   1808     1  0.0000000  1.6024720  3
    895   1855   1846   1837     1  180.0000771  0.4184000  2
    895   1855   1846   1837     1  0.0000000  1.6024720  3
    899    900    912    924     1  0.0000000  0.6508444  3
    899    903    915    921     1  0.0000000  0.6508444  3
    899    906    909    918     1  0.0000000  0.6508444  3
    900    899    903    915     1  180.0000771  2.0083200  2
    900    899    903    915     1  0.0000000  1.2552000  3
    900    899    906    909     1  180.0000771  2.0083200  2
    900    899    906    909     1  0.0000000  1.2552000  3
    900    912    924   1913     1  0.0000000  0.6508444  3
    903    899    900    912     1  180.0000771  2.0083200  2
    903    899    900    912     1  0.0000000  1.2552000  3
    903    899    906    909     1  180.0000771  2.0083200  2
    903    899    906    909     1  0.0000000  1.2552000  3
    903    915    921   1884     1  0.0000000  0.6508444  3
    906    899    900    912     1  180.0000771  2.0083200  2
    906    899    900    912     1  0.0000000  1.2552000  3
    906    899    903    915     1  180.0000771  2.0083200  2
    906    899    903    915     1  0.0000000  1.2552000  3
    906    909    918    927     1  0.0000000  0.6508444  3
    912    924   1913   1904     1  180.0000771  0.4184000  2
    912    924   1913   1904     1  0.0000000  1.6024720  3
    915    921   1884   1875     1  180.0000771  0.4184000  2
    915    921   1884   1875     1  0.0000000  1.6024720  3
    921   1884   1875   1866     1  180.0000771  0.4184000  2
    921   1884   1875   1866     1  0.0000000  1.6024720  3
    924   1913   1904   1895     1  180.0000771  0.4184000  2
    924   1913   1904   1895     1  0.0000000  1.6024720  3
    928    929    941    953     1  0.0000000  0.6508444  3
    928    932    944    950     1  0.0000000  0.6508444  3
    928    935    938    947     1  0.0000000  0.6508444  3
    929    928    932    944     1  180.0000771  2.0083200  2
    929    928    932    944     1  0.0000000  1.2552000  3
    929    928    935    938     1  180.0000771  2.0083200  2
    929    928    935    938     1  0.0000000  1.2552000  3
    929    941    953   1971     1  0.0000000  0.6508444  3
    932    928    929    941     1  180.0000771  2.0083200  2
    932    928    929    941     1  0.0000000  1.2552000  3
    932    928    935    938     1  180.0000771  2.0083200  2
    932    928    935    938     1  0.0000000  1.2552000  3
    932    944    950   1942     1  0.0000000  0.6508444  3
    935    928    929    941     1  180.0000771  2.0083200  2
    935    928    929    941     1  0.0000000  1.2552000  3
    935    928    932    944     1  180.0000771  2.0083200  2
    935    928    932    944     1  0.0000000  1.2552000  3
    935    938    947    956     1  0.0000000  0.6508444  3
    941    953   1971   1962     1  180.0000771  0.4184000  2
    941    953   1971   1962     1  0.0000000  1.6024720  3
    944    950   1942   1933     1  180.0000771  0.4184000  2
    944    950   1942   1933     1  0.0000000  1.6024720  3
    950   1942   1933   1924     1  180.0000771  0.4184000  2
    950   1942   1933   1924     1  0.0000000  1.6024720  3
    953   1971   1962   1953     1  180.0000771  0.4184000  2
    953   1971   1962   1953     1  0.0000000  1.6024720  3
    957    958    970    982     1  0.0000000  0.6508444  3
    957    961    973    979     1  0.0000000  0.6508444  3
    957    964    967    976     1  0.0000000  0.6508444  3
    958    957    961    973     1  180.0000771  2.0083200  2
    958    957    961    973     1  0.0000000  1.2552000  3
    958    957    964    967     1  180.0000771  2.0083200  2
    958    957    964    967     1  0.0000000  1.2552000  3
    958    970    982   2029     1  0.0000000  0.6508444  3
    961    957    958    970     1  180.0000771  2.0083200  2
    961    957    958    970     1  0.0000000  1.2552000  3
    961    957    964    967     1  180.0000771  2.0083200  2
    961    957    964    967     1  0.0000000  1.2552000  3
    961    973    979   2000     1  0.0000000  0.6508444  3
    964    957    958    970     1  180.0000771  2.0083200  2
    964    957    958    970     1  0.0000000  1.2552000  3
    964    957    961    973     1  180.0000771  2.0083200  2
    964    957    961    973     1  0.0000000  1.2552000  3
    964    967    976    985     1  0.0000000  0.6508444  3
    970    982   2029   2020     1  180.0000771  0.4184000  2
    970    982   2029   2020     1  0.0000000  1.6024720  3
    973    979   2000   1991     1  180.0000771  0.4184000  2
    973    979   2000   1991     1  0.0000000  1.6024720  3
    979   2000   1991   1982     1  180.0000771  0.4184000  2
    979   2000   1991   1982     1  0.0000000  1.6024720  3
    982   2029   2020   2011     1  180.0000771  0.4184000  2
    982   2029   2020   2011     1  0.0000000  1.6024720  3
    986    987    999   1011     1  0.0000000  0.6508444  3
    986    990   1002   1008     1  0.0000000  0.6508444  3
    986    993    996   1005     1  0.0000000  0.6508444  3
    987    986    990   1002     1  180.0000771  2.0083200  2
    987    986    990   1002     1  0.0000000  1.2552000  3
    987    986    993    996     1  180.0000771  2.0083200  2
    987    986    993    996     1  0.0000000  1.2552000  3
    987    999   1011   2087     1  0.0000000  0.6508444  3
    990    986    987    999     1  180.0000771  2.0083200  2
    990    986    987    999     1  0.0000000  1.2552000  3
    990    986    993    996     1  180.0000771  2.0083200  2
    990    986    993    996     1  0.0000000  1.2552000  3
    990   1002   1008   2058     1  0.0000000  0.6508444  3
    993    986    987    999     1  180.0000771  2.0083200  2
    993    986    987    999     1  0.0000000  1.2552000  3
    993    986    990   1002     1  180.0000771  2.0083200  2
    993    986    990   1002     1  0.0000000  1.2552000  3
    993    996   1005   1014     1  0.0000000  0.6508444  3
    999   1011   2087   2078     1  180.0000771  0.4184000  2
    999   1011   2087   2078     1  0.0000000  1.6024720  3
   1002   1008   2058   2049     1  180.0000771  0.4184000  2
   1002   1008   2058   2049     1  0.0000000  1.6024720  3
   1008   2058   2049   2040     1  180.0000771  0.4184000  2
   1008   2058   2049   2040     1  0.0000000  1.6024720  3
   1011   2087   2078   2069     1  180.0000771  0.4184000  2
   1011   2087   2078   2069     1  0.0000000  1.6024720  3
   1015   1016   1028   1040     1  0.0000000  0.6508444  3
   1015   1019   1031   1037     1  0.0000000  0.6508444  3
   1015   1022   1025   1034     1  0.0000000  0.6508444  3
   1016   1015   1019   1031     1  180.0000771  2.0083200  2
   1016   1015   1019   1031     1  0.0000000  1.2552000  3
   1016   1015   1022   1025     1  180.0000771  2.0083200  2
   1016   1015   1022   1025     1  0.0000000  1.2552000  3
   1016   1028   1040   2145     1  0.0000000  0.6508444  3
   1019   1015   1016   1028     1  180.0000771  2.0083200  2
   1019   1015   1016   1028     1  0.0000000  1.2552000  3
   1019   1015   1022   1025     1  180.0000771  2.0083200  2
   1019   1015   1022   1025     1  0.0000000  1.2552000  3
   1019   1031   1037   2116     1  0.0000000  0.6508444  3
   1022   1015   1016   1028     1  180.0000771  2.0083200  2
   1022   1015   1016   1028     1  0.0000000  1.2552000  3
   1022   1015   1019   1031     1  180.0000771  2.0083200  2
   1022   1015   1019   1031     1  0.0000000  1.2552000  3
   1022   1025   1034   1043     1  0.0000000  0.6508444  3
   1028   1040   2145   2136     1  180.0000771  0.4184000  2
   1028   1040   2145   2136     1  0.0000000  1.6024720  3
   1031   1037   2116   2107     1  180.0000771  0.4184000  2
   1031   1037   2116   2107     1  0.0000000  1.6024720  3
   1037   2116   2107   2098     1  180.0000771  0.4184000  2
   1037   2116   2107   2098     1  0.0000000  1.6024720  3
   1040   2145   2136   2127     1  180.0000771  0.4184000  2
   1040   2145   2136   2127     1  0.0000000  1.6024720  3
   1044   1045   1057   1069     1  0.0000000  0.6508444  3
   1044   1048   1060   1066     1  0.0000000  0.6508444  3
   1044   1051   1054   1063     1  0.0000000  0.6508444  3
   1045   1044   1048   1060     1  180.0000771  2.0083200  2
   1045   1044   1048   1060     1  0.0000000  1.2552000  3
   1045   1044   1051   1054     1  180.0000771  2.0083200  2
   1045   1044   1051   1054     1  0.0000000  1.2552000  3
   1045   1057   1069   2203     1  0.0000000  0.6508444  3
   1048   1044   1045   1057     1  180.0000771  2.0083200  2
   1048   1044   1045   1057     1  0.0000000  1.2552000  3
   1048   1044   1051   1054     1  180.0000771  2.0083200  2
   1048   1044   1051   1054     1  0.0000000  1.2552000  3
   1048   1060   1066   2174     1  0.0000000  0.6508444  3
   1051   1044   1045   1057     1  180.0000771  2.0083200  2
   1051   1044   1045   1057     1  0.0000000  1.2552000  3
   1051   1044   1048   1060     1  180.0000771  2.0083200  2
   1051   1044   1048   1060     1  0.0000000  1.2552000  3
   1051   1054   1063   1072     1  0.0000000  0.6508444  3
   1057   1069   2203   2194     1  180.0000771  0.4184000  2
   1057   1069   2203   2194     1  0.0000000  1.6024720  3
   1060   1066   2174   2165     1  180.0000771  0.4184000  2
   1060   1066   2174   2165     1  0.0000000  1.6024720  3
   1066   2174   2165   2156     1  180.0000771  0.4184000  2
   1066   2174   2165   2156     1  0.0000000  1.6024720  3
   1069   2203   2194   2185     1  180.0000771  0.4184000  2
   1069   2203   2194   2185     1  0.0000000  1.6024720  3
   1073   1074   1086   1098     1  0.0000000  0.6508444  3
   1073   1077   1089   1095     1  0.0000000  0.6508444  3
   1073   1080   1083   1092     1  0.0000000  0.6508444  3
   1074   1073   1077   1089     1  180.0000771  2.0083200  2
   1074   1073   1077   1089     1  0.0000000  1.2552000  3
   1074   1073   1080   1083     1  180.0000771  2.0083200  2
   1074   1073   1080   1083     1  0.0000000  1.2552000  3
   1074   1086   1098   2261     1  0.0000000  0.6508444  3
   1077   1073   1074   1086     1  180.0000771  2.0083200  2
   1077   1073   1074   1086     1  0.0000000  1.2552000  3
   1077   1073   1080   1083     1  180.0000771  2.0083200  2
   1077   1073   1080   1083     1  0.0000000  1.2552000  3
   1077   1089   1095   2232     1  0.0000000  0.6508444  3
   1080   1073   1074   1086     1  180.0000771  2.0083200  2
   1080   1073   1074   1086     1  0.0000000  1.2552000  3
   1080   1073   1077   1089     1  180.0000771  2.0083200  2
   1080   1073   1077   1089     1  0.0000000  1.2552000  3
   1080   1083   1092   1101     1  0.0000000  0.6508444  3
   1086   1098   2261   2252     1  180.0000771  0.4184000  2
   1086   1098   2261   2252     1  0.0000000  1.6024720  3
   1089   1095   2232   2223     1  180.0000771  0.4184000  2
   1089   1095   2232   2223     1  0.0000000  1.6024720  3
   1095   2232   2223   2214     1  180.0000771  0.4184000  2
   1095   2232   2223   2214     1  0.0000000  1.6024720  3
   1098   2261   2252   2243     1  180.0000771  0.4184000  2
   1098   2261   2252   2243     1  0.0000000  1.6024720  3
   1102   1103   1115   1127     1  0.0000000  0.6508444  3
   1102   1106   1118   1124     1  0.0000000  0.6508444  3
   1102   1109   1112   1121     1  0.0000000  0.6508444  3
   1103   1102   1106   1118     1  180.0000771  2.0083200  2
   1103   1102   1106   1118     1  0.0000000  1.2552000  3
   1103   1102   1109   1112     1  180.0000771  2.0083200  2
   1103   1102   1109   1112     1  0.0000000  1.2552000  3
   1103   1115   1127   2319     1  0.0000000  0.6508444  3
   1106   1102   1103   1115     1  180.0000771  2.0083200  2
   1106   1102   1103   1115     1  0.0000000  1.2552000  3
   1106   1102   1109   1112     1  180.0000771  2.0083200  2
   1106   1102   1109   1112     1  0.0000000  1.2552000  3
   1106   1118   1124   2290     1  0.0000000  0.6508444  3
   1109   1102   1103   1115     1  180.0000771  2.0083200  2
   1109   1102   1103   1115     1  0.0000000  1.2552000  3
   1109   1102   1106   1118     1  180.0000771  2.0083200  2
   1109   1102   1106   1118     1  0.0000000  1.2552000  3
   1109   1112   1121   1130     1  0.0000000  0.6508444  3
   1115   1127   2319   2310     1  180.0000771  0.4184000  2
   1115   1127   2319   2310     1  0.0000000  1.6024720  3
   1118   1124   2290   2281     1  180.0000771  0.4184000  2
   1118   1124   2290   2281     1  0.0000000  1.6024720  3
   1124   2290   2281   2272     1  180.0000771  0.4184000  2
   1124   2290   2281   2272     1  0.0000000  1.6024720  3
   1127   2319   2310   2301     1  180.0000771  0.4184000  2
   1127   2319   2310   2301     1  0.0000000  1.6024720  3
   1131   1132   1144   1156     1  0.0000000  0.6508444  3
   1131   1135   1147   1153     1  0.0000000  0.6508444  3
   1131   1138   1141   1150     1  0.0000000  0.6508444  3
   1132   1131   1135   1147     1  180.0000771  2.0083200  2
   1132   1131   1135   1147     1  0.0000000  1.2552000  3
   1132   1131   1138   1141     1  180.0000771  2.0083200  2
   1132   1131   1138   1141     1  0.0000000  1.2552000  3
   1132   1144   1156   2377     1  0.0000000  0.6508444  3
   1135   1131   1132   1144     1  180.0000771  2.0083200  2
   1135   1131   1132   1144     1  0.0000000  1.2552000  3
   1135   1131   1138   1141     1  180.0000771  2.0083200  2
   1135   1131   1138   1141     1  0.0000000  1.2552000  3
   1135   1147   1153   2348     1  0.0000000  0.6508444  3
   1138   1131   1132   1144     1  180.0000771  2.0083200  2
   1138   1131   1132   1144     1  0.0000000  1.2552000  3
   1138   1131   1135   1147     1  180.0000771  2.0083200  2
   1138   1131   1135   1147     1  0.0000000  1.2552000  3
   1138   1141   1150   1159     1  0.0000000  0.6508444  3
   1144   1156   2377   2368     1  180.0000771  0.4184000  2
   1144   1156   2377   2368     1  0.0000000  1.6024720  3
   1147   1153   2348   2339     1  180.0000771  0.4184000  2
   1147   1153   2348   2339     1  0.0000000  1.6024720  3
   1153   2348   2339   2330     1  180.0000771  0.4184000  2
   1153   2348   2339   2330     1  0.0000000  1.6024720  3
   1156   2377   2368   2359     1  180.0000771  0.4184000  2
   1156   2377   2368   2359     1  0.0000000  1.6024720  3
   1160   1161   1173   1185     1  0.0000000  0.6508444  3
   1160   1164   1176   1182     1  0.0000000  0.6508444  3
   1160   1167   1170   1179     1  0.0000000  0.6508444  3
   1161   1160   1164   1176     1  180.0000771  2.0083200  2
   1161   1160   1164   1176     1  0.0000000  1.2552000  3
   1161   1160   1167   1170     1  180.0000771  2.0083200  2
   1161   1160   1167   1170     1  0.0000000  1.2552000  3
   1161   1173   1185   2435     1  0.0000000  0.6508444  3
   1164   1160   1161   1173     1  180.0000771  2.0083200  2
   1164   1160   1161   1173     1  0.0000000  1.2552000  3
   1164   1160   1167   1170     1  180.0000771  2.0083200  2
   1164   1160   1167   1170     1  0.0000000  1.2552000  3
   1164   1176   1182   2406     1  0.0000000  0.6508444  3
   1167   1160   1161   1173     1  180.0000771  2.0083200  2
   1167   1160   1161   1173     1  0.0000000  1.2552000  3
   1167   1160   1164   1176     1  180.0000771  2.0083200  2
   1167   1160   1164   1176     1  0.0000000  1.2552000  3
   1167   1170   1179   1188     1  0.0000000  0.6508444  3
   1173   1185   2435   2426     1  180.0000771  0.4184000  2
   1173   1185   2435   2426     1  0.0000000  1.6024720  3
   1176   1182   2406   2397     1  180.0000771  0.4184000  2
   1176   1182   2406   2397     1  0.0000000  1.6024720  3
   1182   2406   2397   2388     1  180.0000771  0.4184000  2
   1182   2406   2397   2388     1  0.0000000  1.6024720  3
   1185   2435   2426   2417     1  180.0000771  0.4184000  2
   1185   2435   2426   2417     1  0.0000000  1.6024720  3
   1189   1190   1202   1214     1  0.0000000  0.6508444  3
   1189   1193   1205   1211     1  0.0000000  0.6508444  3
   1189   1196   1199   1208     1  0.0000000  0.6508444  3
   1190   1189   1193   1205     1  180.0000771  2.0083200  2
   1190   1189   1193   1205     1  0.0000000  1.2552000  3
   1190   1189   1196   1199     1  180.0000771  2.0083200  2
   1190   1189   1196   1199     1  0.0000000  1.2552000  3
   1190   1202   1214   2493     1  0.0000000  0.6508444  3
   1193   1189   1190   1202     1  180.0000771  2.0083200  2
   1193   1189   1190   1202     1  0.0000000  1.2552000  3
   1193   1189   1196   1199     1  180.0000771  2.0083200  2
   1193   1189   1196   1199     1  0.0000000  1.2552000  3
   1193   1205   1211   2464     1  0.0000000  0.6508444  3
   1196   1189   1190   1202     1  180.0000771  2.0083200  2
   1196   1189   1190   1202     1  0.0000000  1.2552000  3
   1196   1189   1193   1205     1  180.0000771  2.0083200  2
   1196   1189   1193   1205     1  0.0000000  1.2552000  3
   1196   1199   1208   1217     1  0.0000000  0.6508444  3
   1202   1214   2493   2484     1  180.0000771  0.4184000  2
   1202   1214   2493   2484     1  0.0000000  1.6024720  3
   1205   1211   2464   2455     1  180.0000771  0.4184000  2
   1205   1211   2464   2455     1  0.0000000  1.6024720  3
   1211   2464   2455   2446     1  180.0000771  0.4184000  2
   1211   2464   2455   2446     1  0.0000000  1.6024720  3
   1214   2493   2484   2475     1  180.0000771  0.4184000  2
   1214   2493   2484   2475     1  0.0000000  1.6024720  3
   1218   1219   1231   1243     1  0.0000000  0.6508444  3
   1218   1222   1234   1240     1  0.0000000  0.6508444  3
   1218   1225   1228   1237     1  0.0000000  0.6508444  3
   1219   1218   1222   1234     1  180.0000771  2.0083200  2
   1219   1218   1222   1234     1  0.0000000  1.2552000  3
   1219   1218   1225   1228     1  180.0000771  2.0083200  2
   1219   1218   1225   1228     1  0.0000000  1.2552000  3
   1219   1231   1243   2551     1  0.0000000  0.6508444  3
   1222   1218   1219   1231     1  180.0000771  2.0083200  2
   1222   1218   1219   1231     1  0.0000000  1.2552000  3
   1222   1218   1225   1228     1  180.0000771  2.0083200  2
   1222   1218   1225   1228     1  0.0000000  1.2552000  3
   1222   1234   1240   2522     1  0.0000000  0.6508444  3
   1225   1218   1219   1231     1  180.0000771  2.0083200  2
   1225   1218   1219   1231     1  0.0000000  1.2552000  3
   1225   1218   1222   1234     1  180.0000771  2.0083200  2
   1225   1218   1222   1234     1  0.0000000  1.2552000  3
   1225   1228   1237   1246     1  0.0000000  0.6508444  3
   1231   1243   2551   2542     1  180.0000771  0.4184000  2
   1231   1243   2551   2542     1  0.0000000  1.6024720  3
   1234   1240   2522   2513     1  180.0000771  0.4184000  2
   1234   1240   2522   2513     1  0.0000000  1.6024720  3
   1240   2522   2513   2504     1  180.0000771  0.4184000  2
   1240   2522   2513   2504     1  0.0000000  1.6024720  3
   1243   2551   2542   2533     1  180.0000771  0.4184000  2
   1243   2551   2542   2533     1  0.0000000  1.6024720  3
   1247   1248   1260   1272     1  0.0000000  0.6508444  3
   1247   1251   1263   1269     1  0.0000000  0.6508444  3
   1247   1254   1257   1266     1  0.0000000  0.6508444  3
   1248   1247   1251   1263     1  180.0000771  2.0083200  2
   1248   1247   1251   1263     1  0.0000000  1.2552000  3
   1248   1247   1254   1257     1  180.0000771  2.0083200  2
   1248   1247   1254   1257     1  0.0000000  1.2552000  3
   1248   1260   1272   2609     1  0.0000000  0.6508444  3
   1251   1247   1248   1260     1  180.0000771  2.0083200  2
   1251   1247   1248   1260     1  0.0000000  1.2552000  3
   1251   1247   1254   1257     1  180.0000771  2.0083200  2
   1251   1247   1254   1257     1  0.0000000  1.2552000  3
   1251   1263   1269   2580     1  0.0000000  0.6508444  3
   1254   1247   1248   1260     1  180.0000771  2.0083200  2
   1254   1247   1248   1260     1  0.0000000  1.2552000  3
   1254   1247   1251   1263     1  180.0000771  2.0083200  2
   1254   1247   1251   1263     1  0.0000000  1.2552000  3
   1254   1257   1266   1275     1  0.0000000  0.6508444  3
   1260   1272   2609   2600     1  180.0000771  0.4184000  2
   1260   1272   2609   2600     1  0.0000000  1.6024720  3
   1263   1269   2580   2571     1  180.0000771  0.4184000  2
   1263   1269   2580   2571     1  0.0000000  1.6024720  3
   1269   2580   2571   2562     1  180.0000771  0.4184000  2
   1269   2580   2571   2562     1  0.0000000  1.6024720  3
   1272   2609   2600   2591     1  180.0000771  0.4184000  2
   1272   2609   2600   2591     1  0.0000000  1.6024720  3
   1276   1277   1289   1301     1  0.0000000  0.6508444  3
   1276   1280   1292   1298     1  0.0000000  0.6508444  3
   1276   1283   1286   1295     1  0.0000000  0.6508444  3
   1277   1276   1280   1292     1  180.0000771  2.0083200  2
   1277   1276   1280   1292     1  0.0000000  1.2552000  3
   1277   1276   1283   1286     1  180.0000771  2.0083200  2
   1277   1276   1283   1286     1  0.0000000  1.2552000  3
   1277   1289   1301   2667     1  0.0000000  0.6508444  3
   1280   1276   1277   1289     1  180.0000771  2.0083200  2
   1280   1276   1277   1289     1  0.0000000  1.2552000  3
   1280   1276   1283   1286     1  180.0000771  2.0083200  2
   1280   1276   1283   1286     1  0.0000000  1.2552000  3
   1280   1292   1298   2638     1  0.0000000  0.6508444  3
   1283   1276   1277   1289     1  180.0000771  2.0083200  2
   1283   1276   1277   1289     1  0.0000000  1.2552000  3
   1283   1276   1280   1292     1  180.0000771  2.0083200  2
   1283   1276   1280   1292     1  0.0000000  1.2552000  3
   1283   1286   1295   1304     1  0.0000000  0.6508444  3
   1289   1301   2667   2658     1  180.0000771  0.4184000  2
   1289   1301   2667   2658     1  0.0000000  1.6024720  3
   1292   1298   2638   2629     1  180.0000771  0.4184000  2
   1292   1298   2638   2629     1  0.0000000  1.6024720  3
   1298   2638   2629   2620     1  180.0000771  0.4184000  2
   1298   2638   2629   2620     1  0.0000000  1.6024720  3
   1301   2667   2658   2649     1  180.0000771  0.4184000  2
   1301   2667   2658   2649     1  0.0000000  1.6024720  3
   1305   1306   1318   1330     1  0.0000000  0.6508444  3
   1305   1309   1321   1327     1  0.0000000  0.6508444  3
   1305   1312   1315   1324     1  0.0000000  0.6508444  3
   1306   1305   1309   1321     1  180.0000771  2.0083200  2
   1306   1305   1309   1321     1  0.0000000  1.2552000  3
   1306   1305   1312   1315     1  180.0000771  2.0083200  2
   1306   1305   1312   1315     1  0.0000000  1.2552000  3
   1306   1318   1330   2725     1  0.0000000  0.6508444  3
   1309   1305   1306   1318     1  180.0000771  2.0083200  2
   1309   1305   1306   1318     1  0.0000000  1.2552000  3
   1309   1305   1312   1315     1  180.0000771  2.0083200  2
   1309   1305   1312   1315     1  0.0000000  1.2552000  3
   1309   1321   1327   2696     1  0.0000000  0.6508444  3
   1312   1305   1306   1318     1  180.0000771  2.0083200  2
   1312   1305   1306   1318     1  0.0000000  1.2552000  3
   1312   1305   1309   1321     1  180.0000771  2.0083200  2
   1312   1305   1309   1321     1  0.0000000  1.2552000  3
   1312   1315   1324   1333     1  0.0000000  0.6508444  3
   1318   1330   2725   2716     1  180.0000771  0.4184000  2
   1318   1330   2725   2716     1  0.0000000  1.6024720  3
   1321   1327   2696   2687     1  180.0000771  0.4184000  2
   1321   1327   2696   2687     1  0.0000000  1.6024720  3
   1327   2696   2687   2678     1  180.0000771  0.4184000  2
   1327   2696   2687   2678     1  0.0000000  1.6024720  3
   1330   2725   2716   2707     1  180.0000771  0.4184000  2
   1330   2725   2716   2707     1  0.0000000  1.6024720  3
   1334   1335   1347   1359     1  0.0000000  0.6508444  3
   1334   1338   1350   1356     1  0.0000000  0.6508444  3
   1334   1341   1344   1353     1  0.0000000  0.6508444  3
   1335   1334   1338   1350     1  180.0000771  2.0083200  2
   1335   1334   1338   1350     1  0.0000000  1.2552000  3
   1335   1334   1341   1344     1  180.0000771  2.0083200  2
   1335   1334   1341   1344     1  0.0000000  1.2552000  3
   1335   1347   1359   2759     1  0.0000000  0.6508444  3
   1338   1334   1335   1347     1  180.0000771  2.0083200  2
   1338   1334   1335   1347     1  0.0000000  1.2552000  3
   1338   1334   1341   1344     1  180.0000771  2.0083200  2
   1338   1334   1341   1344     1  0.0000000  1.2552000  3
   1338   1350   1356   2736     1  0.0000000  0.6508444  3
   1341   1334   1335   1347     1  180.0000771  2.0083200  2
   1341   1334   1335   1347     1  0.0000000  1.2552000  3
   1341   1334   1338   1350     1  180.0000771  2.0083200  2
   1341   1334   1338   1350     1  0.0000000  1.2552000  3
   1341   1344   1353   1362     1  0.0000000  0.6508444  3
   1347   1359   2759   2755     1  180.0000771  0.4184000  2
   1347   1359   2759   2755     1  0.0000000  1.6024720  3
   1350   1356   2736   2732     1  180.0000771  0.4184000  2
   1350   1356   2736   2732     1  0.0000000  1.6024720  3
   1356   2736   2732   2731     1  180.0000771  0.4184000  2
   1356   2736   2732   2731     1  0.0000000  1.6024720  3
   1356   2736   2732   2748     1  180.0000771  5.6484000  1
   1356   2736   2732   2748     1  180.0000771  3.5564000  2
   1356   2736   2732   2748     1  0.0000000  0.4184000  3
   1359   2759   2755   2771     1  180.0000771  5.6484000  1
   1359   2759   2755   2771     1  180.0000771  3.5564000  2
   1359   2759   2755   2771     1  0.0000000  0.4184000  3
   1359   2759   2755   2754     1  180.0000771  0.4184000  2
   1359   2759   2755   2754     1  0.0000000  1.6024720  3
   1363   1364   1376   1388     1  0.0000000  0.6508444  3
   1363   1367   1379   1385     1  0.0000000  0.6508444  3
   1363   1370   1373   1382     1  0.0000000  0.6508444  3
   1364   1363   1367   1379     1  180.0000771  2.0083200  2
   1364   1363   1367   1379     1  0.0000000  1.2552000  3
   1364   1363   1370   1373     1  180.0000771  2.0083200  2
   1364   1363   1370   1373     1  0.0000000  1.2552000  3
   1364   1376   1388   2805     1  0.0000000  0.6508444  3
   1367   1363   1364   1376     1  180.0000771  2.0083200  2
   1367   1363   1364   1376     1  0.0000000  1.2552000  3
   1367   1363   1370   1373     1  180.0000771  2.0083200  2
   1367   1363   1370   1373     1  0.0000000  1.2552000  3
   1367   1379   1385   2782     1  0.0000000  0.6508444  3
   1370   1363   1364   1376     1  180.0000771  2.0083200  2
   1370   1363   1364   1376     1  0.0000000  1.2552000  3
   1370   1363   1367   1379     1  180.0000771  2.0083200  2
   1370   1363   1367   1379     1  0.0000000  1.2552000  3
   1370   1373   1382   1391     1  0.0000000  0.6508444  3
   1376   1388   2805   2801     1  180.0000771  0.4184000  2
   1376   1388   2805   2801     1  0.0000000  1.6024720  3
   1379   1385   2782   2778     1  180.0000771  0.4184000  2
   1379   1385   2782   2778     1  0.0000000  1.6024720  3
   1385   2782   2778   2777     1  180.0000771  0.4184000  2
   1385   2782   2778   2777     1  0.0000000  1.6024720  3
   1385   2782   2778   2794     1  180.0000771  5.6484000  1
   1385   2782   2778   2794     1  180.0000771  3.5564000  2
   1385   2782   2778   2794     1  0.0000000  0.4184000  3
   1388   2805   2801   2817     1  180.0000771  5.6484000  1
   1388   2805   2801   2817     1  180.0000771  3.5564000  2
   1388   2805   2801   2817     1  0.0000000  0.4184000  3
   1388   2805   2801   2800     1  180.0000771  0.4184000  2
   1388   2805   2801   2800     1  0.0000000  1.6024720  3
   1392   1393   1405   1417     1  0.0000000  0.6508444  3
   1392   1396   1408   1414     1  0.0000000  0.6508444  3
   1392   1399   1402   1411     1  0.0000000  0.6508444  3
   1393   1392   1396   1408     1  180.0000771  2.0083200  2
   1393   1392   1396   1408     1  0.0000000  1.2552000  3
   1393   1392   1399   1402     1  180.0000771  2.0083200  2
   1393   1392   1399   1402     1  0.0000000  1.2552000  3
   1393   1405   1417   2851     1  0.0000000  0.6508444  3
   1396   1392   1393   1405     1  180.0000771  2.0083200  2
   1396   1392   1393   1405     1  0.0000000  1.2552000  3
   1396   1392   1399   1402     1  180.0000771  2.0083200  2
   1396   1392   1399   1402     1  0.0000000  1.2552000  3
   1396   1408   1414   2828     1  0.0000000  0.6508444  3
   1399   1392   1393   1405     1  180.0000771  2.0083200  2
   1399   1392   1393   1405     1  0.0000000  1.2552000  3
   1399   1392   1396   1408     1  180.0000771  2.0083200  2
   1399   1392   1396   1408     1  0.0000000  1.2552000  3
   1399   1402   1411   1420     1  0.0000000  0.6508444  3
   1405   1417   2851   2847     1  180.0000771  0.4184000  2
   1405   1417   2851   2847     1  0.0000000  1.6024720  3
   1408   1414   2828   2824     1  180.0000771  0.4184000  2
   1408   1414   2828   2824     1  0.0000000  1.6024720  3
   1414   2828   2824   2823     1  180.0000771  0.4184000  2
   1414   2828   2824   2823     1  0.0000000  1.6024720  3
   1414   2828   2824   2840     1  180.0000771  5.6484000  1
   1414   2828   2824   2840     1  180.0000771  3.5564000  2
   1414   2828   2824   2840     1  0.0000000  0.4184000  3
   1417   2851   2847   2863     1  180.0000771  5.6484000  1
   1417   2851   2847   2863     1  180.0000771  3.5564000  2
   1417   2851   2847   2863     1  0.0000000  0.4184000  3
   1417   2851   2847   2846     1  180.0000771  0.4184000  2
   1417   2851   2847   2846     1  0.0000000  1.6024720  3
   1421   1422   1434   1446     1  0.0000000  0.6508444  3
   1421   1425   1437   1443     1  0.0000000  0.6508444  3
   1421   1428   1431   1440     1  0.0000000  0.6508444  3
   1422   1421   1425   1437     1  180.0000771  2.0083200  2
   1422   1421   1425   1437     1  0.0000000  1.2552000  3
   1422   1421   1428   1431     1  180.0000771  2.0083200  2
   1422   1421   1428   1431     1  0.0000000  1.2552000  3
   1422   1434   1446   2897     1  0.0000000  0.6508444  3
   1425   1421   1422   1434     1  180.0000771  2.0083200  2
   1425   1421   1422   1434     1  0.0000000  1.2552000  3
   1425   1421   1428   1431     1  180.0000771  2.0083200  2
   1425   1421   1428   1431     1  0.0000000  1.2552000  3
   1425   1437   1443   2874     1  0.0000000  0.6508444  3
   1428   1421   1422   1434     1  180.0000771  2.0083200  2
   1428   1421   1422   1434     1  0.0000000  1.2552000  3
   1428   1421   1425   1437     1  180.0000771  2.0083200  2
   1428   1421   1425   1437     1  0.0000000  1.2552000  3
   1428   1431   1440   1449     1  0.0000000  0.6508444  3
   1434   1446   2897   2893     1  180.0000771  0.4184000  2
   1434   1446   2897   2893     1  0.0000000  1.6024720  3
   1437   1443   2874   2870     1  180.0000771  0.4184000  2
   1437   1443   2874   2870     1  0.0000000  1.6024720  3
   1443   2874   2870   2869     1  180.0000771  0.4184000  2
   1443   2874   2870   2869     1  0.0000000  1.6024720  3
   1443   2874   2870   2886     1  180.0000771  5.6484000  1
   1443   2874   2870   2886     1  180.0000771  3.5564000  2
   1443   2874   2870   2886     1  0.0000000  0.4184000  3
   1446   2897   2893   2909     1  180.0000771  5.6484000  1
   1446   2897   2893   2909     1  180.0000771  3.5564000  2
   1446   2897   2893   2909     1  0.0000000  0.4184000  3
   1446   2897   2893   2892     1  180.0000771  0.4184000  2
   1446   2897   2893   2892     1  0.0000000  1.6024720  3
   1450   1451   1463   1475     1  0.0000000  0.6508444  3
   1450   1454   1466   1472     1  0.0000000  0.6508444  3
   1450   1457   1460   1469     1  0.0000000  0.6508444  3
   1451   1450   1454   1466     1  180.0000771  2.0083200  2
   1451   1450   1454   1466     1  0.0000000  1.2552000  3
   1451   1450   1457   1460     1  180.0000771  2.0083200  2
   1451   1450   1457   1460     1  0.0000000  1.2552000  3
   1451   1463   1475   2943     1  0.0000000  0.6508444  3
   1454   1450   1451   1463     1  180.0000771  2.0083200  2
   1454   1450   1451   1463     1  0.0000000  1.2552000  3
   1454   1450   1457   1460     1  180.0000771  2.0083200  2
   1454   1450   1457   1460     1  0.0000000  1.2552000  3
   1454   1466   1472   2920     1  0.0000000  0.6508444  3
   1457   1450   1451   1463     1  180.0000771  2.0083200  2
   1457   1450   1451   1463     1  0.0000000  1.2552000  3
   1457   1450   1454   1466     1  180.0000771  2.0083200  2
   1457   1450   1454   1466     1  0.0000000  1.2552000  3
   1457   1460   1469   1478     1  0.0000000  0.6508444  3
   1463   1475   2943   2939     1  180.0000771  0.4184000  2
   1463   1475   2943   2939     1  0.0000000  1.6024720  3
   1466   1472   2920   2916     1  180.0000771  0.4184000  2
   1466   1472   2920   2916     1  0.0000000  1.6024720  3
   1472   2920   2916   2915     1  180.0000771  0.4184000  2
   1472   2920   2916   2915     1  0.0000000  1.6024720  3
   1472   2920   2916   2932     1  180.0000771  5.6484000  1
   1472   2920   2916   2932     1  180.0000771  3.5564000  2
   1472   2920   2916   2932     1  0.0000000  0.4184000  3
   1475   2943   2939   2955     1  180.0000771  5.6484000  1
   1475   2943   2939   2955     1  180.0000771  3.5564000  2
   1475   2943   2939   2955     1  0.0000000  0.4184000  3
   1475   2943   2939   2938     1  180.0000771  0.4184000  2
   1475   2943   2939   2938     1  0.0000000  1.6024720  3
   1479   1480   1492   1504     1  0.0000000  0.6508444  3
   1479   1483   1495   1501     1  0.0000000  0.6508444  3
   1479   1486   1489   1498     1  0.0000000  0.6508444  3
   1480   1479   1483   1495     1  180.0000771  2.0083200  2
   1480   1479   1483   1495     1  0.0000000  1.2552000  3
   1480   1479   1486   1489     1  180.0000771  2.0083200  2
   1480   1479   1486   1489     1  0.0000000  1.2552000  3
   1480   1492   1504   2989     1  0.0000000  0.6508444  3
   1483   1479   1480   1492     1  180.0000771  2.0083200  2
   1483   1479   1480   1492     1  0.0000000  1.2552000  3
   1483   1479   1486   1489     1  180.0000771  2.0083200  2
   1483   1479   1486   1489     1  0.0000000  1.2552000  3
   1483   1495   1501   2966     1  0.0000000  0.6508444  3
   1486   1479   1480   1492     1  180.0000771  2.0083200  2
   1486   1479   1480   1492     1  0.0000000  1.2552000  3
   1486   1479   1483   1495     1  180.0000771  2.0083200  2
   1486   1479   1483   1495     1  0.0000000  1.2552000  3
   1486   1489   1498   1507     1  0.0000000  0.6508444  3
   1492   1504   2989   2985     1  180.0000771  0.4184000  2
   1492   1504   2989   2985     1  0.0000000  1.6024720  3
   1495   1501   2966   2962     1  180.0000771  0.4184000  2
   1495   1501   2966   2962     1  0.0000000  1.6024720  3
   1501   2966   2962   2961     1  180.0000771  0.4184000  2
   1501   2966   2962   2961     1  0.0000000  1.6024720  3
   1501   2966   2962   2978     1  180.0000771  5.6484000  1
   1501   2966   2962   2978     1  180.0000771  3.5564000  2
   1501   2966   2962   2978     1  0.0000000  0.4184000  3
   1504   2989   2985   3001     1  180.0000771  5.6484000  1
   1504   2989   2985   3001     1  180.0000771  3.5564000  2
   1504   2989   2985   3001     1  0.0000000  0.4184000  3
   1504   2989   2985   2984     1  180.0000771  0.4184000  2
   1504   2989   2985   2984     1  0.0000000  1.6024720  3
   1508   1509   1521   1533     1  0.0000000  0.6508444  3
   1508   1512   1524   1530     1  0.0000000  0.6508444  3
   1508   1515   1518   1527     1  0.0000000  0.6508444  3
   1509   1508   1512   1524     1  180.0000771  2.0083200  2
   1509   1508   1512   1524     1  0.0000000  1.2552000  3
   1509   1508   1515   1518     1  180.0000771  2.0083200  2
   1509   1508   1515   1518     1  0.0000000  1.2552000  3
   1509   1521   1533   3035     1  0.0000000  0.6508444  3
   1512   1508   1509   1521     1  180.0000771  2.0083200  2
   1512   1508   1509   1521     1  0.0000000  1.2552000  3
   1512   1508   1515   1518     1  180.0000771  2.0083200  2
   1512   1508   1515   1518     1  0.0000000  1.2552000  3
   1512   1524   1530   3012     1  0.0000000  0.6508444  3
   1515   1508   1509   1521     1  180.0000771  2.0083200  2
   1515   1508   1509   1521     1  0.0000000  1.2552000  3
   1515   1508   1512   1524     1  180.0000771  2.0083200  2
   1515   1508   1512   1524     1  0.0000000  1.2552000  3
   1515   1518   1527   1536     1  0.0000000  0.6508444  3
   1521   1533   3035   3031     1  180.0000771  0.4184000  2
   1521   1533   3035   3031     1  0.0000000  1.6024720  3
   1524   1530   3012   3008     1  180.0000771  0.4184000  2
   1524   1530   3012   3008     1  0.0000000  1.6024720  3
   1530   3012   3008   3007     1  180.0000771  0.4184000  2
   1530   3012   3008   3007     1  0.0000000  1.6024720  3
   1530   3012   3008   3024     1  180.0000771  5.6484000  1
   1530   3012   3008   3024     1  180.0000771  3.5564000  2
   1530   3012   3008   3024     1  0.0000000  0.4184000  3
   1533   3035   3031   3047     1  180.0000771  5.6484000  1
   1533   3035   3031   3047     1  180.0000771  3.5564000  2
   1533   3035   3031   3047     1  0.0000000  0.4184000  3
   1533   3035   3031   3030     1  180.0000771  0.4184000  2
   1533   3035   3031   3030     1  0.0000000  1.6024720  3
   1537   1538   1550   1562     1  0.0000000  0.6508444  3
   1537   1541   1553   1559     1  0.0000000  0.6508444  3
   1537   1544   1547   1556     1  0.0000000  0.6508444  3
   1538   1537   1541   1553     1  180.0000771  2.0083200  2
   1538   1537   1541   1553     1  0.0000000  1.2552000  3
   1538   1537   1544   1547     1  180.0000771  2.0083200  2
   1538   1537   1544   1547     1  0.0000000  1.2552000  3
   1538   1550   1562   3081     1  0.0000000  0.6508444  3
   1541   1537   1538   1550     1  180.0000771  2.0083200  2
   1541   1537   1538   1550     1  0.0000000  1.2552000  3
   1541   1537   1544   1547     1  180.0000771  2.0083200  2
   1541   1537   1544   1547     1  0.0000000  1.2552000  3
   1541   1553   1559   3058     1  0.0000000  0.6508444  3
   1544   1537   1538   1550     1  180.0000771  2.0083200  2
   1544   1537   1538   1550     1  0.0000000  1.2552000  3
   1544   1537   1541   1553     1  180.0000771  2.0083200  2
   1544   1537   1541   1553     1  0.0000000  1.2552000  3
   1544   1547   1556   1565     1  0.0000000  0.6508444  3
   1550   1562   3081   3077     1  180.0000771  0.4184000  2
   1550   1562   3081   3077     1  0.0000000  1.6024720  3
   1553   1559   3058   3054     1  180.0000771  0.4184000  2
   1553   1559   3058   3054     1  0.0000000  1.6024720  3
   1559   3058   3054   3053     1  180.0000771  0.4184000  2
   1559   3058   3054   3053     1  0.0000000  1.6024720  3
   1559   3058   3054   3070     1  180.0000771  5.6484000  1
   1559   3058   3054   3070     1  180.0000771  3.5564000  2
   1559   3058   3054   3070     1  0.0000000  0.4184000  3
   1562   3081   3077   3093     1  180.0000771  5.6484000  1
   1562   3081   3077   3093     1  180.0000771  3.5564000  2
   1562   3081   3077   3093     1  0.0000000  0.4184000  3
   1562   3081   3077   3076     1  180.0000771  0.4184000  2
   1562   3081   3077   3076     1  0.0000000  1.6024720  3
   1566   1567   1579   1591     1  0.0000000  0.6508444  3
   1566   1570   1582   1588     1  0.0000000  0.6508444  3
   1566   1573   1576   1585     1  0.0000000  0.6508444  3
   1567   1566   1570   1582     1  180.0000771  2.0083200  2
   1567   1566   1570   1582     1  0.0000000  1.2552000  3
   1567   1566   1573   1576     1  180.0000771  2.0083200  2
   1567   1566   1573   1576     1  0.0000000  1.2552000  3
   1567   1579   1591   3127     1  0.0000000  0.6508444  3
   1570   1566   1567   1579     1  180.0000771  2.0083200  2
   1570   1566   1567   1579     1  0.0000000  1.2552000  3
   1570   1566   1573   1576     1  180.0000771  2.0083200  2
   1570   1566   1573   1576     1  0.0000000  1.2552000  3
   1570   1582   1588   3104     1  0.0000000  0.6508444  3
   1573   1566   1567   1579     1  180.0000771  2.0083200  2
   1573   1566   1567   1579     1  0.0000000  1.2552000  3
   1573   1566   1570   1582     1  180.0000771  2.0083200  2
   1573   1566   1570   1582     1  0.0000000  1.2552000  3
   1573   1576   1585   1594     1  0.0000000  0.6508444  3
   1579   1591   3127   3123     1  180.0000771  0.4184000  2
   1579   1591   3127   3123     1  0.0000000  1.6024720  3
   1582   1588   3104   3100     1  180.0000771  0.4184000  2
   1582   1588   3104   3100     1  0.0000000  1.6024720  3
   1588   3104   3100   3099     1  180.0000771  0.4184000  2
   1588   3104   3100   3099     1  0.0000000  1.6024720  3
   1588   3104   3100   3116     1  180.0000771  5.6484000  1
   1588   3104   3100   3116     1  180.0000771  3.5564000  2
   1588   3104   3100   3116     1  0.0000000  0.4184000  3
   1591   3127   3123   3139     1  180.0000771  5.6484000  1
   1591   3127   3123   3139     1  180.0000771  3.5564000  2
   1591   3127   3123   3139     1  0.0000000  0.4184000  3
   1591   3127   3123   3122     1  180.0000771  0.4184000  2
   1591   3127   3123   3122     1  0.0000000  1.6024720  3
   1595   1596   1608   1620     1  0.0000000  0.6508444  3
   1595   1599   1611   1617     1  0.0000000  0.6508444  3
   1595   1602   1605   1614     1  0.0000000  0.6508444  3
   1596   1595   1599   1611     1  180.0000771  2.0083200  2
   1596   1595   1599   1611     1  0.0000000  1.2552000  3
   1596   1595   1602   1605     1  180.0000771  2.0083200  2
   1596   1595   1602   1605     1  0.0000000  1.2552000  3
   1596   1608   1620   3173     1  0.0000000  0.6508444  3
   1599   1595   1596   1608     1  180.0000771  2.0083200  2
   1599   1595   1596   1608     1  0.0000000  1.2552000  3
   1599   1595   1602   1605     1  180.0000771  2.0083200  2
   1599   1595   1602   1605     1  0.0000000  1.2552000  3
   1599   1611   1617   3150     1  0.0000000  0.6508444  3
   1602   1595   1596   1608     1  180.0000771  2.0083200  2
   1602   1595   1596   1608     1  0.0000000  1.2552000  3
   1602   1595   1599   1611     1  180.0000771  2.0083200  2
   1602   1595   1599   1611     1  0.0000000  1.2552000  3
   1602   1605   1614   1623     1  0.0000000  0.6508444  3
   1608   1620   3173   3169     1  180.0000771  0.4184000  2
   1608   1620   3173   3169     1  0.0000000  1.6024720  3
   1611   1617   3150   3146     1  180.0000771  0.4184000  2
   1611   1617   3150   3146     1  0.0000000  1.6024720  3
   1617   3150   3146   3145     1  180.0000771  0.4184000  2
   1617   3150   3146   3145     1  0.0000000  1.6024720  3
   1617   3150   3146   3162     1  180.0000771  5.6484000  1
   1617   3150   3146   3162     1  180.0000771  3.5564000  2
   1617   3150   3146   3162     1  0.0000000  0.4184000  3
   1620   3173   3169   3185     1  180.0000771  5.6484000  1
   1620   3173   3169   3185     1  180.0000771  3.5564000  2
   1620   3173   3169   3185     1  0.0000000  0.4184000  3
   1620   3173   3169   3168     1  180.0000771  0.4184000  2
   1620   3173   3169   3168     1  0.0000000  1.6024720  3
   1624   1625   1637   1649     1  0.0000000  0.6508444  3
   1624   1628   1640   1646     1  0.0000000  0.6508444  3
   1624   1631   1634   1643     1  0.0000000  0.6508444  3
   1625   1624   1628   1640     1  180.0000771  2.0083200  2
   1625   1624   1628   1640     1  0.0000000  1.2552000  3
   1625   1624   1631   1634     1  180.0000771  2.0083200  2
   1625   1624   1631   1634     1  0.0000000  1.2552000  3
   1625   1637   1649   3219     1  0.0000000  0.6508444  3
   1628   1624   1625   1637     1  180.0000771  2.0083200  2
   1628   1624   1625   1637     1  0.0000000  1.2552000  3
   1628   1624   1631   1634     1  180.0000771  2.0083200  2
   1628   1624   1631   1634     1  0.0000000  1.2552000  3
   1628   1640   1646   3196     1  0.0000000  0.6508444  3
   1631   1624   1625   1637     1  180.0000771  2.0083200  2
   1631   1624   1625   1637     1  0.0000000  1.2552000  3
   1631   1624   1628   1640     1  180.0000771  2.0083200  2
   1631   1624   1628   1640     1  0.0000000  1.2552000  3
   1631   1634   1643   1652     1  0.0000000  0.6508444  3
   1637   1649   3219   3215     1  180.0000771  0.4184000  2
   1637   1649   3219   3215     1  0.0000000  1.6024720  3
   1640   1646   3196   3192     1  180.0000771  0.4184000  2
   1640   1646   3196   3192     1  0.0000000  1.6024720  3
   1646   3196   3192   3191     1  180.0000771  0.4184000  2
   1646   3196   3192   3191     1  0.0000000  1.6024720  3
   1646   3196   3192   3208     1  180.0000771  5.6484000  1
   1646   3196   3192   3208     1  180.0000771  3.5564000  2
   1646   3196   3192   3208     1  0.0000000  0.4184000  3
   1649   3219   3215   3231     1  180.0000771  5.6484000  1
   1649   3219   3215   3231     1  180.0000771  3.5564000  2
   1649   3219   3215   3231     1  0.0000000  0.4184000  3
   1649   3219   3215   3214     1  180.0000771  0.4184000  2
   1649   3219   3215   3214     1  0.0000000  1.6024720  3
   1653   1654   1666   1678     1  0.0000000  0.6508444  3
   1653   1657   1669   1675     1  0.0000000  0.6508444  3
   1653   1660   1663   1672     1  0.0000000  0.6508444  3
   1654   1653   1657   1669     1  180.0000771  2.0083200  2
   1654   1653   1657   1669     1  0.0000000  1.2552000  3
   1654   1653   1660   1663     1  180.0000771  2.0083200  2
   1654   1653   1660   1663     1  0.0000000  1.2552000  3
   1654   1666   1678   3265     1  0.0000000  0.6508444  3
   1657   1653   1654   1666     1  180.0000771  2.0083200  2
   1657   1653   1654   1666     1  0.0000000  1.2552000  3
   1657   1653   1660   1663     1  180.0000771  2.0083200  2
   1657   1653   1660   1663     1  0.0000000  1.2552000  3
   1657   1669   1675   3242     1  0.0000000  0.6508444  3
   1660   1653   1654   1666     1  180.0000771  2.0083200  2
   1660   1653   1654   1666     1  0.0000000  1.2552000  3
   1660   1653   1657   1669     1  180.0000771  2.0083200  2
   1660   1653   1657   1669     1  0.0000000  1.2552000  3
   1660   1663   1672   1681     1  0.0000000  0.6508444  3
   1666   1678   3265   3261     1  180.0000771  0.4184000  2
   1666   1678   3265   3261     1  0.0000000  1.6024720  3
   1669   1675   3242   3238     1  180.0000771  0.4184000  2
   1669   1675   3242   3238     1  0.0000000  1.6024720  3
   1675   3242   3238   3237     1  180.0000771  0.4184000  2
   1675   3242   3238   3237     1  0.0000000  1.6024720  3
   1675   3242   3238   3254     1  180.0000771  5.6484000  1
   1675   3242   3238   3254     1  180.0000771  3.5564000  2
   1675   3242   3238   3254     1  0.0000000  0.4184000  3
   1678   3265   3261   3277     1  180.0000771  5.6484000  1
   1678   3265   3261   3277     1  180.0000771  3.5564000  2
   1678   3265   3261   3277     1  0.0000000  0.4184000  3
   1678   3265   3261   3260     1  180.0000771  0.4184000  2
   1678   3265   3261   3260     1  0.0000000  1.6024720  3
   1682   1683   1695   1707     1  0.0000000  0.6508444  3
   1682   1686   1698   1704     1  0.0000000  0.6508444  3
   1682   1689   1692   1701     1  0.0000000  0.6508444  3
   1683   1682   1686   1698     1  180.0000771  2.0083200  2
   1683   1682   1686   1698     1  0.0000000  1.2552000  3
   1683   1682   1689   1692     1  180.0000771  2.0083200  2
   1683   1682   1689   1692     1  0.0000000  1.2552000  3
   1683   1695   1707   3311     1  0.0000000  0.6508444  3
   1686   1682   1683   1695     1  180.0000771  2.0083200  2
   1686   1682   1683   1695     1  0.0000000  1.2552000  3
   1686   1682   1689   1692     1  180.0000771  2.0083200  2
   1686   1682   1689   1692     1  0.0000000  1.2552000  3
   1686   1698   1704   3288     1  0.0000000  0.6508444  3
   1689   1682   1683   1695     1  180.0000771  2.0083200  2
   1689   1682   1683   1695     1  0.0000000  1.2552000  3
   1689   1682   1686   1698     1  180.0000771  2.0083200  2
   1689   1682   1686   1698     1  0.0000000  1.2552000  3
   1689   1692   1701   1710     1  0.0000000  0.6508444  3
   1695   1707   3311   3307     1  180.0000771  0.4184000  2
   1695   1707   3311   3307     1  0.0000000  1.6024720  3
   1698   1704   3288   3284     1  180.0000771  0.4184000  2
   1698   1704   3288   3284     1  0.0000000  1.6024720  3
   1704   3288   3284   3283     1  180.0000771  0.4184000  2
   1704   3288   3284   3283     1  0.0000000  1.6024720  3
   1704   3288   3284   3300     1  180.0000771  5.6484000  1
   1704   3288   3284   3300     1  180.0000771  3.5564000  2
   1704   3288   3284   3300     1  0.0000000  0.4184000  3
   1707   3311   3307   3323     1  180.0000771  5.6484000  1
   1707   3311   3307   3323     1  180.0000771  3.5564000  2
   1707   3311   3307   3323     1  0.0000000  0.4184000  3
   1707   3311   3307   3306     1  180.0000771  0.4184000  2
   1707   3311   3307   3306     1  0.0000000  1.6024720  3
   1711   1712   1724   1736     1  0.0000000  0.6508444  3
   1711   1715   1727   1733     1  0.0000000  0.6508444  3
   1711   1718   1721   1730     1  0.0000000  0.6508444  3
   1712   1711   1715   1727     1  180.0000771  2.0083200  2
   1712   1711   1715   1727     1  0.0000000  1.2552000  3
   1712   1711   1718   1721     1  180.0000771  2.0083200  2
   1712   1711   1718   1721     1  0.0000000  1.2552000  3
   1712   1724   1736   3357     1  0.0000000  0.6508444  3
   1715   1711   1712   1724     1  180.0000771  2.0083200  2
   1715   1711   1712   1724     1  0.0000000  1.2552000  3
   1715   1711   1718   1721     1  180.0000771  2.0083200  2
   1715   1711   1718   1721     1  0.0000000  1.2552000  3
   1715   1727   1733   3334     1  0.0000000  0.6508444  3
   1718   1711   1712   1724     1  180.0000771  2.0083200  2
   1718   1711   1712   1724     1  0.0000000  1.2552000  3
   1718   1711   1715   1727     1  180.0000771  2.0083200  2
   1718   1711   1715   1727     1  0.0000000  1.2552000  3
   1718   1721   1730   1739     1  0.0000000  0.6508444  3
   1724   1736   3357   3353     1  180.0000771  0.4184000  2
   1724   1736   3357   3353     1  0.0000000  1.6024720  3
   1727   1733   3334   3330     1  180.0000771  0.4184000  2
   1727   1733   3334   3330     1  0.0000000  1.6024720  3
   1733   3334   3330   3329     1  180.0000771  0.4184000  2
   1733   3334   3330   3329     1  0.0000000  1.6024720  3
   1733   3334   3330   3346     1  180.0000771  5.6484000  1
   1733   3334   3330   3346     1  180.0000771  3.5564000  2
   1733   3334   3330   3346     1  0.0000000  0.4184000  3
   1736   3357   3353   3369     1  180.0000771  5.6484000  1
   1736   3357   3353   3369     1  180.0000771  3.5564000  2
   1736   3357   3353   3369     1  0.0000000  0.4184000  3
   1736   3357   3353   3352     1  180.0000771  0.4184000  2
   1736   3357   3353   3352     1  0.0000000  1.6024720  3
   1740   1741   1753   1765     1  0.0000000  0.6508444  3
   1740   1744   1756   1762     1  0.0000000  0.6508444  3
   1740   1747   1750   1759     1  0.0000000  0.6508444  3
   1741   1740   1744   1756     1  180.0000771  2.0083200  2
   1741   1740   1744   1756     1  0.0000000  1.2552000  3
   1741   1740   1747   1750     1  180.0000771  2.0083200  2
   1741   1740   1747   1750     1  0.0000000  1.2552000  3
   1741   1753   1765   3403     1  0.0000000  0.6508444  3
   1744   1740   1741   1753     1  180.0000771  2.0083200  2
   1744   1740   1741   1753     1  0.0000000  1.2552000  3
   1744   1740   1747   1750     1  180.0000771  2.0083200  2
   1744   1740   1747   1750     1  0.0000000  1.2552000  3
   1744   1756   1762   3380     1  0.0000000  0.6508444  3
   1747   1740   1741   1753     1  180.0000771  2.0083200  2
   1747   1740   1741   1753     1  0.0000000  1.2552000  3
   1747   1740   1744   1756     1  180.0000771  2.0083200  2
   1747   1740   1744   1756     1  0.0000000  1.2552000  3
   1747   1750   1759   1768     1  0.0000000  0.6508444  3
   1753   1765   3403   3399     1  180.0000771  0.4184000  2
   1753   1765   3403   3399     1  0.0000000  1.6024720  3
   1756   1762   3380   3376     1  180.0000771  0.4184000  2
   1756   1762   3380   3376     1  0.0000000  1.6024720  3
   1762   3380   3376   3375     1  180.0000771  0.4184000  2
   1762   3380   3376   3375     1  0.0000000  1.6024720  3
   1762   3380   3376   3392     1  180.0000771  5.6484000  1
   1762   3380   3376   3392     1  180.0000771  3.5564000  2
   1762   3380   3376   3392     1  0.0000000  0.4184000  3
   1765   3403   3399   3415     1  180.0000771  5.6484000  1
   1765   3403   3399   3415     1  180.0000771  3.5564000  2
   1765   3403   3399   3415     1  0.0000000  0.4184000  3
   1765   3403   3399   3398     1  180.0000771  0.4184000  2
   1765   3403   3399   3398     1  0.0000000  1.6024720  3
   1769   1770   1782   1794     1  0.0000000  0.6508444  3
   1769   1773   1785   1791     1  0.0000000  0.6508444  3
   1769   1776   1779   1788     1  0.0000000  0.6508444  3
   1770   1769   1773   1785     1  180.0000771  2.0083200  2
   1770   1769   1773   1785     1  0.0000000  1.2552000  3
   1770   1769   1776   1779     1  180.0000771  2.0083200  2
   1770   1769   1776   1779     1  0.0000000  1.2552000  3
   1770   1782   1794   3449     1  0.0000000  0.6508444  3
   1773   1769   1770   1782     1  180.0000771  2.0083200  2
   1773   1769   1770   1782     1  0.0000000  1.2552000  3
   1773   1769   1776   1779     1  180.0000771  2.0083200  2
   1773   1769   1776   1779     1  0.0000000  1.2552000  3
   1773   1785   1791   3426     1  0.0000000  0.6508444  3
   1776   1769   1770   1782     1  180.0000771  2.0083200  2
   1776   1769   1770   1782     1  0.0000000  1.2552000  3
   1776   1769   1773   1785     1  180.0000771  2.0083200  2
   1776   1769   1773   1785     1  0.0000000  1.2552000  3
   1776   1779   1788   1797     1  0.0000000  0.6508444  3
   1782   1794   3449   3445     1  180.0000771  0.4184000  2
   1782   1794   3449   3445     1  0.0000000  1.6024720  3
   1785   1791   3426   3422     1  180.0000771  0.4184000  2
   1785   1791   3426   3422     1  0.0000000  1.6024720  3
   1791   3426   3422   3421     1  180.0000771  0.4184000  2
   1791   3426   3422   3421     1  0.0000000  1.6024720  3
   1791   3426   3422   3438     1  180.0000771  5.6484000  1
   1791   3426   3422   3438     1  180.0000771  3.5564000  2
   1791   3426   3422   3438     1  0.0000000  0.4184000  3
   1794   3449   3445   3461     1  180.0000771  5.6484000  1
   1794   3449   3445   3461     1  180.0000771  3.5564000  2
   1794   3449   3445   3461     1  0.0000000  0.4184000  3
   1794   3449   3445   3444     1  180.0000771  0.4184000  2
   1794   3449   3445   3444     1  0.0000000  1.6024720  3
   1798   1799   1811   1823     1  0.0000000  0.6508444  3
   1798   1802   1814   1820     1  0.0000000  0.6508444  3
   1798   1805   1808   1817     1  0.0000000  0.6508444  3
   1799   1798   1802   1814     1  180.0000771  2.0083200  2
   1799   1798   1802   1814     1  0.0000000  1.2552000  3
   1799   1798   1805   1808     1  180.0000771  2.0083200  2
   1799   1798   1805   1808     1  0.0000000  1.2552000  3
   1799   1811   1823   3495     1  0.0000000  0.6508444  3
   1802   1798   1799   1811     1  180.0000771  2.0083200  2
   1802   1798   1799   1811     1  0.0000000  1.2552000  3
   1802   1798   1805   1808     1  180.0000771  2.0083200  2
   1802   1798   1805   1808     1  0.0000000  1.2552000  3
   1802   1814   1820   3472     1  0.0000000  0.6508444  3
   1805   1798   1799   1811     1  180.0000771  2.0083200  2
   1805   1798   1799   1811     1  0.0000000  1.2552000  3
   1805   1798   1802   1814     1  180.0000771  2.0083200  2
   1805   1798   1802   1814     1  0.0000000  1.2552000  3
   1805   1808   1817   1826     1  0.0000000  0.6508444  3
   1811   1823   3495   3491     1  180.0000771  0.4184000  2
   1811   1823   3495   3491     1  0.0000000  1.6024720  3
   1814   1820   3472   3468     1  180.0000771  0.4184000  2
   1814   1820   3472   3468     1  0.0000000  1.6024720  3
   1820   3472   3468   3467     1  180.0000771  0.4184000  2
   1820   3472   3468   3467     1  0.0000000  1.6024720  3
   1820   3472   3468   3484     1  180.0000771  5.6484000  1
   1820   3472   3468   3484     1  180.0000771  3.5564000  2
   1820   3472   3468   3484     1  0.0000000  0.4184000  3
   1823   3495   3491   3507     1  180.0000771  5.6484000  1
   1823   3495   3491   3507     1  180.0000771  3.5564000  2
   1823   3495   3491   3507     1  0.0000000  0.4184000  3
   1823   3495   3491   3490     1  180.0000771  0.4184000  2
   1823   3495   3491   3490     1  0.0000000  1.6024720  3
   1827   1828   1840   1852     1  0.0000000  0.6508444  3
   1827   1831   1843   1849     1  0.0000000  0.6508444  3
   1827   1834   1837   1846     1  0.0000000  0.6508444  3
   1828   1827   1831   1843     1  180.0000771  2.0083200  2
   1828   1827   1831   1843     1  0.0000000  1.2552000  3
   1828   1827   1834   1837     1  180.0000771  2.0083200  2
   1828   1827   1834   1837     1  0.0000000  1.2552000  3
   1828   1840   1852   3541     1  0.0000000  0.6508444  3
   1831   1827   1828   1840     1  180.0000771  2.0083200  2
   1831   1827   1828   1840     1  0.0000000  1.2552000  3
   1831   1827   1834   1837     1  180.0000771  2.0083200  2
   1831   1827   1834   1837     1  0.0000000  1.2552000  3
   1831   1843   1849   3518     1  0.0000000  0.6508444  3
   1834   1827   1828   1840     1  180.0000771  2.0083200  2
   1834   1827   1828   1840     1  0.0000000  1.2552000  3
   1834   1827   1831   1843     1  180.0000771  2.0083200  2
   1834   1827   1831   1843     1  0.0000000  1.2552000  3
   1834   1837   1846   1855     1  0.0000000  0.6508444  3
   1840   1852   3541   3537     1  180.0000771  0.4184000  2
   1840   1852   3541   3537     1  0.0000000  1.6024720  3
   1843   1849   3518   3514     1  180.0000771  0.4184000  2
   1843   1849   3518   3514     1  0.0000000  1.6024720  3
   1849   3518   3514   3513     1  180.0000771  0.4184000  2
   1849   3518   3514   3513     1  0.0000000  1.6024720  3
   1849   3518   3514   3530     1  180.0000771  5.6484000  1
   1849   3518   3514   3530     1  180.0000771  3.5564000  2
   1849   3518   3514   3530     1  0.0000000  0.4184000  3
   1852   3541   3537   3553     1  180.0000771  5.6484000  1
   1852   3541   3537   3553     1  180.0000771  3.5564000  2
   1852   3541   3537   3553     1  0.0000000  0.4184000  3
   1852   3541   3537   3536     1  180.0000771  0.4184000  2
   1852   3541   3537   3536     1  0.0000000  1.6024720  3
   1856   1857   1869   1881     1  0.0000000  0.6508444  3
   1856   1860   1872   1878     1  0.0000000  0.6508444  3
   1856   1863   1866   1875     1  0.0000000  0.6508444  3
   1857   1856   1860   1872     1  180.0000771  2.0083200  2
   1857   1856   1860   1872     1  0.0000000  1.2552000  3
   1857   1856   1863   1866     1  180.0000771  2.0083200  2
   1857   1856   1863   1866     1  0.0000000  1.2552000  3
   1857   1869   1881   3587     1  0.0000000  0.6508444  3
   1860   1856   1857   1869     1  180.0000771  2.0083200  2
   1860   1856   1857   1869     1  0.0000000  1.2552000  3
   1860   1856   1863   1866     1  180.0000771  2.0083200  2
   1860   1856   1863   1866     1  0.0000000  1.2552000  3
   1860   1872   1878   3564     1  0.0000000  0.6508444  3
   1863   1856   1857   1869     1  180.0000771  2.0083200  2
   1863   1856   1857   1869     1  0.0000000  1.2552000  3
   1863   1856   1860   1872     1  180.0000771  2.0083200  2
   1863   1856   1860   1872     1  0.0000000  1.2552000  3
   1863   1866   1875   1884     1  0.0000000  0.6508444  3
   1869   1881   3587   3583     1  180.0000771  0.4184000  2
   1869   1881   3587   3583     1  0.0000000  1.6024720  3
   1872   1878   3564   3560     1  180.0000771  0.4184000  2
   1872   1878   3564   3560     1  0.0000000  1.6024720  3
   1878   3564   3560   3559     1  180.0000771  0.4184000  2
   1878   3564   3560   3559     1  0.0000000  1.6024720  3
   1878   3564   3560   3576     1  180.0000771  5.6484000  1
   1878   3564   3560   3576     1  180.0000771  3.5564000  2
   1878   3564   3560   3576     1  0.0000000  0.4184000  3
   1881   3587   3583   3599     1  180.0000771  5.6484000  1
   1881   3587   3583   3599     1  180.0000771  3.5564000  2
   1881   3587   3583   3599     1  0.0000000  0.4184000  3
   1881   3587   3583   3582     1  180.0000771  0.4184000  2
   1881   3587   3583   3582     1  0.0000000  1.6024720  3
   1885   1886   1898   1910     1  0.0000000  0.6508444  3
   1885   1889   1901   1907     1  0.0000000  0.6508444  3
   1885   1892   1895   1904     1  0.0000000  0.6508444  3
   1886   1885   1889   1901     1  180.0000771  2.0083200  2
   1886   1885   1889   1901     1  0.0000000  1.2552000  3
   1886   1885   1892   1895     1  180.0000771  2.0083200  2
   1886   1885   1892   1895     1  0.0000000  1.2552000  3
   1886   1898   1910   3633     1  0.0000000  0.6508444  3
   1889   1885   1886   1898     1  180.0000771  2.0083200  2
   1889   1885   1886   1898     1  0.0000000  1.2552000  3
   1889   1885   1892   1895     1  180.0000771  2.0083200  2
   1889   1885   1892   1895     1  0.0000000  1.2552000  3
   1889   1901   1907   3610     1  0.0000000  0.6508444  3
   1892   1885   1886   1898     1  180.0000771  2.0083200  2
   1892   1885   1886   1898     1  0.0000000  1.2552000  3
   1892   1885   1889   1901     1  180.0000771  2.0083200  2
   1892   1885   1889   1901     1  0.0000000  1.2552000  3
   1892   1895   1904   1913     1  0.0000000  0.6508444  3
   1898   1910   3633   3629     1  180.0000771  0.4184000  2
   1898   1910   3633   3629     1  0.0000000  1.6024720  3
   1901   1907   3610   3606     1  180.0000771  0.4184000  2
   1901   1907   3610   3606     1  0.0000000  1.6024720  3
   1907   3610   3606   3605     1  180.0000771  0.4184000  2
   1907   3610   3606   3605     1  0.0000000  1.6024720  3
   1907   3610   3606   3622     1  180.0000771  5.6484000  1
   1907   3610   3606   3622     1  180.0000771  3.5564000  2
   1907   3610   3606   3622     1  0.0000000  0.4184000  3
   1910   3633   3629   3645     1  180.0000771  5.6484000  1
   1910   3633   3629   3645     1  180.0000771  3.5564000  2
   1910   3633   3629   3645     1  0.0000000  0.4184000  3
   1910   3633   3629   3628     1  180.0000771  0.4184000  2
   1910   3633   3629   3628     1  0.0000000  1.6024720  3
   1914   1915   1927   1939     1  0.0000000  0.6508444  3
   1914   1918   1930   1936     1  0.0000000  0.6508444  3
   1914   1921   1924   1933     1  0.0000000  0.6508444  3
   1915   1914   1918   1930     1  180.0000771  2.0083200  2
   1915   1914   1918   1930     1  0.0000000  1.2552000  3
   1915   1914   1921   1924     1  180.0000771  2.0083200  2
   1915   1914   1921   1924     1  0.0000000  1.2552000  3
   1915   1927   1939   3679     1  0.0000000  0.6508444  3
   1918   1914   1915   1927     1  180.0000771  2.0083200  2
   1918   1914   1915   1927     1  0.0000000  1.2552000  3
   1918   1914   1921   1924     1  180.0000771  2.0083200  2
   1918   1914   1921   1924     1  0.0000000  1.2552000  3
   1918   1930   1936   3656     1  0.0000000  0.6508444  3
   1921   1914   1915   1927     1  180.0000771  2.0083200  2
   1921   1914   1915   1927     1  0.0000000  1.2552000  3
   1921   1914   1918   1930     1  180.0000771  2.0083200  2
   1921   1914   1918   1930     1  0.0000000  1.2552000  3
   1921   1924   1933   1942     1  0.0000000  0.6508444  3
   1927   1939   3679   3675     1  180.0000771  0.4184000  2
   1927   1939   3679   3675     1  0.0000000  1.6024720  3
   1930   1936   3656   3652     1  180.0000771  0.4184000  2
   1930   1936   3656   3652     1  0.0000000  1.6024720  3
   1936   3656   3652   3651     1  180.0000771  0.4184000  2
   1936   3656   3652   3651     1  0.0000000  1.6024720  3
   1936   3656   3652   3668     1  180.0000771  5.6484000  1
   1936   3656   3652   3668     1  180.0000771  3.5564000  2
   1936   3656   3652   3668     1  0.0000000  0.4184000  3
   1939   3679   3675   3691     1  180.0000771  5.6484000  1
   1939   3679   3675   3691     1  180.0000771  3.5564000  2
   1939   3679   3675   3691     1  0.0000000  0.4184000  3
   1939   3679   3675   3674     1  180.0000771  0.4184000  2
   1939   3679   3675   3674     1  0.0000000  1.6024720  3
   1943   1944   1956   1968     1  0.0000000  0.6508444  3
   1943   1947   1959   1965     1  0.0000000  0.6508444  3
   1943   1950   1953   1962     1  0.0000000  0.6508444  3
   1944   1943   1947   1959     1  180.0000771  2.0083200  2
   1944   1943   1947   1959     1  0.0000000  1.2552000  3
   1944   1943   1950   1953     1  180.0000771  2.0083200  2
   1944   1943   1950   1953     1  0.0000000  1.2552000  3
   1944   1956   1968   3725     1  0.0000000  0.6508444  3
   1947   1943   1944   1956     1  180.0000771  2.0083200  2
   1947   1943   1944   1956     1  0.0000000  1.2552000  3
   1947   1943   1950   1953     1  180.0000771  2.0083200  2
   1947   1943   1950   1953     1  0.0000000  1.2552000  3
   1947   1959   1965   3702     1  0.0000000  0.6508444  3
   1950   1943   1944   1956     1  180.0000771  2.0083200  2
   1950   1943   1944   1956     1  0.0000000  1.2552000  3
   1950   1943   1947   1959     1  180.0000771  2.0083200  2
   1950   1943   1947   1959     1  0.0000000  1.2552000  3
   1950   1953   1962   1971     1  0.0000000  0.6508444  3
   1956   1968   3725   3721     1  180.0000771  0.4184000  2
   1956   1968   3725   3721     1  0.0000000  1.6024720  3
   1959   1965   3702   3698     1  180.0000771  0.4184000  2
   1959   1965   3702   3698     1  0.0000000  1.6024720  3
   1965   3702   3698   3697     1  180.0000771  0.4184000  2
   1965   3702   3698   3697     1  0.0000000  1.6024720  3
   1965   3702   3698   3714     1  180.0000771  5.6484000  1
   1965   3702   3698   3714     1  180.0000771  3.5564000  2
   1965   3702   3698   3714     1  0.0000000  0.4184000  3
   1968   3725   3721   3737     1  180.0000771  5.6484000  1
   1968   3725   3721   3737     1  180.0000771  3.5564000  2
   1968   3725   3721   3737     1  0.0000000  0.4184000  3
   1968   3725   3721   3720     1  180.0000771  0.4184000  2
   1968   3725   3721   3720     1  0.0000000  1.6024720  3
   1972   1973   1985   1997     1  0.0000000  0.6508444  3
   1972   1976   1988   1994     1  0.0000000  0.6508444  3
   1972   1979   1982   1991     1  0.0000000  0.6508444  3
   1973   1972   1976   1988     1  180.0000771  2.0083200  2
   1973   1972   1976   1988     1  0.0000000  1.2552000  3
   1973   1972   1979   1982     1  180.0000771  2.0083200  2
   1973   1972   1979   1982     1  0.0000000  1.2552000  3
   1973   1985   1997   3771     1  0.0000000  0.6508444  3
   1976   1972   1973   1985     1  180.0000771  2.0083200  2
   1976   1972   1973   1985     1  0.0000000  1.2552000  3
   1976   1972   1979   1982     1  180.0000771  2.0083200  2
   1976   1972   1979   1982     1  0.0000000  1.2552000  3
   1976   1988   1994   3748     1  0.0000000  0.6508444  3
   1979   1972   1973   1985     1  180.0000771  2.0083200  2
   1979   1972   1973   1985     1  0.0000000  1.2552000  3
   1979   1972   1976   1988     1  180.0000771  2.0083200  2
   1979   1972   1976   1988     1  0.0000000  1.2552000  3
   1979   1982   1991   2000     1  0.0000000  0.6508444  3
   1985   1997   3771   3767     1  180.0000771  0.4184000  2
   1985   1997   3771   3767     1  0.0000000  1.6024720  3
   1988   1994   3748   3744     1  180.0000771  0.4184000  2
   1988   1994   3748   3744     1  0.0000000  1.6024720  3
   1994   3748   3744   3743     1  180.0000771  0.4184000  2
   1994   3748   3744   3743     1  0.0000000  1.6024720  3
   1994   3748   3744   3760     1  180.0000771  5.6484000  1
   1994   3748   3744   3760     1  180.0000771  3.5564000  2
   1994   3748   3744   3760     1  0.0000000  0.4184000  3
   1997   3771   3767   3783     1  180.0000771  5.6484000  1
   1997   3771   3767   3783     1  180.0000771  3.5564000  2
   1997   3771   3767   3783     1  0.0000000  0.4184000  3
   1997   3771   3767   3766     1  180.0000771  0.4184000  2
   1997   3771   3767   3766     1  0.0000000  1.6024720  3
   2001   2002   2014   2026     1  0.0000000  0.6508444  3
   2001   2005   2017   2023     1  0.0000000  0.6508444  3
   2001   2008   2011   2020     1  0.0000000  0.6508444  3
   2002   2001   2005   2017     1  180.0000771  2.0083200  2
   2002   2001   2005   2017     1  0.0000000  1.2552000  3
   2002   2001   2008   2011     1  180.0000771  2.0083200  2
   2002   2001   2008   2011     1  0.0000000  1.2552000  3
   2002   2014   2026   3817     1  0.0000000  0.6508444  3
   2005   2001   2002   2014     1  180.0000771  2.0083200  2
   2005   2001   2002   2014     1  0.0000000  1.2552000  3
   2005   2001   2008   2011     1  180.0000771  2.0083200  2
   2005   2001   2008   2011     1  0.0000000  1.2552000  3
   2005   2017   2023   3794     1  0.0000000  0.6508444  3
   2008   2001   2002   2014     1  180.0000771  2.0083200  2
   2008   2001   2002   2014     1  0.0000000  1.2552000  3
   2008   2001   2005   2017     1  180.0000771  2.0083200  2
   2008   2001   2005   2017     1  0.0000000  1.2552000  3
   2008   2011   2020   2029     1  0.0000000  0.6508444  3
   2014   2026   3817   3813     1  180.0000771  0.4184000  2
   2014   2026   3817   3813     1  0.0000000  1.6024720  3
   2017   2023   3794   3790     1  180.0000771  0.4184000  2
   2017   2023   3794   3790     1  0.0000000  1.6024720  3
   2023   3794   3790   3789     1  180.0000771  0.4184000  2
   2023   3794   3790   3789     1  0.0000000  1.6024720  3
   2023   3794   3790   3806     1  180.0000771  5.6484000  1
   2023   3794   3790   3806     1  180.0000771  3.5564000  2
   2023   3794   3790   3806     1  0.0000000  0.4184000  3
   2026   3817   3813   3829     1  180.0000771  5.6484000  1
   2026   3817   3813   3829     1  180.0000771  3.5564000  2
   2026   3817   3813   3829     1  0.0000000  0.4184000  3
   2026   3817   3813   3812     1  180.0000771  0.4184000  2
   2026   3817   3813   3812     1  0.0000000  1.6024720  3
   2030   2031   2043   2055     1  0.0000000  0.6508444  3
   2030   2034   2046   2052     1  0.0000000  0.6508444  3
   2030   2037   2040   2049     1  0.0000000  0.6508444  3
   2031   2030   2034   2046     1  180.0000771  2.0083200  2
   2031   2030   2034   2046     1  0.0000000  1.2552000  3
   2031   2030   2037   2040     1  180.0000771  2.0083200  2
   2031   2030   2037   2040     1  0.0000000  1.2552000  3
   2031   2043   2055   3863     1  0.0000000  0.6508444  3
   2034   2030   2031   2043     1  180.0000771  2.0083200  2
   2034   2030   2031   2043     1  0.0000000  1.2552000  3
   2034   2030   2037   2040     1  180.0000771  2.0083200  2
   2034   2030   2037   2040     1  0.0000000  1.2552000  3
   2034   2046   2052   3840     1  0.0000000  0.6508444  3
   2037   2030   2031   2043     1  180.0000771  2.0083200  2
   2037   2030   2031   2043     1  0.0000000  1.2552000  3
   2037   2030   2034   2046     1  180.0000771  2.0083200  2
   2037   2030   2034   2046     1  0.0000000  1.2552000  3
   2037   2040   2049   2058     1  0.0000000  0.6508444  3
   2043   2055   3863   3859     1  180.0000771  0.4184000  2
   2043   2055   3863   3859     1  0.0000000  1.6024720  3
   2046   2052   3840   3836     1  180.0000771  0.4184000  2
   2046   2052   3840   3836     1  0.0000000  1.6024720  3
   2052   3840   3836   3835     1  180.0000771  0.4184000  2
   2052   3840   3836   3835     1  0.0000000  1.6024720  3
   2052   3840   3836   3852     1  180.0000771  5.6484000  1
   2052   3840   3836   3852     1  180.0000771  3.5564000  2
   2052   3840   3836   3852     1  0.0000000  0.4184000  3
   2055   3863   3859   3875     1  180.0000771  5.6484000  1
   2055   3863   3859   3875     1  180.0000771  3.5564000  2
   2055   3863   3859   3875     1  0.0000000  0.4184000  3
   2055   3863   3859   3858     1  180.0000771  0.4184000  2
   2055   3863   3859   3858     1  0.0000000  1.6024720  3
   2059   2060   2072   2084     1  0.0000000  0.6508444  3
   2059   2063   2075   2081     1  0.0000000  0.6508444  3
   2059   2066   2069   2078     1  0.0000000  0.6508444  3
   2060   2059   2063   2075     1  180.0000771  2.0083200  2
   2060   2059   2063   2075     1  0.0000000  1.2552000  3
   2060   2059   2066   2069     1  180.0000771  2.0083200  2
   2060   2059   2066   2069     1  0.0000000  1.2552000  3
   2060   2072   2084   3909     1  0.0000000  0.6508444  3
   2063   2059   2060   2072     1  180.0000771  2.0083200  2
   2063   2059   2060   2072     1  0.0000000  1.2552000  3
   2063   2059   2066   2069     1  180.0000771  2.0083200  2
   2063   2059   2066   2069     1  0.0000000  1.2552000  3
   2063   2075   2081   3886     1  0.0000000  0.6508444  3
   2066   2059   2060   2072     1  180.0000771  2.0083200  2
   2066   2059   2060   2072     1  0.0000000  1.2552000  3
   2066   2059   2063   2075     1  180.0000771  2.0083200  2
   2066   2059   2063   2075     1  0.0000000  1.2552000  3
   2066   2069   2078   2087     1  0.0000000  0.6508444  3
   2072   2084   3909   3905     1  180.0000771  0.4184000  2
   2072   2084   3909   3905     1  0.0000000  1.6024720  3
   2075   2081   3886   3882     1  180.0000771  0.4184000  2
   2075   2081   3886   3882     1  0.0000000  1.6024720  3
   2081   3886   3882   3881     1  180.0000771  0.4184000  2
   2081   3886   3882   3881     1  0.0000000  1.6024720  3
   2081   3886   3882   3898     1  180.0000771  5.6484000  1
   2081   3886   3882   3898     1  180.0000771  3.5564000  2
   2081   3886   3882   3898     1  0.0000000  0.4184000  3
   2084   3909   3905   3921     1  180.0000771  5.6484000  1
   2084   3909   3905   3921     1  180.0000771  3.5564000  2
   2084   3909   3905   3921     1  0.0000000  0.4184000  3
   2084   3909   3905   3904     1  180.0000771  0.4184000  2
   2084   3909   3905   3904     1  0.0000000  1.6024720  3
   2088   2089   2101   2113     1  0.0000000  0.6508444  3
   2088   2092   2104   2110     1  0.0000000  0.6508444  3
   2088   2095   2098   2107     1  0.0000000  0.6508444  3
   2089   2088   2092   2104     1  180.0000771  2.0083200  2
   2089   2088   2092   2104     1  0.0000000  1.2552000  3
   2089   2088   2095   2098     1  180.0000771  2.0083200  2
   2089   2088   2095   2098     1  0.0000000  1.2552000  3
   2089   2101   2113   3955     1  0.0000000  0.6508444  3
   2092   2088   2089   2101     1  180.0000771  2.0083200  2
   2092   2088   2089   2101     1  0.0000000  1.2552000  3
   2092   2088   2095   2098     1  180.0000771  2.0083200  2
   2092   2088   2095   2098     1  0.0000000  1.2552000  3
   2092   2104   2110   3932     1  0.0000000  0.6508444  3
   2095   2088   2089   2101     1  180.0000771  2.0083200  2
   2095   2088   2089   2101     1  0.0000000  1.2552000  3
   2095   2088   2092   2104     1  180.0000771  2.0083200  2
   2095   2088   2092   2104     1  0.0000000  1.2552000  3
   2095   2098   2107   2116     1  0.0000000  0.6508444  3
   2101   2113   3955   3951     1  180.0000771  0.4184000  2
   2101   2113   3955   3951     1  0.0000000  1.6024720  3
   2104   2110   3932   3928     1  180.0000771  0.4184000  2
   2104   2110   3932   3928     1  0.0000000  1.6024720  3
   2110   3932   3928   3927     1  180.0000771  0.4184000  2
   2110   3932   3928   3927     1  0.0000000  1.6024720  3
   2110   3932   3928   3944     1  180.0000771  5.6484000  1
   2110   3932   3928   3944     1  180.0000771  3.5564000  2
   2110   3932   3928   3944     1  0.0000000  0.4184000  3
   2113   3955   3951   3967     1  180.0000771  5.6484000  1
   2113   3955   3951   3967     1  180.0000771  3.5564000  2
   2113   3955   3951   3967     1  0.0000000  0.4184000  3
   2113   3955   3951   3950     1  180.0000771  0.4184000  2
   2113   3955   3951   3950     1  0.0000000  1.6024720  3
   2117   2118   2130   2142     1  0.0000000  0.6508444  3
   2117   2121   2133   2139     1  0.0000000  0.6508444  3
   2117   2124   2127   2136     1  0.0000000  0.6508444  3
   2118   2117   2121   2133     1  180.0000771  2.0083200  2
   2118   2117   2121   2133     1  0.0000000  1.2552000  3
   2118   2117   2124   2127     1  180.0000771  2.0083200  2
   2118   2117   2124   2127     1  0.0000000  1.2552000  3
   2118   2130   2142   4001     1  0.0000000  0.6508444  3
   2121   2117   2118   2130     1  180.0000771  2.0083200  2
   2121   2117   2118   2130     1  0.0000000  1.2552000  3
   2121   2117   2124   2127     1  180.0000771  2.0083200  2
   2121   2117   2124   2127     1  0.0000000  1.2552000  3
   2121   2133   2139   3978     1  0.0000000  0.6508444  3
   2124   2117   2118   2130     1  180.0000771  2.0083200  2
   2124   2117   2118   2130     1  0.0000000  1.2552000  3
   2124   2117   2121   2133     1  180.0000771  2.0083200  2
   2124   2117   2121   2133     1  0.0000000  1.2552000  3
   2124   2127   2136   2145     1  0.0000000  0.6508444  3
   2130   2142   4001   3997     1  180.0000771  0.4184000  2
   2130   2142   4001   3997     1  0.0000000  1.6024720  3
   2133   2139   3978   3974     1  180.0000771  0.4184000  2
   2133   2139   3978   3974     1  0.0000000  1.6024720  3
   2139   3978   3974   3973     1  180.0000771  0.4184000  2
   2139   3978   3974   3973     1  0.0000000  1.6024720  3
   2139   3978   3974   3990     1  180.0000771  5.6484000  1
   2139   3978   3974   3990     1  180.0000771  3.5564000  2
   2139   3978   3974   3990     1  0.0000000  0.4184000  3
   2142   4001   3997   4013     1  180.0000771  5.6484000  1
   2142   4001   3997   4013     1  180.0000771  3.5564000  2
   2142   4001   3997   4013     1  0.0000000  0.4184000  3
   2142   4001   3997   3996     1  180.0000771  0.4184000  2
   2142   4001   3997   3996     1  0.0000000  1.6024720  3
   2146   2147   2159   2171     1  0.0000000  0.6508444  3
   2146   2150   2162   2168     1  0.0000000  0.6508444  3
   2146   2153   2156   2165     1  0.0000000  0.6508444  3
   2147   2146   2150   2162     1  180.0000771  2.0083200  2
   2147   2146   2150   2162     1  0.0000000  1.2552000  3
   2147   2146   2153   2156     1  180.0000771  2.0083200  2
   2147   2146   2153   2156     1  0.0000000  1.2552000  3
   2147   2159   2171   4047     1  0.0000000  0.6508444  3
   2150   2146   2147   2159     1  180.0000771  2.0083200  2
   2150   2146   2147   2159     1  0.0000000  1.2552000  3
   2150   2146   2153   2156     1  180.0000771  2.0083200  2
   2150   2146   2153   2156     1  0.0000000  1.2552000  3
   2150   2162   2168   4024     1  0.0000000  0.6508444  3
   2153   2146   2147   2159     1  180.0000771  2.0083200  2
   2153   2146   2147   2159     1  0.0000000  1.2552000  3
   2153   2146   2150   2162     1  180.0000771  2.0083200  2
   2153   2146   2150   2162     1  0.0000000  1.2552000  3
   2153   2156   2165   2174     1  0.0000000  0.6508444  3
   2159   2171   4047   4043     1  180.0000771  0.4184000  2
   2159   2171   4047   4043     1  0.0000000  1.6024720  3
   2162   2168   4024   4020     1  180.0000771  0.4184000  2
   2162   2168   4024   4020     1  0.0000000  1.6024720  3
   2168   4024   4020   4019     1  180.0000771  0.4184000  2
   2168   4024   4020   4019     1  0.0000000  1.6024720  3
   2168   4024   4020   4036     1  180.0000771  5.6484000  1
   2168   4024   4020   4036     1  180.0000771  3.5564000  2
   2168   4024   4020   4036     1  0.0000000  0.4184000  3
   2171   4047   4043   4059     1  180.0000771  5.6484000  1
   2171   4047   4043   4059     1  180.0000771  3.5564000  2
   2171   4047   4043   4059     1  0.0000000  0.4184000  3
   2171   4047   4043   4042     1  180.0000771  0.4184000  2
   2171   4047   4043   4042     1  0.0000000  1.6024720  3
   2175   2176   2188   2200     1  0.0000000  0.6508444  3
   2175   2179   2191   2197     1  0.0000000  0.6508444  3
   2175   2182   2185   2194     1  0.0000000  0.6508444  3
   2176   2175   2179   2191     1  180.0000771  2.0083200  2
   2176   2175   2179   2191     1  0.0000000  1.2552000  3
   2176   2175   2182   2185     1  180.0000771  2.0083200  2
   2176   2175   2182   2185     1  0.0000000  1.2552000  3
   2176   2188   2200   4093     1  0.0000000  0.6508444  3
   2179   2175   2176   2188     1  180.0000771  2.0083200  2
   2179   2175   2176   2188     1  0.0000000  1.2552000  3
   2179   2175   2182   2185     1  180.0000771  2.0083200  2
   2179   2175   2182   2185     1  0.0000000  1.2552000  3
   2179   2191   2197   4070     1  0.0000000  0.6508444  3
   2182   2175   2176   2188     1  180.0000771  2.0083200  2
   2182   2175   2176   2188     1  0.0000000  1.2552000  3
   2182   2175   2179   2191     1  180.0000771  2.0083200  2
   2182   2175   2179   2191     1  0.0000000  1.2552000  3
   2182   2185   2194   2203     1  0.0000000  0.6508444  3
   2188   2200   4093   4089     1  180.0000771  0.4184000  2
   2188   2200   4093   4089     1  0.0000000  1.6024720  3
   2191   2197   4070   4066     1  180.0000771  0.4184000  2
   2191   2197   4070   4066     1  0.0000000  1.6024720  3
   2197   4070   4066   4065     1  180.0000771  0.4184000  2
   2197   4070   4066   4065     1  0.0000000  1.6024720  3
   2197   4070   4066   4082     1  180.0000771  5.6484000  1
   2197   4070   4066   4082     1  180.0000771  3.5564000  2
   2197   4070   4066   4082     1  0.0000000  0.4184000  3
   2200   4093   4089   4105     1  180.0000771  5.6484000  1
   2200   4093   4089   4105     1  180.0000771  3.5564000  2
   2200   4093   4089   4105     1  0.0000000  0.4184000  3
   2200   4093   4089   4088     1  180.0000771  0.4184000  2
   2200   4093   4089   4088     1  0.0000000  1.6024720  3
   2204   2205   2217   2229     1  0.0000000  0.6508444  3
   2204   2208   2220   2226     1  0.0000000  0.6508444  3
   2204   2211   2214   2223     1  0.0000000  0.6508444  3
   2205   2204   2208   2220     1  180.0000771  2.0083200  2
   2205   2204   2208   2220     1  0.0000000  1.2552000  3
   2205   2204   2211   2214     1  180.0000771  2.0083200  2
   2205   2204   2211   2214     1  0.0000000  1.2552000  3
   2205   2217   2229   4139     1  0.0000000  0.6508444  3
   2208   2204   2205   2217     1  180.0000771  2.0083200  2
   2208   2204   2205   2217     1  0.0000000  1.2552000  3
   2208   2204   2211   2214     1  180.0000771  2.0083200  2
   2208   2204   2211   2214     1  0.0000000  1.2552000  3
   2208   2220   2226   4116     1  0.0000000  0.6508444  3
   2211   2204   2205   2217     1  180.0000771  2.0083200  2
   2211   2204   2205   2217     1  0.0000000  1.2552000  3
   2211   2204   2208   2220     1  180.0000771  2.0083200  2
   2211   2204   2208   2220     1  0.0000000  1.2552000  3
   2211   2214   2223   2232     1  0.0000000  0.6508444  3
   2217   2229   4139   4135     1  180.0000771  0.4184000  2
   2217   2229   4139   4135     1  0.0000000  1.6024720  3
   2220   2226   4116   4112     1  180.0000771  0.4184000  2
   2220   2226   4116   4112     1  0.0000000  1.6024720  3
   2226   4116   4112   4111     1  180.0000771  0.4184000  2
   2226   4116   4112   4111     1  0.0000000  1.6024720  3
   2226   4116   4112   4128     1  180.0000771  5.6484000  1
   2226   4116   4112   4128     1  180.0000771  3.5564000  2
   2226   4116   4112   4128     1  0.0000000  0.4184000  3
   2229   4139   4135   4151     1  180.0000771  5.6484000  1
   2229   4139   4135   4151     1  180.0000771  3.5564000  2
   2229   4139   4135   4151     1  0.0000000  0.4184000  3
   2229   4139   4135   4134     1  180.0000771  0.4184000  2
   2229   4139   4135   4134     1  0.0000000  1.6024720  3
   2233   2234   2246   2258     1  0.0000000  0.6508444  3
   2233   2237   2249   2255     1  0.0000000  0.6508444  3
   2233   2240   2243   2252     1  0.0000000  0.6508444  3
   2234   2233   2237   2249     1  180.0000771  2.0083200  2
   2234   2233   2237   2249     1  0.0000000  1.2552000  3
   2234   2233   2240   2243     1  180.0000771  2.0083200  2
   2234   2233   2240   2243     1  0.0000000  1.2552000  3
   2234   2246   2258   4185     1  0.0000000  0.6508444  3
   2237   2233   2234   2246     1  180.0000771  2.0083200  2
   2237   2233   2234   2246     1  0.0000000  1.2552000  3
   2237   2233   2240   2243     1  180.0000771  2.0083200  2
   2237   2233   2240   2243     1  0.0000000  1.2552000  3
   2237   2249   2255   4162     1  0.0000000  0.6508444  3
   2240   2233   2234   2246     1  180.0000771  2.0083200  2
   2240   2233   2234   2246     1  0.0000000  1.2552000  3
   2240   2233   2237   2249     1  180.0000771  2.0083200  2
   2240   2233   2237   2249     1  0.0000000  1.2552000  3
   2240   2243   2252   2261     1  0.0000000  0.6508444  3
   2246   2258   4185   4181     1  180.0000771  0.4184000  2
   2246   2258   4185   4181     1  0.0000000  1.6024720  3
   2249   2255   4162   4158     1  180.0000771  0.4184000  2
   2249   2255   4162   4158     1  0.0000000  1.6024720  3
   2255   4162   4158   4157     1  180.0000771  0.4184000  2
   2255   4162   4158   4157     1  0.0000000  1.6024720  3
   2255   4162   4158   4174     1  180.0000771  5.6484000  1
   2255   4162   4158   4174     1  180.0000771  3.5564000  2
   2255   4162   4158   4174     1  0.0000000  0.4184000  3
   2258   4185   4181   4197     1  180.0000771  5.6484000  1
   2258   4185   4181   4197     1  180.0000771  3.5564000  2
   2258   4185   4181   4197     1  0.0000000  0.4184000  3
   2258   4185   4181   4180     1  180.0000771  0.4184000  2
   2258   4185   4181   4180     1  0.0000000  1.6024720  3
   2262   2263   2275   2287     1  0.0000000  0.6508444  3
   2262   2266   2278   2284     1  0.0000000  0.6508444  3
   2262   2269   2272   2281     1  0.0000000  0.6508444  3
   2263   2262   2266   2278     1  180.0000771  2.0083200  2
   2263   2262   2266   2278     1  0.0000000  1.2552000  3
   2263   2262   2269   2272     1  180.0000771  2.0083200  2
   2263   2262   2269   2272     1  0.0000000  1.2552000  3
   2263   2275   2287   4231     1  0.0000000  0.6508444  3
   2266   2262   2263   2275     1  180.0000771  2.0083200  2
   2266   2262   2263   2275     1  0.0000000  1.2552000  3
   2266   2262   2269   2272     1  180.0000771  2.0083200  2
   2266   2262   2269   2272     1  0.0000000  1.2552000  3
   2266   2278   2284   4208     1  0.0000000  0.6508444  3
   2269   2262   2263   2275     1  180.0000771  2.0083200  2
   2269   2262   2263   2275     1  0.0000000  1.2552000  3
   2269   2262   2266   2278     1  180.0000771  2.0083200  2
   2269   2262   2266   2278     1  0.0000000  1.2552000  3
   2269   2272   2281   2290     1  0.0000000  0.6508444  3
   2275   2287   4231   4227     1  180.0000771  0.4184000  2
   2275   2287   4231   4227     1  0.0000000  1.6024720  3
   2278   2284   4208   4204     1  180.0000771  0.4184000  2
   2278   2284   4208   4204     1  0.0000000  1.6024720  3
   2284   4208   4204   4203     1  180.0000771  0.4184000  2
   2284   4208   4204   4203     1  0.0000000  1.6024720  3
   2284   4208   4204   4220     1  180.0000771  5.6484000  1
   2284   4208   4204   4220     1  180.0000771  3.5564000  2
   2284   4208   4204   4220     1  0.0000000  0.4184000  3
   2287   4231   4227   4243     1  180.0000771  5.6484000  1
   2287   4231   4227   4243     1  180.0000771  3.5564000  2
   2287   4231   4227   4243     1  0.0000000  0.4184000  3
   2287   4231   4227   4226     1  180.0000771  0.4184000  2
   2287   4231   4227   4226     1  0.0000000  1.6024720  3
   2291   2292   2304   2316     1  0.0000000  0.6508444  3
   2291   2295   2307   2313     1  0.0000000  0.6508444  3
   2291   2298   2301   2310     1  0.0000000  0.6508444  3
   2292   2291   2295   2307     1  180.0000771  2.0083200  2
   2292   2291   2295   2307     1  0.0000000  1.2552000  3
   2292   2291   2298   2301     1  180.0000771  2.0083200  2
   2292   2291   2298   2301     1  0.0000000  1.2552000  3
   2292   2304   2316   4277     1  0.0000000  0.6508444  3
   2295   2291   2292   2304     1  180.0000771  2.0083200  2
   2295   2291   2292   2304     1  0.0000000  1.2552000  3
   2295   2291   2298   2301     1  180.0000771  2.0083200  2
   2295   2291   2298   2301     1  0.0000000  1.2552000  3
   2295   2307   2313   4254     1  0.0000000  0.6508444  3
   2298   2291   2292   2304     1  180.0000771  2.0083200  2
   2298   2291   2292   2304     1  0.0000000  1.2552000  3
   2298   2291   2295   2307     1  180.0000771  2.0083200  2
   2298   2291   2295   2307     1  0.0000000  1.2552000  3
   2298   2301   2310   2319     1  0.0000000  0.6508444  3
   2304   2316   4277   4273     1  180.0000771  0.4184000  2
   2304   2316   4277   4273     1  0.0000000  1.6024720  3
   2307   2313   4254   4250     1  180.0000771  0.4184000  2
   2307   2313   4254   4250     1  0.0000000  1.6024720  3
   2313   4254   4250   4249     1  180.0000771  0.4184000  2
   2313   4254   4250   4249     1  0.0000000  1.6024720  3
   2313   4254   4250   4266     1  180.0000771  5.6484000  1
   2313   4254   4250   4266     1  180.0000771  3.5564000  2
   2313   4254   4250   4266     1  0.0000000  0.4184000  3
   2316   4277   4273   4289     1  180.0000771  5.6484000  1
   2316   4277   4273   4289     1  180.0000771  3.5564000  2
   2316   4277   4273   4289     1  0.0000000  0.4184000  3
   2316   4277   4273   4272     1  180.0000771  0.4184000  2
   2316   4277   4273   4272     1  0.0000000  1.6024720  3
   2320   2321   2333   2345     1  0.0000000  0.6508444  3
   2320   2324   2336   2342     1  0.0000000  0.6508444  3
   2320   2327   2330   2339     1  0.0000000  0.6508444  3
   2321   2320   2324   2336     1  180.0000771  2.0083200  2
   2321   2320   2324   2336     1  0.0000000  1.2552000  3
   2321   2320   2327   2330     1  180.0000771  2.0083200  2
   2321   2320   2327   2330     1  0.0000000  1.2552000  3
   2321   2333   2345   4323     1  0.0000000  0.6508444  3
   2324   2320   2321   2333     1  180.0000771  2.0083200  2
   2324   2320   2321   2333     1  0.0000000  1.2552000  3
   2324   2320   2327   2330     1  180.0000771  2.0083200  2
   2324   2320   2327   2330     1  0.0000000  1.2552000  3
   2324   2336   2342   4300     1  0.0000000  0.6508444  3
   2327   2320   2321   2333     1  180.0000771  2.0083200  2
   2327   2320   2321   2333     1  0.0000000  1.2552000  3
   2327   2320   2324   2336     1  180.0000771  2.0083200  2
   2327   2320   2324   2336     1  0.0000000  1.2552000  3
   2327   2330   2339   2348     1  0.0000000  0.6508444  3
   2333   2345   4323   4319     1  180.0000771  0.4184000  2
   2333   2345   4323   4319     1  0.0000000  1.6024720  3
   2336   2342   4300   4296     1  180.0000771  0.4184000  2
   2336   2342   4300   4296     1  0.0000000  1.6024720  3
   2342   4300   4296   4295     1  180.0000771  0.4184000  2
   2342   4300   4296   4295     1  0.0000000  1.6024720  3
   2342   4300   4296   4312     1  180.0000771  5.6484000  1
   2342   4300   4296   4312     1  180.0000771  3.5564000  2
   2342   4300   4296   4312     1  0.0000000  0.4184000  3
   2345   4323   4319   4335     1  180.0000771  5.6484000  1
   2345   4323   4319   4335     1  180.0000771  3.5564000  2
   2345   4323   4319   4335     1  0.0000000  0.4184000  3
   2345   4323   4319   4318     1  180.0000771  0.4184000  2
   2345   4323   4319   4318     1  0.0000000  1.6024720  3
   2349   2350   2362   2374     1  0.0000000  0.6508444  3
   2349   2353   2365   2371     1  0.0000000  0.6508444  3
   2349   2356   2359   2368     1  0.0000000  0.6508444  3
   2350   2349   2353   2365     1  180.0000771  2.0083200  2
   2350   2349   2353   2365     1  0.0000000  1.2552000  3
   2350   2349   2356   2359     1  180.0000771  2.0083200  2
   2350   2349   2356   2359     1  0.0000000  1.2552000  3
   2350   2362   2374   4369     1  0.0000000  0.6508444  3
   2353   2349   2350   2362     1  180.0000771  2.0083200  2
   2353   2349   2350   2362     1  0.0000000  1.2552000  3
   2353   2349   2356   2359     1  180.0000771  2.0083200  2
   2353   2349   2356   2359     1  0.0000000  1.2552000  3
   2353   2365   2371   4346     1  0.0000000  0.6508444  3
   2356   2349   2350   2362     1  180.0000771  2.0083200  2
   2356   2349   2350   2362     1  0.0000000  1.2552000  3
   2356   2349   2353   2365     1  180.0000771  2.0083200  2
   2356   2349   2353   2365     1  0.0000000  1.2552000  3
   2356   2359   2368   2377     1  0.0000000  0.6508444  3
   2362   2374   4369   4365     1  180.0000771  0.4184000  2
   2362   2374   4369   4365     1  0.0000000  1.6024720  3
   2365   2371   4346   4342     1  180.0000771  0.4184000  2
   2365   2371   4346   4342     1  0.0000000  1.6024720  3
   2371   4346   4342   4341     1  180.0000771  0.4184000  2
   2371   4346   4342   4341     1  0.0000000  1.6024720  3
   2371   4346   4342   4358     1  180.0000771  5.6484000  1
   2371   4346   4342   4358     1  180.0000771  3.5564000  2
   2371   4346   4342   4358     1  0.0000000  0.4184000  3
   2374   4369   4365   4381     1  180.0000771  5.6484000  1
   2374   4369   4365   4381     1  180.0000771  3.5564000  2
   2374   4369   4365   4381     1  0.0000000  0.4184000  3
   2374   4369   4365   4364     1  180.0000771  0.4184000  2
   2374   4369   4365   4364     1  0.0000000  1.6024720  3
   2378   2379   2391   2403     1  0.0000000  0.6508444  3
   2378   2382   2394   2400     1  0.0000000  0.6508444  3
   2378   2385   2388   2397     1  0.0000000  0.6508444  3
   2379   2378   2382   2394     1  180.0000771  2.0083200  2
   2379   2378   2382   2394     1  0.0000000  1.2552000  3
   2379   2378   2385   2388     1  180.0000771  2.0083200  2
   2379   2378   2385   2388     1  0.0000000  1.2552000  3
   2379   2391   2403   4415     1  0.0000000  0.6508444  3
   2382   2378   2379   2391     1  180.0000771  2.0083200  2
   2382   2378   2379   2391     1  0.0000000  1.2552000  3
   2382   2378   2385   2388     1  180.0000771  2.0083200  2
   2382   2378   2385   2388     1  0.0000000  1.2552000  3
   2382   2394   2400   4392     1  0.0000000  0.6508444  3
   2385   2378   2379   2391     1  180.0000771  2.0083200  2
   2385   2378   2379   2391     1  0.0000000  1.2552000  3
   2385   2378   2382   2394     1  180.0000771  2.0083200  2
   2385   2378   2382   2394     1  0.0000000  1.2552000  3
   2385   2388   2397   2406     1  0.0000000  0.6508444  3
   2391   2403   4415   4411     1  180.0000771  0.4184000  2
   2391   2403   4415   4411     1  0.0000000  1.6024720  3
   2394   2400   4392   4388     1  180.0000771  0.4184000  2
   2394   2400   4392   4388     1  0.0000000  1.6024720  3
   2400   4392   4388   4387     1  180.0000771  0.4184000  2
   2400   4392   4388   4387     1  0.0000000  1.6024720  3
   2400   4392   4388   4404     1  180.0000771  5.6484000  1
   2400   4392   4388   4404     1  180.0000771  3.5564000  2
   2400   4392   4388   4404     1  0.0000000  0.4184000  3
   2403   4415   4411   4427     1  180.0000771  5.6484000  1
   2403   4415   4411   4427     1  180.0000771  3.5564000  2
   2403   4415   4411   4427     1  0.0000000  0.4184000  3
   2403   4415   4411   4410     1  180.0000771  0.4184000  2
   2403   4415   4411   4410     1  0.0000000  1.6024720  3
   2407   2408   2420   2432     1  0.0000000  0.6508444  3
   2407   2411   2423   2429     1  0.0000000  0.6508444  3
   2407   2414   2417   2426     1  0.0000000  0.6508444  3
   2408   2407   2411   2423     1  180.0000771  2.0083200  2
   2408   2407   2411   2423     1  0.0000000  1.2552000  3
   2408   2407   2414   2417     1  180.0000771  2.0083200  2
   2408   2407   2414   2417     1  0.0000000  1.2552000  3
   2408   2420   2432   4461     1  0.0000000  0.6508444  3
   2411   2407   2408   2420     1  180.0000771  2.0083200  2
   2411   2407   2408   2420     1  0.0000000  1.2552000  3
   2411   2407   2414   2417     1  180.0000771  2.0083200  2
   2411   2407   2414   2417     1  0.0000000  1.2552000  3
   2411   2423   2429   4438     1  0.0000000  0.6508444  3
   2414   2407   2408   2420     1  180.0000771  2.0083200  2
   2414   2407   2408   2420     1  0.0000000  1.2552000  3
   2414   2407   2411   2423     1  180.0000771  2.0083200  2
   2414   2407   2411   2423     1  0.0000000  1.2552000  3
   2414   2417   2426   2435     1  0.0000000  0.6508444  3
   2420   2432   4461   4457     1  180.0000771  0.4184000  2
   2420   2432   4461   4457     1  0.0000000  1.6024720  3
   2423   2429   4438   4434     1  180.0000771  0.4184000  2
   2423   2429   4438   4434     1  0.0000000  1.6024720  3
   2429   4438   4434   4433     1  180.0000771  0.4184000  2
   2429   4438   4434   4433     1  0.0000000  1.6024720  3
   2429   4438   4434   4450     1  180.0000771  5.6484000  1
   2429   4438   4434   4450     1  180.0000771  3.5564000  2
   2429   4438   4434   4450     1  0.0000000  0.4184000  3
   2432   4461   4457   4473     1  180.0000771  5.6484000  1
   2432   4461   4457   4473     1  180.0000771  3.5564000  2
   2432   4461   4457   4473     1  0.0000000  0.4184000  3
   2432   4461   4457   4456     1  180.0000771  0.4184000  2
   2432   4461   4457   4456     1  0.0000000  1.6024720  3
   2436   2437   2449   2461     1  0.0000000  0.6508444  3
   2436   2440   2452   2458     1  0.0000000  0.6508444  3
   2436   2443   2446   2455     1  0.0000000  0.6508444  3
   2437   2436   2440   2452     1  180.0000771  2.0083200  2
   2437   2436   2440   2452     1  0.0000000  1.2552000  3
   2437   2436   2443   2446     1  180.0000771  2.0083200  2
   2437   2436   2443   2446     1  0.0000000  1.2552000  3
   2437   2449   2461   4507     1  0.0000000  0.6508444  3
   2440   2436   2437   2449     1  180.0000771  2.0083200  2
   2440   2436   2437   2449     1  0.0000000  1.2552000  3
   2440   2436   2443   2446     1  180.0000771  2.0083200  2
   2440   2436   2443   2446     1  0.0000000  1.2552000  3
   2440   2452   2458   4484     1  0.0000000  0.6508444  3
   2443   2436   2437   2449     1  180.0000771  2.0083200  2
   2443   2436   2437   2449     1  0.0000000  1.2552000  3
   2443   2436   2440   2452     1  180.0000771  2.0083200  2
   2443   2436   2440   2452     1  0.0000000  1.2552000  3
   2443   2446   2455   2464     1  0.0000000  0.6508444  3
   2449   2461   4507   4503     1  180.0000771  0.4184000  2
   2449   2461   4507   4503     1  0.0000000  1.6024720  3
   2452   2458   4484   4480     1  180.0000771  0.4184000  2
   2452   2458   4484   4480     1  0.0000000  1.6024720  3
   2458   4484   4480   4479     1  180.0000771  0.4184000  2
   2458   4484   4480   4479     1  0.0000000  1.6024720  3
   2458   4484   4480   4496     1  180.0000771  5.6484000  1
   2458   4484   4480   4496     1  180.0000771  3.5564000  2
   2458   4484   4480   4496     1  0.0000000  0.4184000  3
   2461   4507   4503   4519     1  180.0000771  5.6484000  1
   2461   4507   4503   4519     1  180.0000771  3.5564000  2
   2461   4507   4503   4519     1  0.0000000  0.4184000  3
   2461   4507   4503   4502     1  180.0000771  0.4184000  2
   2461   4507   4503   4502     1  0.0000000  1.6024720  3
   2465   2466   2478   2490     1  0.0000000  0.6508444  3
   2465   2469   2481   2487     1  0.0000000  0.6508444  3
   2465   2472   2475   2484     1  0.0000000  0.6508444  3
   2466   2465   2469   2481     1  180.0000771  2.0083200  2
   2466   2465   2469   2481     1  0.0000000  1.2552000  3
   2466   2465   2472   2475     1  180.0000771  2.0083200  2
   2466   2465   2472   2475     1  0.0000000  1.2552000  3
   2466   2478   2490   4553     1  0.0000000  0.6508444  3
   2469   2465   2466   2478     1  180.0000771  2.0083200  2
   2469   2465   2466   2478     1  0.0000000  1.2552000  3
   2469   2465   2472   2475     1  180.0000771  2.0083200  2
   2469   2465   2472   2475     1  0.0000000  1.2552000  3
   2469   2481   2487   4530     1  0.0000000  0.6508444  3
   2472   2465   2466   2478     1  180.0000771  2.0083200  2
   2472   2465   2466   2478     1  0.0000000  1.2552000  3
   2472   2465   2469   2481     1  180.0000771  2.0083200  2
   2472   2465   2469   2481     1  0.0000000  1.2552000  3
   2472   2475   2484   2493     1  0.0000000  0.6508444  3
   2478   2490   4553   4549     1  180.0000771  0.4184000  2
   2478   2490   4553   4549     1  0.0000000  1.6024720  3
   2481   2487   4530   4526     1  180.0000771  0.4184000  2
   2481   2487   4530   4526     1  0.0000000  1.6024720  3
   2487   4530   4526   4525     1  180.0000771  0.4184000  2
   2487   4530   4526   4525     1  0.0000000  1.6024720  3
   2487   4530   4526   4542     1  180.0000771  5.6484000  1
   2487   4530   4526   4542     1  180.0000771  3.5564000  2
   2487   4530   4526   4542     1  0.0000000  0.4184000  3
   2490   4553   4549   4565     1  180.0000771  5.6484000  1
   2490   4553   4549   4565     1  180.0000771  3.5564000  2
   2490   4553   4549   4565     1  0.0000000  0.4184000  3
   2490   4553   4549   4548     1  180.0000771  0.4184000  2
   2490   4553   4549   4548     1  0.0000000  1.6024720  3
   2494   2495   2507   2519     1  0.0000000  0.6508444  3
   2494   2498   2510   2516     1  0.0000000  0.6508444  3
   2494   2501   2504   2513     1  0.0000000  0.6508444  3
   2495   2494   2498   2510     1  180.0000771  2.0083200  2
   2495   2494   2498   2510     1  0.0000000  1.2552000  3
   2495   2494   2501   2504     1  180.0000771  2.0083200  2
   2495   2494   2501   2504     1  0.0000000  1.2552000  3
   2495   2507   2519   4599     1  0.0000000  0.6508444  3
   2498   2494   2495   2507     1  180.0000771  2.0083200  2
   2498   2494   2495   2507     1  0.0000000  1.2552000  3
   2498   2494   2501   2504     1  180.0000771  2.0083200  2
   2498   2494   2501   2504     1  0.0000000  1.2552000  3
   2498   2510   2516   4576     1  0.0000000  0.6508444  3
   2501   2494   2495   2507     1  180.0000771  2.0083200  2
   2501   2494   2495   2507     1  0.0000000  1.2552000  3
   2501   2494   2498   2510     1  180.0000771  2.0083200  2
   2501   2494   2498   2510     1  0.0000000  1.2552000  3
   2501   2504   2513   2522     1  0.0000000  0.6508444  3
   2507   2519   4599   4595     1  180.0000771  0.4184000  2
   2507   2519   4599   4595     1  0.0000000  1.6024720  3
   2510   2516   4576   4572     1  180.0000771  0.4184000  2
   2510   2516   4576   4572     1  0.0000000  1.6024720  3
   2516   4576   4572   4571     1  180.0000771  0.4184000  2
   2516   4576   4572   4571     1  0.0000000  1.6024720  3
   2516   4576   4572   4588     1  180.0000771  5.6484000  1
   2516   4576   4572   4588     1  180.0000771  3.5564000  2
   2516   4576   4572   4588     1  0.0000000  0.4184000  3
   2519   4599   4595   4611     1  180.0000771  5.6484000  1
   2519   4599   4595   4611     1  180.0000771  3.5564000  2
   2519   4599   4595   4611     1  0.0000000  0.4184000  3
   2519   4599   4595   4594     1  180.0000771  0.4184000  2
   2519   4599   4595   4594     1  0.0000000  1.6024720  3
   2523   2524   2536   2548     1  0.0000000  0.6508444  3
   2523   2527   2539   2545     1  0.0000000  0.6508444  3
   2523   2530   2533   2542     1  0.0000000  0.6508444  3
   2524   2523   2527   2539     1  180.0000771  2.0083200  2
   2524   2523   2527   2539     1  0.0000000  1.2552000  3
   2524   2523   2530   2533     1  180.0000771  2.0083200  2
   2524   2523   2530   2533     1  0.0000000  1.2552000  3
   2524   2536   2548   4645     1  0.0000000  0.6508444  3
   2527   2523   2524   2536     1  180.0000771  2.0083200  2
   2527   2523   2524   2536     1  0.0000000  1.2552000  3
   2527   2523   2530   2533     1  180.0000771  2.0083200  2
   2527   2523   2530   2533     1  0.0000000  1.2552000  3
   2527   2539   2545   4622     1  0.0000000  0.6508444  3
   2530   2523   2524   2536     1  180.0000771  2.0083200  2
   2530   2523   2524   2536     1  0.0000000  1.2552000  3
   2530   2523   2527   2539     1  180.0000771  2.0083200  2
   2530   2523   2527   2539     1  0.0000000  1.2552000  3
   2530   2533   2542   2551     1  0.0000000  0.6508444  3
   2536   2548   4645   4641     1  180.0000771  0.4184000  2
   2536   2548   4645   4641     1  0.0000000  1.6024720  3
   2539   2545   4622   4618     1  180.0000771  0.4184000  2
   2539   2545   4622   4618     1  0.0000000  1.6024720  3
   2545   4622   4618   4617     1  180.0000771  0.4184000  2
   2545   4622   4618   4617     1  0.0000000  1.6024720  3
   2545   4622   4618   4634     1  180.0000771  5.6484000  1
   2545   4622   4618   4634     1  180.0000771  3.5564000  2
   2545   4622   4618   4634     1  0.0000000  0.4184000  3
   2548   4645   4641   4657     1  180.0000771  5.6484000  1
   2548   4645   4641   4657     1  180.0000771  3.5564000  2
   2548   4645   4641   4657     1  0.0000000  0.4184000  3
   2548   4645   4641   4640     1  180.0000771  0.4184000  2
   2548   4645   4641   4640     1  0.0000000  1.6024720  3
   2552   2553   2565   2577     1  0.0000000  0.6508444  3
   2552   2556   2568   2574     1  0.0000000  0.6508444  3
   2552   2559   2562   2571     1  0.0000000  0.6508444  3
   2553   2552   2556   2568     1  180.0000771  2.0083200  2
   2553   2552   2556   2568     1  0.0000000  1.2552000  3
   2553   2552   2559   2562     1  180.0000771  2.0083200  2
   2553   2552   2559   2562     1  0.0000000  1.2552000  3
   2553   2565   2577   4691     1  0.0000000  0.6508444  3
   2556   2552   2553   2565     1  180.0000771  2.0083200  2
   2556   2552   2553   2565     1  0.0000000  1.2552000  3
   2556   2552   2559   2562     1  180.0000771  2.0083200  2
   2556   2552   2559   2562     1  0.0000000  1.2552000  3
   2556   2568   2574   4668     1  0.0000000  0.6508444  3
   2559   2552   2553   2565     1  180.0000771  2.0083200  2
   2559   2552   2553   2565     1  0.0000000  1.2552000  3
   2559   2552   2556   2568     1  180.0000771  2.0083200  2
   2559   2552   2556   2568     1  0.0000000  1.2552000  3
   2559   2562   2571   2580     1  0.0000000  0.6508444  3
   2565   2577   4691   4687     1  180.0000771  0.4184000  2
   2565   2577   4691   4687     1  0.0000000  1.6024720  3
   2568   2574   4668   4664     1  180.0000771  0.4184000  2
   2568   2574   4668   4664     1  0.0000000  1.6024720  3
   2574   4668   4664   4663     1  180.0000771  0.4184000  2
   2574   4668   4664   4663     1  0.0000000  1.6024720  3
   2574   4668   4664   4680     1  180.0000771  5.6484000  1
   2574   4668   4664   4680     1  180.0000771  3.5564000  2
   2574   4668   4664   4680     1  0.0000000  0.4184000  3
   2577   4691   4687   4703     1  180.0000771  5.6484000  1
   2577   4691   4687   4703     1  180.0000771  3.5564000  2
   2577   4691   4687   4703     1  0.0000000  0.4184000  3
   2577   4691   4687   4686     1  180.0000771  0.4184000  2
   2577   4691   4687   4686     1  0.0000000  1.6024720  3
   2581   2582   2594   2606     1  0.0000000  0.6508444  3
   2581   2585   2597   2603     1  0.0000000  0.6508444  3
   2581   2588   2591   2600     1  0.0000000  0.6508444  3
   2582   2581   2585   2597     1  180.0000771  2.0083200  2
   2582   2581   2585   2597     1  0.0000000  1.2552000  3
   2582   2581   2588   2591     1  180.0000771  2.0083200  2
   2582   2581   2588   2591     1  0.0000000  1.2552000  3
   2582   2594   2606   4737     1  0.0000000  0.6508444  3
   2585   2581   2582   2594     1  180.0000771  2.0083200  2
   2585   2581   2582   2594     1  0.0000000  1.2552000  3
   2585   2581   2588   2591     1  180.0000771  2.0083200  2
   2585   2581   2588   2591     1  0.0000000  1.2552000  3
   2585   2597   2603   4714     1  0.0000000  0.6508444  3
   2588   2581   2582   2594     1  180.0000771  2.0083200  2
   2588   2581   2582   2594     1  0.0000000  1.2552000  3
   2588   2581   2585   2597     1  180.0000771  2.0083200  2
   2588   2581   2585   2597     1  0.0000000  1.2552000  3
   2588   2591   2600   2609     1  0.0000000  0.6508444  3
   2594   2606   4737   4733     1  180.0000771  0.4184000  2
   2594   2606   4737   4733     1  0.0000000  1.6024720  3
   2597   2603   4714   4710     1  180.0000771  0.4184000  2
   2597   2603   4714   4710     1  0.0000000  1.6024720  3
   2603   4714   4710   4709     1  180.0000771  0.4184000  2
   2603   4714   4710   4709     1  0.0000000  1.6024720  3
   2603   4714   4710   4726     1  180.0000771  5.6484000  1
   2603   4714   4710   4726     1  180.0000771  3.5564000  2
   2603   4714   4710   4726     1  0.0000000  0.4184000  3
   2606   4737   4733   4749     1  180.0000771  5.6484000  1
   2606   4737   4733   4749     1  180.0000771  3.5564000  2
   2606   4737   4733   4749     1  0.0000000  0.4184000  3
   2606   4737   4733   4732     1  180.0000771  0.4184000  2
   2606   4737   4733   4732     1  0.0000000  1.6024720  3
   2610   2611   2623   2635     1  0.0000000  0.6508444  3
   2610   2614   2626   2632     1  0.0000000  0.6508444  3
   2610   2617   2620   2629     1  0.0000000  0.6508444  3
   2611   2610   2614   2626     1  180.0000771  2.0083200  2
   2611   2610   2614   2626     1  0.0000000  1.2552000  3
   2611   2610   2617   2620     1  180.0000771  2.0083200  2
   2611   2610   2617   2620     1  0.0000000  1.2552000  3
   2611   2623   2635   4783     1  0.0000000  0.6508444  3
   2614   2610   2611   2623     1  180.0000771  2.0083200  2
   2614   2610   2611   2623     1  0.0000000  1.2552000  3
   2614   2610   2617   2620     1  180.0000771  2.0083200  2
   2614   2610   2617   2620     1  0.0000000  1.2552000  3
   2614   2626   2632   4760     1  0.0000000  0.6508444  3
   2617   2610   2611   2623     1  180.0000771  2.0083200  2
   2617   2610   2611   2623     1  0.0000000  1.2552000  3
   2617   2610   2614   2626     1  180.0000771  2.0083200  2
   2617   2610   2614   2626     1  0.0000000  1.2552000  3
   2617   2620   2629   2638     1  0.0000000  0.6508444  3
   2623   2635   4783   4779     1  180.0000771  0.4184000  2
   2623   2635   4783   4779     1  0.0000000  1.6024720  3
   2626   2632   4760   4756     1  180.0000771  0.4184000  2
   2626   2632   4760   4756     1  0.0000000  1.6024720  3
   2632   4760   4756   4755     1  180.0000771  0.4184000  2
   2632   4760   4756   4755     1  0.0000000  1.6024720  3
   2632   4760   4756   4772     1  180.0000771  5.6484000  1
   2632   4760   4756   4772     1  180.0000771  3.5564000  2
   2632   4760   4756   4772     1  0.0000000  0.4184000  3
   2635   4783   4779   4795     1  180.0000771  5.6484000  1
   2635   4783   4779   4795     1  180.0000771  3.5564000  2
   2635   4783   4779   4795     1  0.0000000  0.4184000  3
   2635   4783   4779   4778     1  180.0000771  0.4184000  2
   2635   4783   4779   4778     1  0.0000000  1.6024720  3
   2639   2640   2652   2664     1  0.0000000  0.6508444  3
   2639   2643   2655   2661     1  0.0000000  0.6508444  3
   2639   2646   2649   2658     1  0.0000000  0.6508444  3
   2640   2639   2643   2655     1  180.0000771  2.0083200  2
   2640   2639   2643   2655     1  0.0000000  1.2552000  3
   2640   2639   2646   2649     1  180.0000771  2.0083200  2
   2640   2639   2646   2649     1  0.0000000  1.2552000  3
   2640   2652   2664   4829     1  0.0000000  0.6508444  3
   2643   2639   2640   2652     1  180.0000771  2.0083200  2
   2643   2639   2640   2652     1  0.0000000  1.2552000  3
   2643   2639   2646   2649     1  180.0000771  2.0083200  2
   2643   2639   2646   2649     1  0.0000000  1.2552000  3
   2643   2655   2661   4806     1  0.0000000  0.6508444  3
   2646   2639   2640   2652     1  180.0000771  2.0083200  2
   2646   2639   2640   2652     1  0.0000000  1.2552000  3
   2646   2639   2643   2655     1  180.0000771  2.0083200  2
   2646   2639   2643   2655     1  0.0000000  1.2552000  3
   2646   2649   2658   2667     1  0.0000000  0.6508444  3
   2652   2664   4829   4825     1  180.0000771  0.4184000  2
   2652   2664   4829   4825     1  0.0000000  1.6024720  3
   2655   2661   4806   4802     1  180.0000771  0.4184000  2
   2655   2661   4806   4802     1  0.0000000  1.6024720  3
   2661   4806   4802   4801     1  180.0000771  0.4184000  2
   2661   4806   4802   4801     1  0.0000000  1.6024720  3
   2661   4806   4802   4818     1  180.0000771  5.6484000  1
   2661   4806   4802   4818     1  180.0000771  3.5564000  2
   2661   4806   4802   4818     1  0.0000000  0.4184000  3
   2664   4829   4825   4841     1  180.0000771  5.6484000  1
   2664   4829   4825   4841     1  180.0000771  3.5564000  2
   2664   4829   4825   4841     1  0.0000000  0.4184000  3
   2664   4829   4825   4824     1  180.0000771  0.4184000  2
   2664   4829   4825   4824     1  0.0000000  1.6024720  3
   2668   2669   2681   2693     1  0.0000000  0.6508444  3
   2668   2672   2684   2690     1  0.0000000  0.6508444  3
   2668   2675   2678   2687     1  0.0000000  0.6508444  3
   2669   2668   2672   2684     1  180.0000771  2.0083200  2
   2669   2668   2672   2684     1  0.0000000  1.2552000  3
   2669   2668   2675   2678     1  180.0000771  2.0083200  2
   2669   2668   2675   2678     1  0.0000000  1.2552000  3
   2669   2681   2693   4875     1  0.0000000  0.6508444  3
   2672   2668   2669   2681     1  180.0000771  2.0083200  2
   2672   2668   2669   2681     1  0.0000000  1.2552000  3
   2672   2668   2675   2678     1  180.0000771  2.0083200  2
   2672   2668   2675   2678     1  0.0000000  1.2552000  3
   2672   2684   2690   4852     1  0.0000000  0.6508444  3
   2675   2668   2669   2681     1  180.0000771  2.0083200  2
   2675   2668   2669   2681     1  0.0000000  1.2552000  3
   2675   2668   2672   2684     1  180.0000771  2.0083200  2
   2675   2668   2672   2684     1  0.0000000  1.2552000  3
   2675   2678   2687   2696     1  0.0000000  0.6508444  3
   2681   2693   4875   4871     1  180.0000771  0.4184000  2
   2681   2693   4875   4871     1  0.0000000  1.6024720  3
   2684   2690   4852   4848     1  180.0000771  0.4184000  2
   2684   2690   4852   4848     1  0.0000000  1.6024720  3
   2690   4852   4848   4847     1  180.0000771  0.4184000  2
   2690   4852   4848   4847     1  0.0000000  1.6024720  3
   2690   4852   4848   4864     1  180.0000771  5.6484000  1
   2690   4852   4848   4864     1  180.0000771  3.5564000  2
   2690   4852   4848   4864     1  0.0000000  0.4184000  3
   2693   4875   4871   4887     1  180.0000771  5.6484000  1
   2693   4875   4871   4887     1  180.0000771  3.5564000  2
   2693   4875   4871   4887     1  0.0000000  0.4184000  3
   2693   4875   4871   4870     1  180.0000771  0.4184000  2
   2693   4875   4871   4870     1  0.0000000  1.6024720  3
   2697   2698   2710   2722     1  0.0000000  0.6508444  3
   2697   2701   2713   2719     1  0.0000000  0.6508444  3
   2697   2704   2707   2716     1  0.0000000  0.6508444  3
   2698   2697   2701   2713     1  180.0000771  2.0083200  2
   2698   2697   2701   2713     1  0.0000000  1.2552000  3
   2698   2697   2704   2707     1  180.0000771  2.0083200  2
   2698   2697   2704   2707     1  0.0000000  1.2552000  3
   2698   2710   2722   4921     1  0.0000000  0.6508444  3
   2701   2697   2698   2710     1  180.0000771  2.0083200  2
   2701   2697   2698   2710     1  0.0000000  1.2552000  3
   2701   2697   2704   2707     1  180.0000771  2.0083200  2
   2701   2697   2704   2707     1  0.0000000  1.2552000  3
   2701   2713   2719   4898     1  0.0000000  0.6508444  3
   2704   2697   2698   2710     1  180.0000771  2.0083200  2
   2704   2697   2698   2710     1  0.0000000  1.2552000  3
   2704   2697   2701   2713     1  180.0000771  2.0083200  2
   2704   2697   2701   2713     1  0.0000000  1.2552000  3
   2704   2707   2716   2725     1  0.0000000  0.6508444  3
   2710   2722   4921   4917     1  180.0000771  0.4184000  2
   2710   2722   4921   4917     1  0.0000000  1.6024720  3
   2713   2719   4898   4894     1  180.0000771  0.4184000  2
   2713   2719   4898   4894     1  0.0000000  1.6024720  3
   2719   4898   4894   4893     1  180.0000771  0.4184000  2
   2719   4898   4894   4893     1  0.0000000  1.6024720  3
   2719   4898   4894   4910     1  180.0000771  5.6484000  1
   2719   4898   4894   4910     1  180.0000771  3.5564000  2
   2719   4898   4894   4910     1  0.0000000  0.4184000  3
   2722   4921   4917   4933     1  180.0000771  5.6484000  1
   2722   4921   4917   4933     1  180.0000771  3.5564000  2
   2722   4921   4917   4933     1  0.0000000  0.4184000  3
   2722   4921   4917   4916     1  180.0000771  0.4184000  2
   2722   4921   4917   4916     1  0.0000000  1.6024720  3
   2726   2727   2730   2731     1  180.0000771  0.8368000  1
   2726   2727   2730   2731     1  180.0000771  1.0460000  2
   2726   2727   2730   2731     1  0.0000000  0.7531200  3
   2726   2727   2730   2738     1  0.0000000  0.6508444  3
   2726   2748   2732   2731     1  180.0000771  0.4184000  2
   2726   2748   2732   2731     1  0.0000000  1.6024720  3
   2726   2748   2732   2736     1  180.0000771  5.6484000  1
   2726   2748   2732   2736     1  180.0000771  3.5564000  2
   2726   2748   2732   2736     1  0.0000000  0.4184000  3
   2727   2726   2740   2746     1  0.0000000  0.6508444  3
   2727   2726   2748   2732     1  180.0000771  0.4184000  2
   2727   2726   2748   2732     1  0.0000000  1.6024720  3
   2727   2730   2731   2732     1  180.0000771  0.8368000  1
   2727   2730   2731   2732     1  180.0000771  1.0460000  2
   2727   2730   2731   2732     1  0.0000000  0.7531200  3
   2727   2730   2731   2737     1  0.0000000  0.6508444  3
   2730   2727   2726   2740     1  180.0000771  0.8368000  1
   2730   2727   2726   2740     1  180.0000771  1.0460000  2
   2730   2727   2726   2740     1  0.0000000  0.7531200  3
   2730   2727   2726   2748     1  0.0000000  0.6508444  3
   2730   2731   2732   2736     1  0.0000000  0.6508444  3
   2730   2731   2732   2748     1  0.0000000  0.6508444  3
   2731   2730   2727   2739     1  0.0000000  0.6508444  3
   2732   2731   2730   2738     1  0.0000000  0.6508444  3
   2732   2748   2726   2740     1  180.0000771  0.4184000  2
   2732   2748   2726   2740     1  0.0000000  1.6024720  3
   2736   2732   2731   2737     1  0.0000000  4.9162000  2
   2736   2732   2731   2737     1  0.0000000  0.6024960  3
   2737   2731   2730   2738     1  0.0000000  4.9162000  2
   2737   2731   2730   2738     1  0.0000000  0.6024960  3
   2737   2731   2732   2748     1  0.0000000  4.9162000  2
   2737   2731   2732   2748     1  0.0000000  0.6024960  3
   2738   2730   2727   2739     1  0.0000000  4.9162000  2
   2738   2730   2727   2739     1  0.0000000  0.6024960  3
   2739   2727   2726   2740     1  0.0000000  0.6508444  3
   2739   2727   2726   2748     1  0.0000000  4.9162000  2
   2739   2727   2726   2748     1  0.0000000  0.6024960  3
   2746   2740   2726   2748     1  0.0000000  4.9162000  2
   2746   2740   2726   2748     1  0.0000000  0.6024960  3
   2749   2750   2753   2754     1  180.0000771  0.8368000  1
   2749   2750   2753   2754     1  180.0000771  1.0460000  2
   2749   2750   2753   2754     1  0.0000000  0.7531200  3
   2749   2750   2753   2761     1  0.0000000  0.6508444  3
   2749   2771   2755   2759     1  180.0000771  5.6484000  1
   2749   2771   2755   2759     1  180.0000771  3.5564000  2
   2749   2771   2755   2759     1  0.0000000  0.4184000  3
   2749   2771   2755   2754     1  180.0000771  0.4184000  2
   2749   2771   2755   2754     1  0.0000000  1.6024720  3
   2750   2753   2754   2755     1  180.0000771  0.8368000  1
   2750   2753   2754   2755     1  180.0000771  1.0460000  2
   2750   2753   2754   2755     1  0.0000000  0.7531200  3
   2750   2753   2754   2760     1  0.0000000  0.6508444  3
   2750   2749   2763   2769     1  0.0000000  0.6508444  3
   2750   2749   2771   2755     1  180.0000771  0.4184000  2
   2750   2749   2771   2755     1  0.0000000  1.6024720  3
   2753   2754   2755   2759     1  0.0000000  0.6508444  3
   2753   2754   2755   2771     1  0.0000000  0.6508444  3
   2753   2750   2749   2763     1  180.0000771  0.8368000  1
   2753   2750   2749   2763     1  180.0000771  1.0460000  2
   2753   2750   2749   2763     1  0.0000000  0.7531200  3
   2753   2750   2749   2771     1  0.0000000  0.6508444  3
   2754   2753   2750   2762     1  0.0000000  0.6508444  3
   2755   2771   2749   2763     1  180.0000771  0.4184000  2
   2755   2771   2749   2763     1  0.0000000  1.6024720  3
   2755   2754   2753   2761     1  0.0000000  0.6508444  3
   2759   2755   2754   2760     1  0.0000000  4.9162000  2
   2759   2755   2754   2760     1  0.0000000  0.6024960  3
   2760   2754   2755   2771     1  0.0000000  4.9162000  2
   2760   2754   2755   2771     1  0.0000000  0.6024960  3
   2760   2754   2753   2761     1  0.0000000  4.9162000  2
   2760   2754   2753   2761     1  0.0000000  0.6024960  3
   2761   2753   2750   2762     1  0.0000000  4.9162000  2
   2761   2753   2750   2762     1  0.0000000  0.6024960  3
   2762   2750   2749   2763     1  0.0000000  0.6508444  3
   2762   2750   2749   2771     1  0.0000000  4.9162000  2
   2762   2750   2749   2771     1  0.0000000  0.6024960  3
   2769   2763   2749   2771     1  0.0000000  4.9162000  2
   2769   2763   2749   2771     1  0.0000000  0.6024960  3
   2772   2773   2776   2777     1  180.0000771  0.8368000  1
   2772   2773   2776   2777     1  180.0000771  1.0460000  2
   2772   2773   2776   2777     1  0.0000000  0.7531200  3
   2772   2773   2776   2784     1  0.0000000  0.6508444  3
   2772   2794   2778   2777     1  180.0000771  0.4184000  2
   2772   2794   2778   2777     1  0.0000000  1.6024720  3
   2772   2794   2778   2782     1  180.0000771  5.6484000  1
   2772   2794   2778   2782     1  180.0000771  3.5564000  2
   2772   2794   2778   2782     1  0.0000000  0.4184000  3
   2773   2772   2786   2792     1  0.0000000  0.6508444  3
   2773   2772   2794   2778     1  180.0000771  0.4184000  2
   2773   2772   2794   2778     1  0.0000000  1.6024720  3
   2773   2776   2777   2778     1  180.0000771  0.8368000  1
   2773   2776   2777   2778     1  180.0000771  1.0460000  2
   2773   2776   2777   2778     1  0.0000000  0.7531200  3
   2773   2776   2777   2783     1  0.0000000  0.6508444  3
   2776   2773   2772   2786     1  180.0000771  0.8368000  1
   2776   2773   2772   2786     1  180.0000771  1.0460000  2
   2776   2773   2772   2786     1  0.0000000  0.7531200  3
   2776   2773   2772   2794     1  0.0000000  0.6508444  3
   2776   2777   2778   2782     1  0.0000000  0.6508444  3
   2776   2777   2778   2794     1  0.0000000  0.6508444  3
   2777   2776   2773   2785     1  0.0000000  0.6508444  3
   2778   2777   2776   2784     1  0.0000000  0.6508444  3
   2778   2794   2772   2786     1  180.0000771  0.4184000  2
   2778   2794   2772   2786     1  0.0000000  1.6024720  3
   2782   2778   2777   2783     1  0.0000000  4.9162000  2
   2782   2778   2777   2783     1  0.0000000  0.6024960  3
   2783   2777   2776   2784     1  0.0000000  4.9162000  2
   2783   2777   2776   2784     1  0.0000000  0.6024960  3
   2783   2777   2778   2794     1  0.0000000  4.9162000  2
   2783   2777   2778   2794     1  0.0000000  0.6024960  3
   2784   2776   2773   2785     1  0.0000000  4.9162000  2
   2784   2776   2773   2785     1  0.0000000  0.6024960  3
   2785   2773   2772   2786     1  0.0000000  0.6508444  3
   2785   2773   2772   2794     1  0.0000000  4.9162000  2
   2785   2773   2772   2794     1  0.0000000  0.6024960  3
   2792   2786   2772   2794     1  0.0000000  4.9162000  2
   2792   2786   2772   2794     1  0.0000000  0.6024960  3
   2795   2796   2799   2800     1  180.0000771  0.8368000  1
   2795   2796   2799   2800     1  180.0000771  1.0460000  2
   2795   2796   2799   2800     1  0.0000000  0.7531200  3
   2795   2796   2799   2807     1  0.0000000  0.6508444  3
   2795   2817   2801   2805     1  180.0000771  5.6484000  1
   2795   2817   2801   2805     1  180.0000771  3.5564000  2
   2795   2817   2801   2805     1  0.0000000  0.4184000  3
   2795   2817   2801   2800     1  180.0000771  0.4184000  2
   2795   2817   2801   2800     1  0.0000000  1.6024720  3
   2796   2799   2800   2801     1  180.0000771  0.8368000  1
   2796   2799   2800   2801     1  180.0000771  1.0460000  2
   2796   2799   2800   2801     1  0.0000000  0.7531200  3
   2796   2799   2800   2806     1  0.0000000  0.6508444  3
   2796   2795   2809   2815     1  0.0000000  0.6508444  3
   2796   2795   2817   2801     1  180.0000771  0.4184000  2
   2796   2795   2817   2801     1  0.0000000  1.6024720  3
   2799   2800   2801   2805     1  0.0000000  0.6508444  3
   2799   2800   2801   2817     1  0.0000000  0.6508444  3
   2799   2796   2795   2809     1  180.0000771  0.8368000  1
   2799   2796   2795   2809     1  180.0000771  1.0460000  2
   2799   2796   2795   2809     1  0.0000000  0.7531200  3
   2799   2796   2795   2817     1  0.0000000  0.6508444  3
   2800   2799   2796   2808     1  0.0000000  0.6508444  3
   2801   2817   2795   2809     1  180.0000771  0.4184000  2
   2801   2817   2795   2809     1  0.0000000  1.6024720  3
   2801   2800   2799   2807     1  0.0000000  0.6508444  3
   2805   2801   2800   2806     1  0.0000000  4.9162000  2
   2805   2801   2800   2806     1  0.0000000  0.6024960  3
   2806   2800   2801   2817     1  0.0000000  4.9162000  2
   2806   2800   2801   2817     1  0.0000000  0.6024960  3
   2806   2800   2799   2807     1  0.0000000  4.9162000  2
   2806   2800   2799   2807     1  0.0000000  0.6024960  3
   2807   2799   2796   2808     1  0.0000000  4.9162000  2
   2807   2799   2796   2808     1  0.0000000  0.6024960  3
   2808   2796   2795   2809     1  0.0000000  0.6508444  3
   2808   2796   2795   2817     1  0.0000000  4.9162000  2
   2808   2796   2795   2817     1  0.0000000  0.6024960  3
   2815   2809   2795   2817     1  0.0000000  4.9162000  2
   2815   2809   2795   2817     1  0.0000000  0.6024960  3
   2818   2819   2822   2823     1  180.0000771  0.8368000  1
   2818   2819   2822   2823     1  180.0000771  1.0460000  2
   2818   2819   2822   2823     1  0.0000000  0.7531200  3
   2818   2819   2822   2830     1  0.0000000  0.6508444  3
   2818   2840   2824   2823     1  180.0000771  0.4184000  2
   2818   2840   2824   2823     1  0.0000000  1.6024720  3
   2818   2840   2824   2828     1  180.0000771  5.6484000  1
   2818   2840   2824   2828     1  180.0000771  3.5564000  2
   2818   2840   2824   2828     1  0.0000000  0.4184000  3
   2819   2818   2832   2838     1  0.0000000  0.6508444  3
   2819   2818   2840   2824     1  180.0000771  0.4184000  2
   2819   2818   2840   2824     1  0.0000000  1.6024720  3
   2819   2822   2823   2824     1  180.0000771  0.8368000  1
   2819   2822   2823   2824     1  180.0000771  1.0460000  2
   2819   2822   2823   2824     1  0.0000000  0.7531200  3
   2819   2822   2823   2829     1  0.0000000  0.6508444  3
   2822   2819   2818   2832     1  180.0000771  0.8368000  1
   2822   2819   2818   2832     1  180.0000771  1.0460000  2
   2822   2819   2818   2832     1  0.0000000  0.7531200  3
   2822   2819   2818   2840     1  0.0000000  0.6508444  3
   2822   2823   2824   2828     1  0.0000000  0.6508444  3
   2822   2823   2824   2840     1  0.0000000  0.6508444  3
   2823   2822   2819   2831     1  0.0000000  0.6508444  3
   2824   2823   2822   2830     1  0.0000000  0.6508444  3
   2824   2840   2818   2832     1  180.0000771  0.4184000  2
   2824   2840   2818   2832     1  0.0000000  1.6024720  3
   2828   2824   2823   2829     1  0.0000000  4.9162000  2
   2828   2824   2823   2829     1  0.0000000  0.6024960  3
   2829   2823   2822   2830     1  0.0000000  4.9162000  2
   2829   2823   2822   2830     1  0.0000000  0.6024960  3
   2829   2823   2824   2840     1  0.0000000  4.9162000  2
   2829   2823   2824   2840     1  0.0000000  0.6024960  3
   2830   2822   2819   2831     1  0.0000000  4.9162000  2
   2830   2822   2819   2831     1  0.0000000  0.6024960  3
   2831   2819   2818   2832     1  0.0000000  0.6508444  3
   2831   2819   2818   2840     1  0.0000000  4.9162000  2
   2831   2819   2818   2840     1  0.0000000  0.6024960  3
   2838   2832   2818   2840     1  0.0000000  4.9162000  2
   2838   2832   2818   2840     1  0.0000000  0.6024960  3
   2841   2842   2845   2846     1  180.0000771  0.8368000  1
   2841   2842   2845   2846     1  180.0000771  1.0460000  2
   2841   2842   2845   2846     1  0.0000000  0.7531200  3
   2841   2842   2845   2853     1  0.0000000  0.6508444  3
   2841   2863   2847   2851     1  180.0000771  5.6484000  1
   2841   2863   2847   2851     1  180.0000771  3.5564000  2
   2841   2863   2847   2851     1  0.0000000  0.4184000  3
   2841   2863   2847   2846     1  180.0000771  0.4184000  2
   2841   2863   2847   2846     1  0.0000000  1.6024720  3
   2842   2845   2846   2847     1  180.0000771  0.8368000  1
   2842   2845   2846   2847     1  180.0000771  1.0460000  2
   2842   2845   2846   2847     1  0.0000000  0.7531200  3
   2842   2845   2846   2852     1  0.0000000  0.6508444  3
   2842   2841   2855   2861     1  0.0000000  0.6508444  3
   2842   2841   2863   2847     1  180.0000771  0.4184000  2
   2842   2841   2863   2847     1  0.0000000  1.6024720  3
   2845   2846   2847   2851     1  0.0000000  0.6508444  3
   2845   2846   2847   2863     1  0.0000000  0.6508444  3
   2845   2842   2841   2855     1  180.0000771  0.8368000  1
   2845   2842   2841   2855     1  180.0000771  1.0460000  2
   2845   2842   2841   2855     1  0.0000000  0.7531200  3
   2845   2842   2841   2863     1  0.0000000  0.6508444  3
   2846   2845   2842   2854     1  0.0000000  0.6508444  3
   2847   2863   2841   2855     1  180.0000771  0.4184000  2
   2847   2863   2841   2855     1  0.0000000  1.6024720  3
   2847   2846   2845   2853     1  0.0000000  0.6508444  3
   2851   2847   2846   2852     1  0.0000000  4.9162000  2
   2851   2847   2846   2852     1  0.0000000  0.6024960  3
   2852   2846   2847   2863     1  0.0000000  4.9162000  2
   2852   2846   2847   2863     1  0.0000000  0.6024960  3
   2852   2846   2845   2853     1  0.0000000  4.9162000  2
   2852   2846   2845   2853     1  0.0000000  0.6024960  3
   2853   2845   2842   2854     1  0.0000000  4.9162000  2
   2853   2845   2842   2854     1  0.0000000  0.6024960  3
   2854   2842   2841   2855     1  0.0000000  0.6508444  3
   2854   2842   2841   2863     1  0.0000000  4.9162000  2
   2854   2842   2841   2863     1  0.0000000  0.6024960  3
   2861   2855   2841   2863     1  0.0000000  4.9162000  2
   2861   2855   2841   2863     1  0.0000000  0.6024960  3
   2864   2865   2868   2869     1  180.0000771  0.8368000  1
   2864   2865   2868   2869     1  180.0000771  1.0460000  2
   2864   2865   2868   2869     1  0.0000000  0.7531200  3
   2864   2865   2868   2876     1  0.0000000  0.6508444  3
   2864   2886   2870   2869     1  180.0000771  0.4184000  2
   2864   2886   2870   2869     1  0.0000000  1.6024720  3
   2864   2886   2870   2874     1  180.0000771  5.6484000  1
   2864   2886   2870   2874     1  180.0000771  3.5564000  2
   2864   2886   2870   2874     1  0.0000000  0.4184000  3
   2865   2864   2878   2884     1  0.0000000  0.6508444  3
   2865   2864   2886   2870     1  180.0000771  0.4184000  2
   2865   2864   2886   2870     1  0.0000000  1.6024720  3
   2865   2868   2869   2870     1  180.0000771  0.8368000  1
   2865   2868   2869   2870     1  180.0000771  1.0460000  2
   2865   2868   2869   2870     1  0.0000000  0.7531200  3
   2865   2868   2869   2875     1  0.0000000  0.6508444  3
   2868   2865   2864   2878     1  180.0000771  0.8368000  1
   2868   2865   2864   2878     1  180.0000771  1.0460000  2
   2868   2865   2864   2878     1  0.0000000  0.7531200  3
   2868   2865   2864   2886     1  0.0000000  0.6508444  3
   2868   2869   2870   2874     1  0.0000000  0.6508444  3
   2868   2869   2870   2886     1  0.0000000  0.6508444  3
   2869   2868   2865   2877     1  0.0000000  0.6508444  3
   2870   2869   2868   2876     1  0.0000000  0.6508444  3
   2870   2886   2864   2878     1  180.0000771  0.4184000  2
   2870   2886   2864   2878     1  0.0000000  1.6024720  3
   2874   2870   2869   2875     1  0.0000000  4.9162000  2
   2874   2870   2869   2875     1  0.0000000  0.6024960  3
   2875   2869   2868   2876     1  0.0000000  4.9162000  2
   2875   2869   2868   2876     1  0.0000000  0.6024960  3
   2875   2869   2870   2886     1  0.0000000  4.9162000  2
   2875   2869   2870   2886     1  0.0000000  0.6024960  3
   2876   2868   2865   2877     1  0.0000000  4.9162000  2
   2876   2868   2865   2877     1  0.0000000  0.6024960  3
   2877   2865   2864   2878     1  0.0000000  0.6508444  3
   2877   2865   2864   2886     1  0.0000000  4.9162000  2
   2877   2865   2864   2886     1  0.0000000  0.6024960  3
   2884   2878   2864   2886     1  0.0000000  4.9162000  2
   2884   2878   2864   2886     1  0.0000000  0.6024960  3
   2887   2888   2891   2892     1  180.0000771  0.8368000  1
   2887   2888   2891   2892     1  180.0000771  1.0460000  2
   2887   2888   2891   2892     1  0.0000000  0.7531200  3
   2887   2888   2891   2899     1  0.0000000  0.6508444  3
   2887   2909   2893   2897     1  180.0000771  5.6484000  1
   2887   2909   2893   2897     1  180.0000771  3.5564000  2
   2887   2909   2893   2897     1  0.0000000  0.4184000  3
   2887   2909   2893   2892     1  180.0000771  0.4184000  2
   2887   2909   2893   2892     1  0.0000000  1.6024720  3
   2888   2891   2892   2893     1  180.0000771  0.8368000  1
   2888   2891   2892   2893     1  180.0000771  1.0460000  2
   2888   2891   2892   2893     1  0.0000000  0.7531200  3
   2888   2891   2892   2898     1  0.0000000  0.6508444  3
   2888   2887   2901   2907     1  0.0000000  0.6508444  3
   2888   2887   2909   2893     1  180.0000771  0.4184000  2
   2888   2887   2909   2893     1  0.0000000  1.6024720  3
   2891   2892   2893   2897     1  0.0000000  0.6508444  3
   2891   2892   2893   2909     1  0.0000000  0.6508444  3
   2891   2888   2887   2901     1  180.0000771  0.8368000  1
   2891   2888   2887   2901     1  180.0000771  1.0460000  2
   2891   2888   2887   2901     1  0.0000000  0.7531200  3
   2891   2888   2887   2909     1  0.0000000  0.6508444  3
   2892   2891   2888   2900     1  0.0000000  0.6508444  3
   2893   2909   2887   2901     1  180.0000771  0.4184000  2
   2893   2909   2887   2901     1  0.0000000  1.6024720  3
   2893   2892   2891   2899     1  0.0000000  0.6508444  3
   2897   2893   2892   2898     1  0.0000000  4.9162000  2
   2897   2893   2892   2898     1  0.0000000  0.6024960  3
   2898   2892   2893   2909     1  0.0000000  4.9162000  2
   2898   2892   2893   2909     1  0.0000000  0.6024960  3
   2898   2892   2891   2899     1  0.0000000  4.9162000  2
   2898   2892   2891   2899     1  0.0000000  0.6024960  3
   2899   2891   2888   2900     1  0.0000000  4.9162000  2
   2899   2891   2888   2900     1  0.0000000  0.6024960  3
   2900   2888   2887   2901     1  0.0000000  0.6508444  3
   2900   2888   2887   2909     1  0.0000000  4.9162000  2
   2900   2888   2887   2909     1  0.0000000  0.6024960  3
   2907   2901   2887   2909     1  0.0000000  4.9162000  2
   2907   2901   2887   2909     1  0.0000000  0.6024960  3
   2910   2911   2914   2915     1  180.0000771  0.8368000  1
   2910   2911   2914   2915     1  180.0000771  1.0460000  2
   2910   2911   2914   2915     1  0.0000000  0.7531200  3
   2910   2911   2914   2922     1  0.0000000  0.6508444  3
   2910   2932   2916   2915     1  180.0000771  0.4184000  2
   2910   2932   2916   2915     1  0.0000000  1.6024720  3
   2910   2932   2916   2920     1  180.0000771  5.6484000  1
   2910   2932   2916   2920     1  180.0000771  3.5564000  2
   2910   2932   2916   2920     1  0.0000000  0.4184000  3
   2911   2910   2924   2930     1  0.0000000  0.6508444  3
   2911   2910   2932   2916     1  180.0000771  0.4184000  2
   2911   2910   2932   2916     1  0.0000000  1.6024720  3
   2911   2914   2915   2916     1  180.0000771  0.8368000  1
   2911   2914   2915   2916     1  180.0000771  1.0460000  2
   2911   2914   2915   2916     1  0.0000000  0.7531200  3
   2911   2914   2915   2921     1  0.0000000  0.6508444  3
   2914   2911   2910   2924     1  180.0000771  0.8368000  1
   2914   2911   2910   2924     1  180.0000771  1.0460000  2
   2914   2911   2910   2924     1  0.0000000  0.7531200  3
   2914   2911   2910   2932     1  0.0000000  0.6508444  3
   2914   2915   2916   2920     1  0.0000000  0.6508444  3
   2914   2915   2916   2932     1  0.0000000  0.6508444  3
   2915   2914   2911   2923     1  0.0000000  0.6508444  3
   2916   2915   2914   2922     1  0.0000000  0.6508444  3
   2916   2932   2910   2924     1  180.0000771  0.4184000  2
   2916   2932   2910   2924     1  0.0000000  1.6024720  3
   2920   2916   2915   2921     1  0.0000000  4.9162000  2
   2920   2916   2915   2921     1  0.0000000  0.6024960  3
   2921   2915   2914   2922     1  0.0000000  4.9162000  2
   2921   2915   2914   2922     1  0.0000000  0.6024960  3
   2921   2915   2916   2932     1  0.0000000  4.9162000  2
   2921   2915   2916   2932     1  0.0000000  0.6024960  3
   2922   2914   2911   2923     1  0.0000000  4.9162000  2
   2922   2914   2911   2923     1  0.0000000  0.6024960  3
   2923   2911   2910   2924     1  0.0000000  0.6508444  3
   2923   2911   2910   2932     1  0.0000000  4.9162000  2
   2923   2911   2910   2932     1  0.0000000  0.6024960  3
   2930   2924   2910   2932     1  0.0000000  4.9162000  2
   2930   2924   2910   2932     1  0.0000000  0.6024960  3
   2933   2934   2937   2938     1  180.0000771  0.8368000  1
   2933   2934   2937   2938     1  180.0000771  1.0460000  2
   2933   2934   2937   2938     1  0.0000000  0.7531200  3
   2933   2934   2937   2945     1  0.0000000  0.6508444  3
   2933   2955   2939   2943     1  180.0000771  5.6484000  1
   2933   2955   2939   2943     1  180.0000771  3.5564000  2
   2933   2955   2939   2943     1  0.0000000  0.4184000  3
   2933   2955   2939   2938     1  180.0000771  0.4184000  2
   2933   2955   2939   2938     1  0.0000000  1.6024720  3
   2934   2937   2938   2939     1  180.0000771  0.8368000  1
   2934   2937   2938   2939     1  180.0000771  1.0460000  2
   2934   2937   2938   2939     1  0.0000000  0.7531200  3
   2934   2937   2938   2944     1  0.0000000  0.6508444  3
   2934   2933   2947   2953     1  0.0000000  0.6508444  3
   2934   2933   2955   2939     1  180.0000771  0.4184000  2
   2934   2933   2955   2939     1  0.0000000  1.6024720  3
   2937   2938   2939   2943     1  0.0000000  0.6508444  3
   2937   2938   2939   2955     1  0.0000000  0.6508444  3
   2937   2934   2933   2947     1  180.0000771  0.8368000  1
   2937   2934   2933   2947     1  180.0000771  1.0460000  2
   2937   2934   2933   2947     1  0.0000000  0.7531200  3
   2937   2934   2933   2955     1  0.0000000  0.6508444  3
   2938   2937   2934   2946     1  0.0000000  0.6508444  3
   2939   2955   2933   2947     1  180.0000771  0.4184000  2
   2939   2955   2933   2947     1  0.0000000  1.6024720  3
   2939   2938   2937   2945     1  0.0000000  0.6508444  3
   2943   2939   2938   2944     1  0.0000000  4.9162000  2
   2943   2939   2938   2944     1  0.0000000  0.6024960  3
   2944   2938   2939   2955     1  0.0000000  4.9162000  2
   2944   2938   2939   2955     1  0.0000000  0.6024960  3
   2944   2938   2937   2945     1  0.0000000  4.9162000  2
   2944   2938   2937   2945     1  0.0000000  0.6024960  3
   2945   2937   2934   2946     1  0.0000000  4.9162000  2
   2945   2937   2934   2946     1  0.0000000  0.6024960  3
   2946   2934   2933   2947     1  0.0000000  0.6508444  3
   2946   2934   2933   2955     1  0.0000000  4.9162000  2
   2946   2934   2933   2955     1  0.0000000  0.6024960  3
   2953   2947   2933   2955     1  0.0000000  4.9162000  2
   2953   2947   2933   2955     1  0.0000000  0.6024960  3
   2956   2957   2960   2961     1  180.0000771  0.8368000  1
   2956   2957   2960   2961     1  180.0000771  1.0460000  2
   2956   2957   2960   2961     1  0.0000000  0.7531200  3
   2956   2957   2960   2968     1  0.0000000  0.6508444  3
   2956   2978   2962   2961     1  180.0000771  0.4184000  2
   2956   2978   2962   2961     1  0.0000000  1.6024720  3
   2956   2978   2962   2966     1  180.0000771  5.6484000  1
   2956   2978   2962   2966     1  180.0000771  3.5564000  2
   2956   2978   2962   2966     1  0.0000000  0.4184000  3
   2957   2956   2970   2976     1  0.0000000  0.6508444  3
   2957   2956   2978   2962     1  180.0000771  0.4184000  2
   2957   2956   2978   2962     1  0.0000000  1.6024720  3
   2957   2960   2961   2962     1  180.0000771  0.8368000  1
   2957   2960   2961   2962     1  180.0000771  1.0460000  2
   2957   2960   2961   2962     1  0.0000000  0.7531200  3
   2957   2960   2961   2967     1  0.0000000  0.6508444  3
   2960   2957   2956   2970     1  180.0000771  0.8368000  1
   2960   2957   2956   2970     1  180.0000771  1.0460000  2
   2960   2957   2956   2970     1  0.0000000  0.7531200  3
   2960   2957   2956   2978     1  0.0000000  0.6508444  3
   2960   2961   2962   2966     1  0.0000000  0.6508444  3
   2960   2961   2962   2978     1  0.0000000  0.6508444  3
   2961   2960   2957   2969     1  0.0000000  0.6508444  3
   2962   2961   2960   2968     1  0.0000000  0.6508444  3
   2962   2978   2956   2970     1  180.0000771  0.4184000  2
   2962   2978   2956   2970     1  0.0000000  1.6024720  3
   2966   2962   2961   2967     1  0.0000000  4.9162000  2
   2966   2962   2961   2967     1  0.0000000  0.6024960  3
   2967   2961   2960   2968     1  0.0000000  4.9162000  2
   2967   2961   2960   2968     1  0.0000000  0.6024960  3
   2967   2961   2962   2978     1  0.0000000  4.9162000  2
   2967   2961   2962   2978     1  0.0000000  0.6024960  3
   2968   2960   2957   2969     1  0.0000000  4.9162000  2
   2968   2960   2957   2969     1  0.0000000  0.6024960  3
   2969   2957   2956   2970     1  0.0000000  0.6508444  3
   2969   2957   2956   2978     1  0.0000000  4.9162000  2
   2969   2957   2956   2978     1  0.0000000  0.6024960  3
   2976   2970   2956   2978     1  0.0000000  4.9162000  2
   2976   2970   2956   2978     1  0.0000000  0.6024960  3
   2979   2980   2983   2984     1  180.0000771  0.8368000  1
   2979   2980   2983   2984     1  180.0000771  1.0460000  2
   2979   2980   2983   2984     1  0.0000000  0.7531200  3
   2979   2980   2983   2991     1  0.0000000  0.6508444  3
   2979   3001   2985   2989     1  180.0000771  5.6484000  1
   2979   3001   2985   2989     1  180.0000771  3.5564000  2
   2979   3001   2985   2989     1  0.0000000  0.4184000  3
   2979   3001   2985   2984     1  180.0000771  0.4184000  2
   2979   3001   2985   2984     1  0.0000000  1.6024720  3
   2980   2983   2984   2985     1  180.0000771  0.8368000  1
   2980   2983   2984   2985     1  180.0000771  1.0460000  2
   2980   2983   2984   2985     1  0.0000000  0.7531200  3
   2980   2983   2984   2990     1  0.0000000  0.6508444  3
   2980   2979   2993   2999     1  0.0000000  0.6508444  3
   2980   2979   3001   2985     1  180.0000771  0.4184000  2
   2980   2979   3001   2985     1  0.0000000  1.6024720  3
   2983   2984   2985   2989     1  0.0000000  0.6508444  3
   2983   2984   2985   3001     1  0.0000000  0.6508444  3
   2983   2980   2979   2993     1  180.0000771  0.8368000  1
   2983   2980   2979   2993     1  180.0000771  1.0460000  2
   2983   2980   2979   2993     1  0.0000000  0.7531200  3
   2983   2980   2979   3001     1  0.0000000  0.6508444  3
   2984   2983   2980   2992     1  0.0000000  0.6508444  3
   2985   3001   2979   2993     1  180.0000771  0.4184000  2
   2985   3001   2979   2993     1  0.0000000  1.6024720  3
   2985   2984   2983   2991     1  0.0000000  0.6508444  3
   2989   2985   2984   2990     1  0.0000000  4.9162000  2
   2989   2985   2984   2990     1  0.0000000  0.6024960  3
   2990   2984   2985   3001     1  0.0000000  4.9162000  2
   2990   2984   2985   3001     1  0.0000000  0.6024960  3
   2990   2984   2983   2991     1  0.0000000  4.9162000  2
   2990   2984   2983   2991     1  0.0000000  0.6024960  3
   2991   2983   2980   2992     1  0.0000000  4.9162000  2
   2991   2983   2980   2992     1  0.0000000  0.6024960  3
   2992   2980   2979   2993     1  0.0000000  0.6508444  3
   2992   2980   2979   3001     1  0.0000000  4.9162000  2
   2992   2980   2979   3001     1  0.0000000  0.6024960  3
   2999   2993   2979   3001     1  0.0000000  4.9162000  2
   2999   2993   2979   3001     1  0.0000000  0.6024960  3
   3002   3003   3006   3007     1  180.0000771  0.8368000  1
   3002   3003   3006   3007     1  180.0000771  1.0460000  2
   3002   3003   3006   3007     1  0.0000000  0.7531200  3
   3002   3003   3006   3014     1  0.0000000  0.6508444  3
   3002   3024   3008   3007     1  180.0000771  0.4184000  2
   3002   3024   3008   3007     1  0.0000000  1.6024720  3
   3002   3024   3008   3012     1  180.0000771  5.6484000  1
   3002   3024   3008   3012     1  180.0000771  3.5564000  2
   3002   3024   3008   3012     1  0.0000000  0.4184000  3
   3003   3002   3016   3022     1  0.0000000  0.6508444  3
   3003   3002   3024   3008     1  180.0000771  0.4184000  2
   3003   3002   3024   3008     1  0.0000000  1.6024720  3
   3003   3006   3007   3008     1  180.0000771  0.8368000  1
   3003   3006   3007   3008     1  180.0000771  1.0460000  2
   3003   3006   3007   3008     1  0.0000000  0.7531200  3
   3003   3006   3007   3013     1  0.0000000  0.6508444  3
   3006   3003   3002   3016     1  180.0000771  0.8368000  1
   3006   3003   3002   3016     1  180.0000771  1.0460000  2
   3006   3003   3002   3016     1  0.0000000  0.7531200  3
   3006   3003   3002   3024     1  0.0000000  0.6508444  3
   3006   3007   3008   3012     1  0.0000000  0.6508444  3
   3006   3007   3008   3024     1  0.0000000  0.6508444  3
   3007   3006   3003   3015     1  0.0000000  0.6508444  3
   3008   3007   3006   3014     1  0.0000000  0.6508444  3
   3008   3024   3002   3016     1  180.0000771  0.4184000  2
   3008   3024   3002   3016     1  0.0000000  1.6024720  3
   3012   3008   3007   3013     1  0.0000000  4.9162000  2
   3012   3008   3007   3013     1  0.0000000  0.6024960  3
   3013   3007   3006   3014     1  0.0000000  4.9162000  2
   3013   3007   3006   3014     1  0.0000000  0.6024960  3
   3013   3007   3008   3024     1  0.0000000  4.9162000  2
   3013   3007   3008   3024     1  0.0000000  0.6024960  3
   3014   3006   3003   3015     1  0.0000000  4.9162000  2
   3014   3006   3003   3015     1  0.0000000  0.6024960  3
   3015   3003   3002   3016     1  0.0000000  0.6508444  3
   3015   3003   3002   3024     1  0.0000000  4.9162000  2
   3015   3003   3002   3024     1  0.0000000  0.6024960  3
   3022   3016   3002   3024     1  0.0000000  4.9162000  2
   3022   3016   3002   3024     1  0.0000000  0.6024960  3
   3025   3026   3029   3030     1  180.0000771  0.8368000  1
   3025   3026   3029   3030     1  180.0000771  1.0460000  2
   3025   3026   3029   3030     1  0.0000000  0.7531200  3
   3025   3026   3029   3037     1  0.0000000  0.6508444  3
   3025   3047   3031   3035     1  180.0000771  5.6484000  1
   3025   3047   3031   3035     1  180.0000771  3.5564000  2
   3025   3047   3031   3035     1  0.0000000  0.4184000  3
   3025   3047   3031   3030     1  180.0000771  0.4184000  2
   3025   3047   3031   3030     1  0.0000000  1.6024720  3
   3026   3029   3030   3031     1  180.0000771  0.8368000  1
   3026   3029   3030   3031     1  180.0000771  1.0460000  2
   3026   3029   3030   3031     1  0.0000000  0.7531200  3
   3026   3029   3030   3036     1  0.0000000  0.6508444  3
   3026   3025   3039   3045     1  0.0000000  0.6508444  3
   3026   3025   3047   3031     1  180.0000771  0.4184000  2
   3026   3025   3047   3031     1  0.0000000  1.6024720  3
   3029   3030   3031   3035     1  0.0000000  0.6508444  3
   3029   3030   3031   3047     1  0.0000000  0.6508444  3
   3029   3026   3025   3039     1  180.0000771  0.8368000  1
   3029   3026   3025   3039     1  180.0000771  1.0460000  2
   3029   3026   3025   3039     1  0.0000000  0.7531200  3
   3029   3026   3025   3047     1  0.0000000  0.6508444  3
   3030   3029   3026   3038     1  0.0000000  0.6508444  3
   3031   3047   3025   3039     1  180.0000771  0.4184000  2
   3031   3047   3025   3039     1  0.0000000  1.6024720  3
   3031   3030   3029   3037     1  0.0000000  0.6508444  3
   3035   3031   3030   3036     1  0.0000000  4.9162000  2
   3035   3031   3030   3036     1  0.0000000  0.6024960  3
   3036   3030   3031   3047     1  0.0000000  4.9162000  2
   3036   3030   3031   3047     1  0.0000000  0.6024960  3
   3036   3030   3029   3037     1  0.0000000  4.9162000  2
   3036   3030   3029   3037     1  0.0000000  0.6024960  3
   3037   3029   3026   3038     1  0.0000000  4.9162000  2
   3037   3029   3026   3038     1  0.0000000  0.6024960  3
   3038   3026   3025   3039     1  0.0000000  0.6508444  3
   3038   3026   3025   3047     1  0.0000000  4.9162000  2
   3038   3026   3025   3047     1  0.0000000  0.6024960  3
   3045   3039   3025   3047     1  0.0000000  4.9162000  2
   3045   3039   3025   3047     1  0.0000000  0.6024960  3
   3048   3049   3052   3053     1  180.0000771  0.8368000  1
   3048   3049   3052   3053     1  180.0000771  1.0460000  2
   3048   3049   3052   3053     1  0.0000000  0.7531200  3
   3048   3049   3052   3060     1  0.0000000  0.6508444  3
   3048   3070   3054   3053     1  180.0000771  0.4184000  2
   3048   3070   3054   3053     1  0.0000000  1.6024720  3
   3048   3070   3054   3058     1  180.0000771  5.6484000  1
   3048   3070   3054   3058     1  180.0000771  3.5564000  2
   3048   3070   3054   3058     1  0.0000000  0.4184000  3
   3049   3048   3062   3068     1  0.0000000  0.6508444  3
   3049   3048   3070   3054     1  180.0000771  0.4184000  2
   3049   3048   3070   3054     1  0.0000000  1.6024720  3
   3049   3052   3053   3054     1  180.0000771  0.8368000  1
   3049   3052   3053   3054     1  180.0000771  1.0460000  2
   3049   3052   3053   3054     1  0.0000000  0.7531200  3
   3049   3052   3053   3059     1  0.0000000  0.6508444  3
   3052   3049   3048   3062     1  180.0000771  0.8368000  1
   3052   3049   3048   3062     1  180.0000771  1.0460000  2
   3052   3049   3048   3062     1  0.0000000  0.7531200  3
   3052   3049   3048   3070     1  0.0000000  0.6508444  3
   3052   3053   3054   3058     1  0.0000000  0.6508444  3
   3052   3053   3054   3070     1  0.0000000  0.6508444  3
   3053   3052   3049   3061     1  0.0000000  0.6508444  3
   3054   3053   3052   3060     1  0.0000000  0.6508444  3
   3054   3070   3048   3062     1  180.0000771  0.4184000  2
   3054   3070   3048   3062     1  0.0000000  1.6024720  3
   3058   3054   3053   3059     1  0.0000000  4.9162000  2
   3058   3054   3053   3059     1  0.0000000  0.6024960  3
   3059   3053   3052   3060     1  0.0000000  4.9162000  2
   3059   3053   3052   3060     1  0.0000000  0.6024960  3
   3059   3053   3054   3070     1  0.0000000  4.9162000  2
   3059   3053   3054   3070     1  0.0000000  0.6024960  3
   3060   3052   3049   3061     1  0.0000000  4.9162000  2
   3060   3052   3049   3061     1  0.0000000  0.6024960  3
   3061   3049   3048   3062     1  0.0000000  0.6508444  3
   3061   3049   3048   3070     1  0.0000000  4.9162000  2
   3061   3049   3048   3070     1  0.0000000  0.6024960  3
   3068   3062   3048   3070     1  0.0000000  4.9162000  2
   3068   3062   3048   3070     1  0.0000000  0.6024960  3
   3071   3072   3075   3076     1  180.0000771  0.8368000  1
   3071   3072   3075   3076     1  180.0000771  1.0460000  2
   3071   3072   3075   3076     1  0.0000000  0.7531200  3
   3071   3072   3075   3083     1  0.0000000  0.6508444  3
   3071   3093   3077   3081     1  180.0000771  5.6484000  1
   3071   3093   3077   3081     1  180.0000771  3.5564000  2
   3071   3093   3077   3081     1  0.0000000  0.4184000  3
   3071   3093   3077   3076     1  180.0000771  0.4184000  2
   3071   3093   3077   3076     1  0.0000000  1.6024720  3
   3072   3075   3076   3077     1  180.0000771  0.8368000  1
   3072   3075   3076   3077     1  180.0000771  1.0460000  2
   3072   3075   3076   3077     1  0.0000000  0.7531200  3
   3072   3075   3076   3082     1  0.0000000  0.6508444  3
   3072   3071   3085   3091     1  0.0000000  0.6508444  3
   3072   3071   3093   3077     1  180.0000771  0.4184000  2
   3072   3071   3093   3077     1  0.0000000  1.6024720  3
   3075   3076   3077   3081     1  0.0000000  0.6508444  3
   3075   3076   3077   3093     1  0.0000000  0.6508444  3
   3075   3072   3071   3085     1  180.0000771  0.8368000  1
   3075   3072   3071   3085     1  180.0000771  1.0460000  2
   3075   3072   3071   3085     1  0.0000000  0.7531200  3
   3075   3072   3071   3093     1  0.0000000  0.6508444  3
   3076   3075   3072   3084     1  0.0000000  0.6508444  3
   3077   3093   3071   3085     1  180.0000771  0.4184000  2
   3077   3093   3071   3085     1  0.0000000  1.6024720  3
   3077   3076   3075   3083     1  0.0000000  0.6508444  3
   3081   3077   3076   3082     1  0.0000000  4.9162000  2
   3081   3077   3076   3082     1  0.0000000  0.6024960  3
   3082   3076   3077   3093     1  0.0000000  4.9162000  2
   3082   3076   3077   3093     1  0.0000000  0.6024960  3
   3082   3076   3075   3083     1  0.0000000  4.9162000  2
   3082   3076   3075   3083     1  0.0000000  0.6024960  3
   3083   3075   3072   3084     1  0.0000000  4.9162000  2
   3083   3075   3072   3084     1  0.0000000  0.6024960  3
   3084   3072   3071   3085     1  0.0000000  0.6508444  3
   3084   3072   3071   3093     1  0.0000000  4.9162000  2
   3084   3072   3071   3093     1  0.0000000  0.6024960  3
   3091   3085   3071   3093     1  0.0000000  4.9162000  2
   3091   3085   3071   3093     1  0.0000000  0.6024960  3
   3094   3095   3098   3099     1  180.0000771  0.8368000  1
   3094   3095   3098   3099     1  180.0000771  1.0460000  2
   3094   3095   3098   3099     1  0.0000000  0.7531200  3
   3094   3095   3098   3106     1  0.0000000  0.6508444  3
   3094   3116   3100   3099     1  180.0000771  0.4184000  2
   3094   3116   3100   3099     1  0.0000000  1.6024720  3
   3094   3116   3100   3104     1  180.0000771  5.6484000  1
   3094   3116   3100   3104     1  180.0000771  3.5564000  2
   3094   3116   3100   3104     1  0.0000000  0.4184000  3
   3095   3094   3108   3114     1  0.0000000  0.6508444  3
   3095   3094   3116   3100     1  180.0000771  0.4184000  2
   3095   3094   3116   3100     1  0.0000000  1.6024720  3
   3095   3098   3099   3100     1  180.0000771  0.8368000  1
   3095   3098   3099   3100     1  180.0000771  1.0460000  2
   3095   3098   3099   3100     1  0.0000000  0.7531200  3
   3095   3098   3099   3105     1  0.0000000  0.6508444  3
   3098   3095   3094   3108     1  180.0000771  0.8368000  1
   3098   3095   3094   3108     1  180.0000771  1.0460000  2
   3098   3095   3094   3108     1  0.0000000  0.7531200  3
   3098   3095   3094   3116     1  0.0000000  0.6508444  3
   3098   3099   3100   3104     1  0.0000000  0.6508444  3
   3098   3099   3100   3116     1  0.0000000  0.6508444  3
   3099   3098   3095   3107     1  0.0000000  0.6508444  3
   3100   3099   3098   3106     1  0.0000000  0.6508444  3
   3100   3116   3094   3108     1  180.0000771  0.4184000  2
   3100   3116   3094   3108     1  0.0000000  1.6024720  3
   3104   3100   3099   3105     1  0.0000000  4.9162000  2
   3104   3100   3099   3105     1  0.0000000  0.6024960  3
   3105   3099   3098   3106     1  0.0000000  4.9162000  2
   3105   3099   3098   3106     1  0.0000000  0.6024960  3
   3105   3099   3100   3116     1  0.0000000  4.9162000  2
   3105   3099   3100   3116     1  0.0000000  0.6024960  3
   3106   3098   3095   3107     1  0.0000000  4.9162000  2
   3106   3098   3095   3107     1  0.0000000  0.6024960  3
   3107   3095   3094   3108     1  0.0000000  0.6508444  3
   3107   3095   3094   3116     1  0.0000000  4.9162000  2
   3107   3095   3094   3116     1  0.0000000  0.6024960  3
   3114   3108   3094   3116     1  0.0000000  4.9162000  2
   3114   3108   3094   3116     1  0.0000000  0.6024960  3
   3117   3118   3121   3122     1  180.0000771  0.8368000  1
   3117   3118   3121   3122     1  180.0000771  1.0460000  2
   3117   3118   3121   3122     1  0.0000000  0.7531200  3
   3117   3118   3121   3129     1  0.0000000  0.6508444  3
   3117   3139   3123   3127     1  180.0000771  5.6484000  1
   3117   3139   3123   3127     1  180.0000771  3.5564000  2
   3117   3139   3123   3127     1  0.0000000  0.4184000  3
   3117   3139   3123   3122     1  180.0000771  0.4184000  2
   3117   3139   3123   3122     1  0.0000000  1.6024720  3
   3118   3121   3122   3123     1  180.0000771  0.8368000  1
   3118   3121   3122   3123     1  180.0000771  1.0460000  2
   3118   3121   3122   3123     1  0.0000000  0.7531200  3
   3118   3121   3122   3128     1  0.0000000  0.6508444  3
   3118   3117   3131   3137     1  0.0000000  0.6508444  3
   3118   3117   3139   3123     1  180.0000771  0.4184000  2
   3118   3117   3139   3123     1  0.0000000  1.6024720  3
   3121   3122   3123   3127     1  0.0000000  0.6508444  3
   3121   3122   3123   3139     1  0.0000000  0.6508444  3
   3121   3118   3117   3131     1  180.0000771  0.8368000  1
   3121   3118   3117   3131     1  180.0000771  1.0460000  2
   3121   3118   3117   3131     1  0.0000000  0.7531200  3
   3121   3118   3117   3139     1  0.0000000  0.6508444  3
   3122   3121   3118   3130     1  0.0000000  0.6508444  3
   3123   3139   3117   3131     1  180.0000771  0.4184000  2
   3123   3139   3117   3131     1  0.0000000  1.6024720  3
   3123   3122   3121   3129     1  0.0000000  0.6508444  3
   3127   3123   3122   3128     1  0.0000000  4.9162000  2
   3127   3123   3122   3128     1  0.0000000  0.6024960  3
   3128   3122   3123   3139     1  0.0000000  4.9162000  2
   3128   3122   3123   3139     1  0.0000000  0.6024960  3
   3128   3122   3121   3129     1  0.0000000  4.9162000  2
   3128   3122   3121   3129     1  0.0000000  0.6024960  3
   3129   3121   3118   3130     1  0.0000000  4.9162000  2
   3129   3121   3118   3130     1  0.0000000  0.6024960  3
   3130   3118   3117   3131     1  0.0000000  0.6508444  3
   3130   3118   3117   3139     1  0.0000000  4.9162000  2
   3130   3118   3117   3139     1  0.0000000  0.6024960  3
   3137   3131   3117   3139     1  0.0000000  4.9162000  2
   3137   3131   3117   3139     1  0.0000000  0.6024960  3
   3140   3141   3144   3145     1  180.0000771  0.8368000  1
   3140   3141   3144   3145     1  180.0000771  1.0460000  2
   3140   3141   3144   3145     1  0.0000000  0.7531200  3
   3140   3141   3144   3152     1  0.0000000  0.6508444  3
   3140   3162   3146   3145     1  180.0000771  0.4184000  2
   3140   3162   3146   3145     1  0.0000000  1.6024720  3
   3140   3162   3146   3150     1  180.0000771  5.6484000  1
   3140   3162   3146   3150     1  180.0000771  3.5564000  2
   3140   3162   3146   3150     1  0.0000000  0.4184000  3
   3141   3140   3154   3160     1  0.0000000  0.6508444  3
   3141   3140   3162   3146     1  180.0000771  0.4184000  2
   3141   3140   3162   3146     1  0.0000000  1.6024720  3
   3141   3144   3145   3146     1  180.0000771  0.8368000  1
   3141   3144   3145   3146     1  180.0000771  1.0460000  2
   3141   3144   3145   3146     1  0.0000000  0.7531200  3
   3141   3144   3145   3151     1  0.0000000  0.6508444  3
   3144   3141   3140   3154     1  180.0000771  0.8368000  1
   3144   3141   3140   3154     1  180.0000771  1.0460000  2
   3144   3141   3140   3154     1  0.0000000  0.7531200  3
   3144   3141   3140   3162     1  0.0000000  0.6508444  3
   3144   3145   3146   3150     1  0.0000000  0.6508444  3
   3144   3145   3146   3162     1  0.0000000  0.6508444  3
   3145   3144   3141   3153     1  0.0000000  0.6508444  3
   3146   3145   3144   3152     1  0.0000000  0.6508444  3
   3146   3162   3140   3154     1  180.0000771  0.4184000  2
   3146   3162   3140   3154     1  0.0000000  1.6024720  3
   3150   3146   3145   3151     1  0.0000000  4.9162000  2
   3150   3146   3145   3151     1  0.0000000  0.6024960  3
   3151   3145   3144   3152     1  0.0000000  4.9162000  2
   3151   3145   3144   3152     1  0.0000000  0.6024960  3
   3151   3145   3146   3162     1  0.0000000  4.9162000  2
   3151   3145   3146   3162     1  0.0000000  0.6024960  3
   3152   3144   3141   3153     1  0.0000000  4.9162000  2
   3152   3144   3141   3153     1  0.0000000  0.6024960  3
   3153   3141   3140   3154     1  0.0000000  0.6508444  3
   3153   3141   3140   3162     1  0.0000000  4.9162000  2
   3153   3141   3140   3162     1  0.0000000  0.6024960  3
   3160   3154   3140   3162     1  0.0000000  4.9162000  2
   3160   3154   3140   3162     1  0.0000000  0.6024960  3
   3163   3164   3167   3168     1  180.0000771  0.8368000  1
   3163   3164   3167   3168     1  180.0000771  1.0460000  2
   3163   3164   3167   3168     1  0.0000000  0.7531200  3
   3163   3164   3167   3175     1  0.0000000  0.6508444  3
   3163   3185   3169   3173     1  180.0000771  5.6484000  1
   3163   3185   3169   3173     1  180.0000771  3.5564000  2
   3163   3185   3169   3173     1  0.0000000  0.4184000  3
   3163   3185   3169   3168     1  180.0000771  0.4184000  2
   3163   3185   3169   3168     1  0.0000000  1.6024720  3
   3164   3167   3168   3169     1  180.0000771  0.8368000  1
   3164   3167   3168   3169     1  180.0000771  1.0460000  2
   3164   3167   3168   3169     1  0.0000000  0.7531200  3
   3164   3167   3168   3174     1  0.0000000  0.6508444  3
   3164   3163   3177   3183     1  0.0000000  0.6508444  3
   3164   3163   3185   3169     1  180.0000771  0.4184000  2
   3164   3163   3185   3169     1  0.0000000  1.6024720  3
   3167   3168   3169   3173     1  0.0000000  0.6508444  3
   3167   3168   3169   3185     1  0.0000000  0.6508444  3
   3167   3164   3163   3177     1  180.0000771  0.8368000  1
   3167   3164   3163   3177     1  180.0000771  1.0460000  2
   3167   3164   3163   3177     1  0.0000000  0.7531200  3
   3167   3164   3163   3185     1  0.0000000  0.6508444  3
   3168   3167   3164   3176     1  0.0000000  0.6508444  3
   3169   3185   3163   3177     1  180.0000771  0.4184000  2
   3169   3185   3163   3177     1  0.0000000  1.6024720  3
   3169   3168   3167   3175     1  0.0000000  0.6508444  3
   3173   3169   3168   3174     1  0.0000000  4.9162000  2
   3173   3169   3168   3174     1  0.0000000  0.6024960  3
   3174   3168   3169   3185     1  0.0000000  4.9162000  2
   3174   3168   3169   3185     1  0.0000000  0.6024960  3
   3174   3168   3167   3175     1  0.0000000  4.9162000  2
   3174   3168   3167   3175     1  0.0000000  0.6024960  3
   3175   3167   3164   3176     1  0.0000000  4.9162000  2
   3175   3167   3164   3176     1  0.0000000  0.6024960  3
   3176   3164   3163   3177     1  0.0000000  0.6508444  3
   3176   3164   3163   3185     1  0.0000000  4.9162000  2
   3176   3164   3163   3185     1  0.0000000  0.6024960  3
   3183   3177   3163   3185     1  0.0000000  4.9162000  2
   3183   3177   3163   3185     1  0.0000000  0.6024960  3
   3186   3187   3190   3191     1  180.0000771  0.8368000  1
   3186   3187   3190   3191     1  180.0000771  1.0460000  2
   3186   3187   3190   3191     1  0.0000000  0.7531200  3
   3186   3187   3190   3198     1  0.0000000  0.6508444  3
   3186   3208   3192   3191     1  180.0000771  0.4184000  2
   3186   3208   3192   3191     1  0.0000000  1.6024720  3
   3186   3208   3192   3196     1  180.0000771  5.6484000  1
   3186   3208   3192   3196     1  180.0000771  3.5564000  2
   3186   3208   3192   3196     1  0.0000000  0.4184000  3
   3187   3186   3200   3206     1  0.0000000  0.6508444  3
   3187   3186   3208   3192     1  180.0000771  0.4184000  2
   3187   3186   3208   3192     1  0.0000000  1.6024720  3
   3187   3190   3191   3192     1  180.0000771  0.8368000  1
   3187   3190   3191   3192     1  180.0000771  1.0460000  2
   3187   3190   3191   3192     1  0.0000000  0.7531200  3
   3187   3190   3191   3197     1  0.0000000  0.6508444  3
   3190   3187   3186   3200     1  180.0000771  0.8368000  1
   3190   3187   3186   3200     1  180.0000771  1.0460000  2
   3190   3187   3186   3200     1  0.0000000  0.7531200  3
   3190   3187   3186   3208     1  0.0000000  0.6508444  3
   3190   3191   3192   3196     1  0.0000000  0.6508444  3
   3190   3191   3192   3208     1  0.0000000  0.6508444  3
   3191   3190   3187   3199     1  0.0000000  0.6508444  3
   3192   3191   3190   3198     1  0.0000000  0.6508444  3
   3192   3208   3186   3200     1  180.0000771  0.4184000  2
   3192   3208   3186   3200     1  0.0000000  1.6024720  3
   3196   3192   3191   3197     1  0.0000000  4.9162000  2
   3196   3192   3191   3197     1  0.0000000  0.6024960  3
   3197   3191   3190   3198     1  0.0000000  4.9162000  2
   3197   3191   3190   3198     1  0.0000000  0.6024960  3
   3197   3191   3192   3208     1  0.0000000  4.9162000  2
   3197   3191   3192   3208     1  0.0000000  0.6024960  3
   3198   3190   3187   3199     1  0.0000000  4.9162000  2
   3198   3190   3187   3199     1  0.0000000  0.6024960  3
   3199   3187   3186   3200     1  0.0000000  0.6508444  3
   3199   3187   3186   3208     1  0.0000000  4.9162000  2
   3199   3187   3186   3208     1  0.0000000  0.6024960  3
   3206   3200   3186   3208     1  0.0000000  4.9162000  2
   3206   3200   3186   3208     1  0.0000000  0.6024960  3
   3209   3210   3213   3214     1  180.0000771  0.8368000  1
   3209   3210   3213   3214     1  180.0000771  1.0460000  2
   3209   3210   3213   3214     1  0.0000000  0.7531200  3
   3209   3210   3213   3221     1  0.0000000  0.6508444  3
   3209   3231   3215   3219     1  180.0000771  5.6484000  1
   3209   3231   3215   3219     1  180.0000771  3.5564000  2
   3209   3231   3215   3219     1  0.0000000  0.4184000  3
   3209   3231   3215   3214     1  180.0000771  0.4184000  2
   3209   3231   3215   3214     1  0.0000000  1.6024720  3
   3210   3213   3214   3215     1  180.0000771  0.8368000  1
   3210   3213   3214   3215     1  180.0000771  1.0460000  2
   3210   3213   3214   3215     1  0.0000000  0.7531200  3
   3210   3213   3214   3220     1  0.0000000  0.6508444  3
   3210   3209   3223   3229     1  0.0000000  0.6508444  3
   3210   3209   3231   3215     1  180.0000771  0.4184000  2
   3210   3209   3231   3215     1  0.0000000  1.6024720  3
   3213   3214   3215   3219     1  0.0000000  0.6508444  3
   3213   3214   3215   3231     1  0.0000000  0.6508444  3
   3213   3210   3209   3223     1  180.0000771  0.8368000  1
   3213   3210   3209   3223     1  180.0000771  1.0460000  2
   3213   3210   3209   3223     1  0.0000000  0.7531200  3
   3213   3210   3209   3231     1  0.0000000  0.6508444  3
   3214   3213   3210   3222     1  0.0000000  0.6508444  3
   3215   3231   3209   3223     1  180.0000771  0.4184000  2
   3215   3231   3209   3223     1  0.0000000  1.6024720  3
   3215   3214   3213   3221     1  0.0000000  0.6508444  3
   3219   3215   3214   3220     1  0.0000000  4.9162000  2
   3219   3215   3214   3220     1  0.0000000  0.6024960  3
   3220   3214   3215   3231     1  0.0000000  4.9162000  2
   3220   3214   3215   3231     1  0.0000000  0.6024960  3
   3220   3214   3213   3221     1  0.0000000  4.9162000  2
   3220   3214   3213   3221     1  0.0000000  0.6024960  3
   3221   3213   3210   3222     1  0.0000000  4.9162000  2
   3221   3213   3210   3222     1  0.0000000  0.6024960  3
   3222   3210   3209   3223     1  0.0000000  0.6508444  3
   3222   3210   3209   3231     1  0.0000000  4.9162000  2
   3222   3210   3209   3231     1  0.0000000  0.6024960  3
   3229   3223   3209   3231     1  0.0000000  4.9162000  2
   3229   3223   3209   3231     1  0.0000000  0.6024960  3
   3232   3233   3236   3237     1  180.0000771  0.8368000  1
   3232   3233   3236   3237     1  180.0000771  1.0460000  2
   3232   3233   3236   3237     1  0.0000000  0.7531200  3
   3232   3233   3236   3244     1  0.0000000  0.6508444  3
   3232   3254   3238   3237     1  180.0000771  0.4184000  2
   3232   3254   3238   3237     1  0.0000000  1.6024720  3
   3232   3254   3238   3242     1  180.0000771  5.6484000  1
   3232   3254   3238   3242     1  180.0000771  3.5564000  2
   3232   3254   3238   3242     1  0.0000000  0.4184000  3
   3233   3232   3246   3252     1  0.0000000  0.6508444  3
   3233   3232   3254   3238     1  180.0000771  0.4184000  2
   3233   3232   3254   3238     1  0.0000000  1.6024720  3
   3233   3236   3237   3238     1  180.0000771  0.8368000  1
   3233   3236   3237   3238     1  180.0000771  1.0460000  2
   3233   3236   3237   3238     1  0.0000000  0.7531200  3
   3233   3236   3237   3243     1  0.0000000  0.6508444  3
   3236   3233   3232   3246     1  180.0000771  0.8368000  1
   3236   3233   3232   3246     1  180.0000771  1.0460000  2
   3236   3233   3232   3246     1  0.0000000  0.7531200  3
   3236   3233   3232   3254     1  0.0000000  0.6508444  3
   3236   3237   3238   3242     1  0.0000000  0.6508444  3
   3236   3237   3238   3254     1  0.0000000  0.6508444  3
   3237   3236   3233   3245     1  0.0000000  0.6508444  3
   3238   3237   3236   3244     1  0.0000000  0.6508444  3
   3238   3254   3232   3246     1  180.0000771  0.4184000  2
   3238   3254   3232   3246     1  0.0000000  1.6024720  3
   3242   3238   3237   3243     1  0.0000000  4.9162000  2
   3242   3238   3237   3243     1  0.0000000  0.6024960  3
   3243   3237   3236   3244     1  0.0000000  4.9162000  2
   3243   3237   3236   3244     1  0.0000000  0.6024960  3
   3243   3237   3238   3254     1  0.0000000  4.9162000  2
   3243   3237   3238   3254     1  0.0000000  0.6024960  3
   3244   3236   3233   3245     1  0.0000000  4.9162000  2
   3244   3236   3233   3245     1  0.0000000  0.6024960  3
   3245   3233   3232   3246     1  0.0000000  0.6508444  3
   3245   3233   3232   3254     1  0.0000000  4.9162000  2
   3245   3233   3232   3254     1  0.0000000  0.6024960  3
   3252   3246   3232   3254     1  0.0000000  4.9162000  2
   3252   3246   3232   3254     1  0.0000000  0.6024960  3
   3255   3256   3259   3260     1  180.0000771  0.8368000  1
   3255   3256   3259   3260     1  180.0000771  1.0460000  2
   3255   3256   3259   3260     1  0.0000000  0.7531200  3
   3255   3256   3259   3267     1  0.0000000  0.6508444  3
   3255   3277   3261   3265     1  180.0000771  5.6484000  1
   3255   3277   3261   3265     1  180.0000771  3.5564000  2
   3255   3277   3261   3265     1  0.0000000  0.4184000  3
   3255   3277   3261   3260     1  180.0000771  0.4184000  2
   3255   3277   3261   3260     1  0.0000000  1.6024720  3
   3256   3259   3260   3261     1  180.0000771  0.8368000  1
   3256   3259   3260   3261     1  180.0000771  1.0460000  2
   3256   3259   3260   3261     1  0.0000000  0.7531200  3
   3256   3259   3260   3266     1  0.0000000  0.6508444  3
   3256   3255   3269   3275     1  0.0000000  0.6508444  3
   3256   3255   3277   3261     1  180.0000771  0.4184000  2
   3256   3255   3277   3261     1  0.0000000  1.6024720  3
   3259   3260   3261   3265     1  0.0000000  0.6508444  3
   3259   3260   3261   3277     1  0.0000000  0.6508444  3
   3259   3256   3255   3269     1  180.0000771  0.8368000  1
   3259   3256   3255   3269     1  180.0000771  1.0460000  2
   3259   3256   3255   3269     1  0.0000000  0.7531200  3
   3259   3256   3255   3277     1  0.0000000  0.6508444  3
   3260   3259   3256   3268     1  0.0000000  0.6508444  3
   3261   3277   3255   3269     1  180.0000771  0.4184000  2
   3261   3277   3255   3269     1  0.0000000  1.6024720  3
   3261   3260   3259   3267     1  0.0000000  0.6508444  3
   3265   3261   3260   3266     1  0.0000000  4.9162000  2
   3265   3261   3260   3266     1  0.0000000  0.6024960  3
   3266   3260   3261   3277     1  0.0000000  4.9162000  2
   3266   3260   3261   3277     1  0.0000000  0.6024960  3
   3266   3260   3259   3267     1  0.0000000  4.9162000  2
   3266   3260   3259   3267     1  0.0000000  0.6024960  3
   3267   3259   3256   3268     1  0.0000000  4.9162000  2
   3267   3259   3256   3268     1  0.0000000  0.6024960  3
   3268   3256   3255   3269     1  0.0000000  0.6508444  3
   3268   3256   3255   3277     1  0.0000000  4.9162000  2
   3268   3256   3255   3277     1  0.0000000  0.6024960  3
   3275   3269   3255   3277     1  0.0000000  4.9162000  2
   3275   3269   3255   3277     1  0.0000000  0.6024960  3
   3278   3279   3282   3283     1  180.0000771  0.8368000  1
   3278   3279   3282   3283     1  180.0000771  1.0460000  2
   3278   3279   3282   3283     1  0.0000000  0.7531200  3
   3278   3279   3282   3290     1  0.0000000  0.6508444  3
   3278   3300   3284   3283     1  180.0000771  0.4184000  2
   3278   3300   3284   3283     1  0.0000000  1.6024720  3
   3278   3300   3284   3288     1  180.0000771  5.6484000  1
   3278   3300   3284   3288     1  180.0000771  3.5564000  2
   3278   3300   3284   3288     1  0.0000000  0.4184000  3
   3279   3278   3292   3298     1  0.0000000  0.6508444  3
   3279   3278   3300   3284     1  180.0000771  0.4184000  2
   3279   3278   3300   3284     1  0.0000000  1.6024720  3
   3279   3282   3283   3284     1  180.0000771  0.8368000  1
   3279   3282   3283   3284     1  180.0000771  1.0460000  2
   3279   3282   3283   3284     1  0.0000000  0.7531200  3
   3279   3282   3283   3289     1  0.0000000  0.6508444  3
   3282   3279   3278   3292     1  180.0000771  0.8368000  1
   3282   3279   3278   3292     1  180.0000771  1.0460000  2
   3282   3279   3278   3292     1  0.0000000  0.7531200  3
   3282   3279   3278   3300     1  0.0000000  0.6508444  3
   3282   3283   3284   3288     1  0.0000000  0.6508444  3
   3282   3283   3284   3300     1  0.0000000  0.6508444  3
   3283   3282   3279   3291     1  0.0000000  0.6508444  3
   3284   3283   3282   3290     1  0.0000000  0.6508444  3
   3284   3300   3278   3292     1  180.0000771  0.4184000  2
   3284   3300   3278   3292     1  0.0000000  1.6024720  3
   3288   3284   3283   3289     1  0.0000000  4.9162000  2
   3288   3284   3283   3289     1  0.0000000  0.6024960  3
   3289   3283   3282   3290     1  0.0000000  4.9162000  2
   3289   3283   3282   3290     1  0.0000000  0.6024960  3
   3289   3283   3284   3300     1  0.0000000  4.9162000  2
   3289   3283   3284   3300     1  0.0000000  0.6024960  3
   3290   3282   3279   3291     1  0.0000000  4.9162000  2
   3290   3282   3279   3291     1  0.0000000  0.6024960  3
   3291   3279   3278   3292     1  0.0000000  0.6508444  3
   3291   3279   3278   3300     1  0.0000000  4.9162000  2
   3291   3279   3278   3300     1  0.0000000  0.6024960  3
   3298   3292   3278   3300     1  0.0000000  4.9162000  2
   3298   3292   3278   3300     1  0.0000000  0.6024960  3
   3301   3302   3305   3306     1  180.0000771  0.8368000  1
   3301   3302   3305   3306     1  180.0000771  1.0460000  2
   3301   3302   3305   3306     1  0.0000000  0.7531200  3
   3301   3302   3305   3313     1  0.0000000  0.6508444  3
   3301   3323   3307   3311     1  180.0000771  5.6484000  1
   3301   3323   3307   3311     1  180.0000771  3.5564000  2
   3301   3323   3307   3311     1  0.0000000  0.4184000  3
   3301   3323   3307   3306     1  180.0000771  0.4184000  2
   3301   3323   3307   3306     1  0.0000000  1.6024720  3
   3302   3305   3306   3307     1  180.0000771  0.8368000  1
   3302   3305   3306   3307     1  180.0000771  1.0460000  2
   3302   3305   3306   3307     1  0.0000000  0.7531200  3
   3302   3305   3306   3312     1  0.0000000  0.6508444  3
   3302   3301   3315   3321     1  0.0000000  0.6508444  3
   3302   3301   3323   3307     1  180.0000771  0.4184000  2
   3302   3301   3323   3307     1  0.0000000  1.6024720  3
   3305   3306   3307   3311     1  0.0000000  0.6508444  3
   3305   3306   3307   3323     1  0.0000000  0.6508444  3
   3305   3302   3301   3315     1  180.0000771  0.8368000  1
   3305   3302   3301   3315     1  180.0000771  1.0460000  2
   3305   3302   3301   3315     1  0.0000000  0.7531200  3
   3305   3302   3301   3323     1  0.0000000  0.6508444  3
   3306   3305   3302   3314     1  0.0000000  0.6508444  3
   3307   3323   3301   3315     1  180.0000771  0.4184000  2
   3307   3323   3301   3315     1  0.0000000  1.6024720  3
   3307   3306   3305   3313     1  0.0000000  0.6508444  3
   3311   3307   3306   3312     1  0.0000000  4.9162000  2
   3311   3307   3306   3312     1  0.0000000  0.6024960  3
   3312   3306   3307   3323     1  0.0000000  4.9162000  2
   3312   3306   3307   3323     1  0.0000000  0.6024960  3
   3312   3306   3305   3313     1  0.0000000  4.9162000  2
   3312   3306   3305   3313     1  0.0000000  0.6024960  3
   3313   3305   3302   3314     1  0.0000000  4.9162000  2
   3313   3305   3302   3314     1  0.0000000  0.6024960  3
   3314   3302   3301   3315     1  0.0000000  0.6508444  3
   3314   3302   3301   3323     1  0.0000000  4.9162000  2
   3314   3302   3301   3323     1  0.0000000  0.6024960  3
   3321   3315   3301   3323     1  0.0000000  4.9162000  2
   3321   3315   3301   3323     1  0.0000000  0.6024960  3
   3324   3325   3328   3329     1  180.0000771  0.8368000  1
   3324   3325   3328   3329     1  180.0000771  1.0460000  2
   3324   3325   3328   3329     1  0.0000000  0.7531200  3
   3324   3325   3328   3336     1  0.0000000  0.6508444  3
   3324   3346   3330   3329     1  180.0000771  0.4184000  2
   3324   3346   3330   3329     1  0.0000000  1.6024720  3
   3324   3346   3330   3334     1  180.0000771  5.6484000  1
   3324   3346   3330   3334     1  180.0000771  3.5564000  2
   3324   3346   3330   3334     1  0.0000000  0.4184000  3
   3325   3324   3338   3344     1  0.0000000  0.6508444  3
   3325   3324   3346   3330     1  180.0000771  0.4184000  2
   3325   3324   3346   3330     1  0.0000000  1.6024720  3
   3325   3328   3329   3330     1  180.0000771  0.8368000  1
   3325   3328   3329   3330     1  180.0000771  1.0460000  2
   3325   3328   3329   3330     1  0.0000000  0.7531200  3
   3325   3328   3329   3335     1  0.0000000  0.6508444  3
   3328   3325   3324   3338     1  180.0000771  0.8368000  1
   3328   3325   3324   3338     1  180.0000771  1.0460000  2
   3328   3325   3324   3338     1  0.0000000  0.7531200  3
   3328   3325   3324   3346     1  0.0000000  0.6508444  3
   3328   3329   3330   3334     1  0.0000000  0.6508444  3
   3328   3329   3330   3346     1  0.0000000  0.6508444  3
   3329   3328   3325   3337     1  0.0000000  0.6508444  3
   3330   3329   3328   3336     1  0.0000000  0.6508444  3
   3330   3346   3324   3338     1  180.0000771  0.4184000  2
   3330   3346   3324   3338     1  0.0000000  1.6024720  3
   3334   3330   3329   3335     1  0.0000000  4.9162000  2
   3334   3330   3329   3335     1  0.0000000  0.6024960  3
   3335   3329   3328   3336     1  0.0000000  4.9162000  2
   3335   3329   3328   3336     1  0.0000000  0.6024960  3
   3335   3329   3330   3346     1  0.0000000  4.9162000  2
   3335   3329   3330   3346     1  0.0000000  0.6024960  3
   3336   3328   3325   3337     1  0.0000000  4.9162000  2
   3336   3328   3325   3337     1  0.0000000  0.6024960  3
   3337   3325   3324   3338     1  0.0000000  0.6508444  3
   3337   3325   3324   3346     1  0.0000000  4.9162000  2
   3337   3325   3324   3346     1  0.0000000  0.6024960  3
   3344   3338   3324   3346     1  0.0000000  4.9162000  2
   3344   3338   3324   3346     1  0.0000000  0.6024960  3
   3347   3348   3351   3352     1  180.0000771  0.8368000  1
   3347   3348   3351   3352     1  180.0000771  1.0460000  2
   3347   3348   3351   3352     1  0.0000000  0.7531200  3
   3347   3348   3351   3359     1  0.0000000  0.6508444  3
   3347   3369   3353   3357     1  180.0000771  5.6484000  1
   3347   3369   3353   3357     1  180.0000771  3.5564000  2
   3347   3369   3353   3357     1  0.0000000  0.4184000  3
   3347   3369   3353   3352     1  180.0000771  0.4184000  2
   3347   3369   3353   3352     1  0.0000000  1.6024720  3
   3348   3351   3352   3353     1  180.0000771  0.8368000  1
   3348   3351   3352   3353     1  180.0000771  1.0460000  2
   3348   3351   3352   3353     1  0.0000000  0.7531200  3
   3348   3351   3352   3358     1  0.0000000  0.6508444  3
   3348   3347   3361   3367     1  0.0000000  0.6508444  3
   3348   3347   3369   3353     1  180.0000771  0.4184000  2
   3348   3347   3369   3353     1  0.0000000  1.6024720  3
   3351   3352   3353   3357     1  0.0000000  0.6508444  3
   3351   3352   3353   3369     1  0.0000000  0.6508444  3
   3351   3348   3347   3361     1  180.0000771  0.8368000  1
   3351   3348   3347   3361     1  180.0000771  1.0460000  2
   3351   3348   3347   3361     1  0.0000000  0.7531200  3
   3351   3348   3347   3369     1  0.0000000  0.6508444  3
   3352   3351   3348   3360     1  0.0000000  0.6508444  3
   3353   3369   3347   3361     1  180.0000771  0.4184000  2
   3353   3369   3347   3361     1  0.0000000  1.6024720  3
   3353   3352   3351   3359     1  0.0000000  0.6508444  3
   3357   3353   3352   3358     1  0.0000000  4.9162000  2
   3357   3353   3352   3358     1  0.0000000  0.6024960  3
   3358   3352   3353   3369     1  0.0000000  4.9162000  2
   3358   3352   3353   3369     1  0.0000000  0.6024960  3
   3358   3352   3351   3359     1  0.0000000  4.9162000  2
   3358   3352   3351   3359     1  0.0000000  0.6024960  3
   3359   3351   3348   3360     1  0.0000000  4.9162000  2
   3359   3351   3348   3360     1  0.0000000  0.6024960  3
   3360   3348   3347   3361     1  0.0000000  0.6508444  3
   3360   3348   3347   3369     1  0.0000000  4.9162000  2
   3360   3348   3347   3369     1  0.0000000  0.6024960  3
   3367   3361   3347   3369     1  0.0000000  4.9162000  2
   3367   3361   3347   3369     1  0.0000000  0.6024960  3
   3370   3371   3374   3375     1  180.0000771  0.8368000  1
   3370   3371   3374   3375     1  180.0000771  1.0460000  2
   3370   3371   3374   3375     1  0.0000000  0.7531200  3
   3370   3371   3374   3382     1  0.0000000  0.6508444  3
   3370   3392   3376   3375     1  180.0000771  0.4184000  2
   3370   3392   3376   3375     1  0.0000000  1.6024720  3
   3370   3392   3376   3380     1  180.0000771  5.6484000  1
   3370   3392   3376   3380     1  180.0000771  3.5564000  2
   3370   3392   3376   3380     1  0.0000000  0.4184000  3
   3371   3370   3384   3390     1  0.0000000  0.6508444  3
   3371   3370   3392   3376     1  180.0000771  0.4184000  2
   3371   3370   3392   3376     1  0.0000000  1.6024720  3
   3371   3374   3375   3376     1  180.0000771  0.8368000  1
   3371   3374   3375   3376     1  180.0000771  1.0460000  2
   3371   3374   3375   3376     1  0.0000000  0.7531200  3
   3371   3374   3375   3381     1  0.0000000  0.6508444  3
   3374   3371   3370   3384     1  180.0000771  0.8368000  1
   3374   3371   3370   3384     1  180.0000771  1.0460000  2
   3374   3371   3370   3384     1  0.0000000  0.7531200  3
   3374   3371   3370   3392     1  0.0000000  0.6508444  3
   3374   3375   3376   3380     1  0.0000000  0.6508444  3
   3374   3375   3376   3392     1  0.0000000  0.6508444  3
   3375   3374   3371   3383     1  0.0000000  0.6508444  3
   3376   3375   3374   3382     1  0.0000000  0.6508444  3
   3376   3392   3370   3384     1  180.0000771  0.4184000  2
   3376   3392   3370   3384     1  0.0000000  1.6024720  3
   3380   3376   3375   3381     1  0.0000000  4.9162000  2
   3380   3376   3375   3381     1  0.0000000  0.6024960  3
   3381   3375   3374   3382     1  0.0000000  4.9162000  2
   3381   3375   3374   3382     1  0.0000000  0.6024960  3
   3381   3375   3376   3392     1  0.0000000  4.9162000  2
   3381   3375   3376   3392     1  0.0000000  0.6024960  3
   3382   3374   3371   3383     1  0.0000000  4.9162000  2
   3382   3374   3371   3383     1  0.0000000  0.6024960  3
   3383   3371   3370   3384     1  0.0000000  0.6508444  3
   3383   3371   3370   3392     1  0.0000000  4.9162000  2
   3383   3371   3370   3392     1  0.0000000  0.6024960  3
   3390   3384   3370   3392     1  0.0000000  4.9162000  2
   3390   3384   3370   3392     1  0.0000000  0.6024960  3
   3393   3394   3397   3398     1  180.0000771  0.8368000  1
   3393   3394   3397   3398     1  180.0000771  1.0460000  2
   3393   3394   3397   3398     1  0.0000000  0.7531200  3
   3393   3394   3397   3405     1  0.0000000  0.6508444  3
   3393   3415   3399   3403     1  180.0000771  5.6484000  1
   3393   3415   3399   3403     1  180.0000771  3.5564000  2
   3393   3415   3399   3403     1  0.0000000  0.4184000  3
   3393   3415   3399   3398     1  180.0000771  0.4184000  2
   3393   3415   3399   3398     1  0.0000000  1.6024720  3
   3394   3397   3398   3399     1  180.0000771  0.8368000  1
   3394   3397   3398   3399     1  180.0000771  1.0460000  2
   3394   3397   3398   3399     1  0.0000000  0.7531200  3
   3394   3397   3398   3404     1  0.0000000  0.6508444  3
   3394   3393   3407   3413     1  0.0000000  0.6508444  3
   3394   3393   3415   3399     1  180.0000771  0.4184000  2
   3394   3393   3415   3399     1  0.0000000  1.6024720  3
   3397   3398   3399   3403     1  0.0000000  0.6508444  3
   3397   3398   3399   3415     1  0.0000000  0.6508444  3
   3397   3394   3393   3407     1  180.0000771  0.8368000  1
   3397   3394   3393   3407     1  180.0000771  1.0460000  2
   3397   3394   3393   3407     1  0.0000000  0.7531200  3
   3397   3394   3393   3415     1  0.0000000  0.6508444  3
   3398   3397   3394   3406     1  0.0000000  0.6508444  3
   3399   3415   3393   3407     1  180.0000771  0.4184000  2
   3399   3415   3393   3407     1  0.0000000  1.6024720  3
   3399   3398   3397   3405     1  0.0000000  0.6508444  3
   3403   3399   3398   3404     1  0.0000000  4.9162000  2
   3403   3399   3398   3404     1  0.0000000  0.6024960  3
   3404   3398   3399   3415     1  0.0000000  4.9162000  2
   3404   3398   3399   3415     1  0.0000000  0.6024960  3
   3404   3398   3397   3405     1  0.0000000  4.9162000  2
   3404   3398   3397   3405     1  0.0000000  0.6024960  3
   3405   3397   3394   3406     1  0.0000000  4.9162000  2
   3405   3397   3394   3406     1  0.0000000  0.6024960  3
   3406   3394   3393   3407     1  0.0000000  0.6508444  3
   3406   3394   3393   3415     1  0.0000000  4.9162000  2
   3406   3394   3393   3415     1  0.0000000  0.6024960  3
   3413   3407   3393   3415     1  0.0000000  4.9162000  2
   3413   3407   3393   3415     1  0.0000000  0.6024960  3
   3416   3417   3420   3421     1  180.0000771  0.8368000  1
   3416   3417   3420   3421     1  180.0000771  1.0460000  2
   3416   3417   3420   3421     1  0.0000000  0.7531200  3
   3416   3417   3420   3428     1  0.0000000  0.6508444  3
   3416   3438   3422   3421     1  180.0000771  0.4184000  2
   3416   3438   3422   3421     1  0.0000000  1.6024720  3
   3416   3438   3422   3426     1  180.0000771  5.6484000  1
   3416   3438   3422   3426     1  180.0000771  3.5564000  2
   3416   3438   3422   3426     1  0.0000000  0.4184000  3
   3417   3416   3430   3436     1  0.0000000  0.6508444  3
   3417   3416   3438   3422     1  180.0000771  0.4184000  2
   3417   3416   3438   3422     1  0.0000000  1.6024720  3
   3417   3420   3421   3422     1  180.0000771  0.8368000  1
   3417   3420   3421   3422     1  180.0000771  1.0460000  2
   3417   3420   3421   3422     1  0.0000000  0.7531200  3
   3417   3420   3421   3427     1  0.0000000  0.6508444  3
   3420   3417   3416   3430     1  180.0000771  0.8368000  1
   3420   3417   3416   3430     1  180.0000771  1.0460000  2
   3420   3417   3416   3430     1  0.0000000  0.7531200  3
   3420   3417   3416   3438     1  0.0000000  0.6508444  3
   3420   3421   3422   3426     1  0.0000000  0.6508444  3
   3420   3421   3422   3438     1  0.0000000  0.6508444  3
   3421   3420   3417   3429     1  0.0000000  0.6508444  3
   3422   3421   3420   3428     1  0.0000000  0.6508444  3
   3422   3438   3416   3430     1  180.0000771  0.4184000  2
   3422   3438   3416   3430     1  0.0000000  1.6024720  3
   3426   3422   3421   3427     1  0.0000000  4.9162000  2
   3426   3422   3421   3427     1  0.0000000  0.6024960  3
   3427   3421   3420   3428     1  0.0000000  4.9162000  2
   3427   3421   3420   3428     1  0.0000000  0.6024960  3
   3427   3421   3422   3438     1  0.0000000  4.9162000  2
   3427   3421   3422   3438     1  0.0000000  0.6024960  3
   3428   3420   3417   3429     1  0.0000000  4.9162000  2
   3428   3420   3417   3429     1  0.0000000  0.6024960  3
   3429   3417   3416   3430     1  0.0000000  0.6508444  3
   3429   3417   3416   3438     1  0.0000000  4.9162000  2
   3429   3417   3416   3438     1  0.0000000  0.6024960  3
   3436   3430   3416   3438     1  0.0000000  4.9162000  2
   3436   3430   3416   3438     1  0.0000000  0.6024960  3
   3439   3440   3443   3444     1  180.0000771  0.8368000  1
   3439   3440   3443   3444     1  180.0000771  1.0460000  2
   3439   3440   3443   3444     1  0.0000000  0.7531200  3
   3439   3440   3443   3451     1  0.0000000  0.6508444  3
   3439   3461   3445   3449     1  180.0000771  5.6484000  1
   3439   3461   3445   3449     1  180.0000771  3.5564000  2
   3439   3461   3445   3449     1  0.0000000  0.4184000  3
   3439   3461   3445   3444     1  180.0000771  0.4184000  2
   3439   3461   3445   3444     1  0.0000000  1.6024720  3
   3440   3443   3444   3445     1  180.0000771  0.8368000  1
   3440   3443   3444   3445     1  180.0000771  1.0460000  2
   3440   3443   3444   3445     1  0.0000000  0.7531200  3
   3440   3443   3444   3450     1  0.0000000  0.6508444  3
   3440   3439   3453   3459     1  0.0000000  0.6508444  3
   3440   3439   3461   3445     1  180.0000771  0.4184000  2
   3440   3439   3461   3445     1  0.0000000  1.6024720  3
   3443   3444   3445   3449     1  0.0000000  0.6508444  3
   3443   3444   3445   3461     1  0.0000000  0.6508444  3
   3443   3440   3439   3453     1  180.0000771  0.8368000  1
   3443   3440   3439   3453     1  180.0000771  1.0460000  2
   3443   3440   3439   3453     1  0.0000000  0.7531200  3
   3443   3440   3439   3461     1  0.0000000  0.6508444  3
   3444   3443   3440   3452     1  0.0000000  0.6508444  3
   3445   3461   3439   3453     1  180.0000771  0.4184000  2
   3445   3461   3439   3453     1  0.0000000  1.6024720  3
   3445   3444   3443   3451     1  0.0000000  0.6508444  3
   3449   3445   3444   3450     1  0.0000000  4.9162000  2
   3449   3445   3444   3450     1  0.0000000  0.6024960  3
   3450   3444   3445   3461     1  0.0000000  4.9162000  2
   3450   3444   3445   3461     1  0.0000000  0.6024960  3
   3450   3444   3443   3451     1  0.0000000  4.9162000  2
   3450   3444   3443   3451     1  0.0000000  0.6024960  3
   3451   3443   3440   3452     1  0.0000000  4.9162000  2
   3451   3443   3440   3452     1  0.0000000  0.6024960  3
   3452   3440   3439   3453     1  0.0000000  0.6508444  3
   3452   3440   3439   3461     1  0.0000000  4.9162000  2
   3452   3440   3439   3461     1  0.0000000  0.6024960  3
   3459   3453   3439   3461     1  0.0000000  4.9162000  2
   3459   3453   3439   3461     1  0.0000000  0.6024960  3
   3462   3463   3466   3467     1  180.0000771  0.8368000  1
   3462   3463   3466   3467     1  180.0000771  1.0460000  2
   3462   3463   3466   3467     1  0.0000000  0.7531200  3
   3462   3463   3466   3474     1  0.0000000  0.6508444  3
   3462   3484   3468   3467     1  180.0000771  0.4184000  2
   3462   3484   3468   3467     1  0.0000000  1.6024720  3
   3462   3484   3468   3472     1  180.0000771  5.6484000  1
   3462   3484   3468   3472     1  180.0000771  3.5564000  2
   3462   3484   3468   3472     1  0.0000000  0.4184000  3
   3463   3462   3476   3482     1  0.0000000  0.6508444  3
   3463   3462   3484   3468     1  180.0000771  0.4184000  2
   3463   3462   3484   3468     1  0.0000000  1.6024720  3
   3463   3466   3467   3468     1  180.0000771  0.8368000  1
   3463   3466   3467   3468     1  180.0000771  1.0460000  2
   3463   3466   3467   3468     1  0.0000000  0.7531200  3
   3463   3466   3467   3473     1  0.0000000  0.6508444  3
   3466   3463   3462   3476     1  180.0000771  0.8368000  1
   3466   3463   3462   3476     1  180.0000771  1.0460000  2
   3466   3463   3462   3476     1  0.0000000  0.7531200  3
   3466   3463   3462   3484     1  0.0000000  0.6508444  3
   3466   3467   3468   3472     1  0.0000000  0.6508444  3
   3466   3467   3468   3484     1  0.0000000  0.6508444  3
   3467   3466   3463   3475     1  0.0000000  0.6508444  3
   3468   3467   3466   3474     1  0.0000000  0.6508444  3
   3468   3484   3462   3476     1  180.0000771  0.4184000  2
   3468   3484   3462   3476     1  0.0000000  1.6024720  3
   3472   3468   3467   3473     1  0.0000000  4.9162000  2
   3472   3468   3467   3473     1  0.0000000  0.6024960  3
   3473   3467   3466   3474     1  0.0000000  4.9162000  2
   3473   3467   3466   3474     1  0.0000000  0.6024960  3
   3473   3467   3468   3484     1  0.0000000  4.9162000  2
   3473   3467   3468   3484     1  0.0000000  0.6024960  3
   3474   3466   3463   3475     1  0.0000000  4.9162000  2
   3474   3466   3463   3475     1  0.0000000  0.6024960  3
   3475   3463   3462   3476     1  0.0000000  0.6508444  3
   3475   3463   3462   3484     1  0.0000000  4.9162000  2
   3475   3463   3462   3484     1  0.0000000  0.6024960  3
   3482   3476   3462   3484     1  0.0000000  4.9162000  2
   3482   3476   3462   3484     1  0.0000000  0.6024960  3
   3485   3486   3489   3490     1  180.0000771  0.8368000  1
   3485   3486   3489   3490     1  180.0000771  1.0460000  2
   3485   3486   3489   3490     1  0.0000000  0.7531200  3
   3485   3486   3489   3497     1  0.0000000  0.6508444  3
   3485   3507   3491   3495     1  180.0000771  5.6484000  1
   3485   3507   3491   3495     1  180.0000771  3.5564000  2
   3485   3507   3491   3495     1  0.0000000  0.4184000  3
   3485   3507   3491   3490     1  180.0000771  0.4184000  2
   3485   3507   3491   3490     1  0.0000000  1.6024720  3
   3486   3489   3490   3491     1  180.0000771  0.8368000  1
   3486   3489   3490   3491     1  180.0000771  1.0460000  2
   3486   3489   3490   3491     1  0.0000000  0.7531200  3
   3486   3489   3490   3496     1  0.0000000  0.6508444  3
   3486   3485   3499   3505     1  0.0000000  0.6508444  3
   3486   3485   3507   3491     1  180.0000771  0.4184000  2
   3486   3485   3507   3491     1  0.0000000  1.6024720  3
   3489   3490   3491   3495     1  0.0000000  0.6508444  3
   3489   3490   3491   3507     1  0.0000000  0.6508444  3
   3489   3486   3485   3499     1  180.0000771  0.8368000  1
   3489   3486   3485   3499     1  180.0000771  1.0460000  2
   3489   3486   3485   3499     1  0.0000000  0.7531200  3
   3489   3486   3485   3507     1  0.0000000  0.6508444  3
   3490   3489   3486   3498     1  0.0000000  0.6508444  3
   3491   3507   3485   3499     1  180.0000771  0.4184000  2
   3491   3507   3485   3499     1  0.0000000  1.6024720  3
   3491   3490   3489   3497     1  0.0000000  0.6508444  3
   3495   3491   3490   3496     1  0.0000000  4.9162000  2
   3495   3491   3490   3496     1  0.0000000  0.6024960  3
   3496   3490   3491   3507     1  0.0000000  4.9162000  2
   3496   3490   3491   3507     1  0.0000000  0.6024960  3
   3496   3490   3489   3497     1  0.0000000  4.9162000  2
   3496   3490   3489   3497     1  0.0000000  0.6024960  3
   3497   3489   3486   3498     1  0.0000000  4.9162000  2
   3497   3489   3486   3498     1  0.0000000  0.6024960  3
   3498   3486   3485   3499     1  0.0000000  0.6508444  3
   3498   3486   3485   3507     1  0.0000000  4.9162000  2
   3498   3486   3485   3507     1  0.0000000  0.6024960  3
   3505   3499   3485   3507     1  0.0000000  4.9162000  2
   3505   3499   3485   3507     1  0.0000000  0.6024960  3
   3508   3509   3512   3513     1  180.0000771  0.8368000  1
   3508   3509   3512   3513     1  180.0000771  1.0460000  2
   3508   3509   3512   3513     1  0.0000000  0.7531200  3
   3508   3509   3512   3520     1  0.0000000  0.6508444  3
   3508   3530   3514   3513     1  180.0000771  0.4184000  2
   3508   3530   3514   3513     1  0.0000000  1.6024720  3
   3508   3530   3514   3518     1  180.0000771  5.6484000  1
   3508   3530   3514   3518     1  180.0000771  3.5564000  2
   3508   3530   3514   3518     1  0.0000000  0.4184000  3
   3509   3508   3522   3528     1  0.0000000  0.6508444  3
   3509   3508   3530   3514     1  180.0000771  0.4184000  2
   3509   3508   3530   3514     1  0.0000000  1.6024720  3
   3509   3512   3513   3514     1  180.0000771  0.8368000  1
   3509   3512   3513   3514     1  180.0000771  1.0460000  2
   3509   3512   3513   3514     1  0.0000000  0.7531200  3
   3509   3512   3513   3519     1  0.0000000  0.6508444  3
   3512   3509   3508   3522     1  180.0000771  0.8368000  1
   3512   3509   3508   3522     1  180.0000771  1.0460000  2
   3512   3509   3508   3522     1  0.0000000  0.7531200  3
   3512   3509   3508   3530     1  0.0000000  0.6508444  3
   3512   3513   3514   3518     1  0.0000000  0.6508444  3
   3512   3513   3514   3530     1  0.0000000  0.6508444  3
   3513   3512   3509   3521     1  0.0000000  0.6508444  3
   3514   3513   3512   3520     1  0.0000000  0.6508444  3
   3514   3530   3508   3522     1  180.0000771  0.4184000  2
   3514   3530   3508   3522     1  0.0000000  1.6024720  3
   3518   3514   3513   3519     1  0.0000000  4.9162000  2
   3518   3514   3513   3519     1  0.0000000  0.6024960  3
   3519   3513   3512   3520     1  0.0000000  4.9162000  2
   3519   3513   3512   3520     1  0.0000000  0.6024960  3
   3519   3513   3514   3530     1  0.0000000  4.9162000  2
   3519   3513   3514   3530     1  0.0000000  0.6024960  3
   3520   3512   3509   3521     1  0.0000000  4.9162000  2
   3520   3512   3509   3521     1  0.0000000  0.6024960  3
   3521   3509   3508   3522     1  0.0000000  0.6508444  3
   3521   3509   3508   3530     1  0.0000000  4.9162000  2
   3521   3509   3508   3530     1  0.0000000  0.6024960  3
   3528   3522   3508   3530     1  0.0000000  4.9162000  2
   3528   3522   3508   3530     1  0.0000000  0.6024960  3
   3531   3532   3535   3536     1  180.0000771  0.8368000  1
   3531   3532   3535   3536     1  180.0000771  1.0460000  2
   3531   3532   3535   3536     1  0.0000000  0.7531200  3
   3531   3532   3535   3543     1  0.0000000  0.6508444  3
   3531   3553   3537   3541     1  180.0000771  5.6484000  1
   3531   3553   3537   3541     1  180.0000771  3.5564000  2
   3531   3553   3537   3541     1  0.0000000  0.4184000  3
   3531   3553   3537   3536     1  180.0000771  0.4184000  2
   3531   3553   3537   3536     1  0.0000000  1.6024720  3
   3532   3535   3536   3537     1  180.0000771  0.8368000  1
   3532   3535   3536   3537     1  180.0000771  1.0460000  2
   3532   3535   3536   3537     1  0.0000000  0.7531200  3
   3532   3535   3536   3542     1  0.0000000  0.6508444  3
   3532   3531   3545   3551     1  0.0000000  0.6508444  3
   3532   3531   3553   3537     1  180.0000771  0.4184000  2
   3532   3531   3553   3537     1  0.0000000  1.6024720  3
   3535   3536   3537   3541     1  0.0000000  0.6508444  3
   3535   3536   3537   3553     1  0.0000000  0.6508444  3
   3535   3532   3531   3545     1  180.0000771  0.8368000  1
   3535   3532   3531   3545     1  180.0000771  1.0460000  2
   3535   3532   3531   3545     1  0.0000000  0.7531200  3
   3535   3532   3531   3553     1  0.0000000  0.6508444  3
   3536   3535   3532   3544     1  0.0000000  0.6508444  3
   3537   3553   3531   3545     1  180.0000771  0.4184000  2
   3537   3553   3531   3545     1  0.0000000  1.6024720  3
   3537   3536   3535   3543     1  0.0000000  0.6508444  3
   3541   3537   3536   3542     1  0.0000000  4.9162000  2
   3541   3537   3536   3542     1  0.0000000  0.6024960  3
   3542   3536   3537   3553     1  0.0000000  4.9162000  2
   3542   3536   3537   3553     1  0.0000000  0.6024960  3
   3542   3536   3535   3543     1  0.0000000  4.9162000  2
   3542   3536   3535   3543     1  0.0000000  0.6024960  3
   3543   3535   3532   3544     1  0.0000000  4.9162000  2
   3543   3535   3532   3544     1  0.0000000  0.6024960  3
   3544   3532   3531   3545     1  0.0000000  0.6508444  3
   3544   3532   3531   3553     1  0.0000000  4.9162000  2
   3544   3532   3531   3553     1  0.0000000  0.6024960  3
   3551   3545   3531   3553     1  0.0000000  4.9162000  2
   3551   3545   3531   3553     1  0.0000000  0.6024960  3
   3554   3555   3558   3559     1  180.0000771  0.8368000  1
   3554   3555   3558   3559     1  180.0000771  1.0460000  2
   3554   3555   3558   3559     1  0.0000000  0.7531200  3
   3554   3555   3558   3566     1  0.0000000  0.6508444  3
   3554   3576   3560   3559     1  180.0000771  0.4184000  2
   3554   3576   3560   3559     1  0.0000000  1.6024720  3
   3554   3576   3560   3564     1  180.0000771  5.6484000  1
   3554   3576   3560   3564     1  180.0000771  3.5564000  2
   3554   3576   3560   3564     1  0.0000000  0.4184000  3
   3555   3554   3568   3574     1  0.0000000  0.6508444  3
   3555   3554   3576   3560     1  180.0000771  0.4184000  2
   3555   3554   3576   3560     1  0.0000000  1.6024720  3
   3555   3558   3559   3560     1  180.0000771  0.8368000  1
   3555   3558   3559   3560     1  180.0000771  1.0460000  2
   3555   3558   3559   3560     1  0.0000000  0.7531200  3
   3555   3558   3559   3565     1  0.0000000  0.6508444  3
   3558   3555   3554   3568     1  180.0000771  0.8368000  1
   3558   3555   3554   3568     1  180.0000771  1.0460000  2
   3558   3555   3554   3568     1  0.0000000  0.7531200  3
   3558   3555   3554   3576     1  0.0000000  0.6508444  3
   3558   3559   3560   3564     1  0.0000000  0.6508444  3
   3558   3559   3560   3576     1  0.0000000  0.6508444  3
   3559   3558   3555   3567     1  0.0000000  0.6508444  3
   3560   3559   3558   3566     1  0.0000000  0.6508444  3
   3560   3576   3554   3568     1  180.0000771  0.4184000  2
   3560   3576   3554   3568     1  0.0000000  1.6024720  3
   3564   3560   3559   3565     1  0.0000000  4.9162000  2
   3564   3560   3559   3565     1  0.0000000  0.6024960  3
   3565   3559   3558   3566     1  0.0000000  4.9162000  2
   3565   3559   3558   3566     1  0.0000000  0.6024960  3
   3565   3559   3560   3576     1  0.0000000  4.9162000  2
   3565   3559   3560   3576     1  0.0000000  0.6024960  3
   3566   3558   3555   3567     1  0.0000000  4.9162000  2
   3566   3558   3555   3567     1  0.0000000  0.6024960  3
   3567   3555   3554   3568     1  0.0000000  0.6508444  3
   3567   3555   3554   3576     1  0.0000000  4.9162000  2
   3567   3555   3554   3576     1  0.0000000  0.6024960  3
   3574   3568   3554   3576     1  0.0000000  4.9162000  2
   3574   3568   3554   3576     1  0.0000000  0.6024960  3
   3577   3578   3581   3582     1  180.0000771  0.8368000  1
   3577   3578   3581   3582     1  180.0000771  1.0460000  2
   3577   3578   3581   3582     1  0.0000000  0.7531200  3
   3577   3578   3581   3589     1  0.0000000  0.6508444  3
   3577   3599   3583   3587     1  180.0000771  5.6484000  1
   3577   3599   3583   3587     1  180.0000771  3.5564000  2
   3577   3599   3583   3587     1  0.0000000  0.4184000  3
   3577   3599   3583   3582     1  180.0000771  0.4184000  2
   3577   3599   3583   3582     1  0.0000000  1.6024720  3
   3578   3581   3582   3583     1  180.0000771  0.8368000  1
   3578   3581   3582   3583     1  180.0000771  1.0460000  2
   3578   3581   3582   3583     1  0.0000000  0.7531200  3
   3578   3581   3582   3588     1  0.0000000  0.6508444  3
   3578   3577   3591   3597     1  0.0000000  0.6508444  3
   3578   3577   3599   3583     1  180.0000771  0.4184000  2
   3578   3577   3599   3583     1  0.0000000  1.6024720  3
   3581   3582   3583   3587     1  0.0000000  0.6508444  3
   3581   3582   3583   3599     1  0.0000000  0.6508444  3
   3581   3578   3577   3591     1  180.0000771  0.8368000  1
   3581   3578   3577   3591     1  180.0000771  1.0460000  2
   3581   3578   3577   3591     1  0.0000000  0.7531200  3
   3581   3578   3577   3599     1  0.0000000  0.6508444  3
   3582   3581   3578   3590     1  0.0000000  0.6508444  3
   3583   3599   3577   3591     1  180.0000771  0.4184000  2
   3583   3599   3577   3591     1  0.0000000  1.6024720  3
   3583   3582   3581   3589     1  0.0000000  0.6508444  3
   3587   3583   3582   3588     1  0.0000000  4.9162000  2
   3587   3583   3582   3588     1  0.0000000  0.6024960  3
   3588   3582   3583   3599     1  0.0000000  4.9162000  2
   3588   3582   3583   3599     1  0.0000000  0.6024960  3
   3588   3582   3581   3589     1  0.0000000  4.9162000  2
   3588   3582   3581   3589     1  0.0000000  0.6024960  3
   3589   3581   3578   3590     1  0.0000000  4.9162000  2
   3589   3581   3578   3590     1  0.0000000  0.6024960  3
   3590   3578   3577   3591     1  0.0000000  0.6508444  3
   3590   3578   3577   3599     1  0.0000000  4.9162000  2
   3590   3578   3577   3599     1  0.0000000  0.6024960  3
   3597   3591   3577   3599     1  0.0000000  4.9162000  2
   3597   3591   3577   3599     1  0.0000000  0.6024960  3
   3600   3601   3604   3605     1  180.0000771  0.8368000  1
   3600   3601   3604   3605     1  180.0000771  1.0460000  2
   3600   3601   3604   3605     1  0.0000000  0.7531200  3
   3600   3601   3604   3612     1  0.0000000  0.6508444  3
   3600   3622   3606   3605     1  180.0000771  0.4184000  2
   3600   3622   3606   3605     1  0.0000000  1.6024720  3
   3600   3622   3606   3610     1  180.0000771  5.6484000  1
   3600   3622   3606   3610     1  180.0000771  3.5564000  2
   3600   3622   3606   3610     1  0.0000000  0.4184000  3
   3601   3600   3614   3620     1  0.0000000  0.6508444  3
   3601   3600   3622   3606     1  180.0000771  0.4184000  2
   3601   3600   3622   3606     1  0.0000000  1.6024720  3
   3601   3604   3605   3606     1  180.0000771  0.8368000  1
   3601   3604   3605   3606     1  180.0000771  1.0460000  2
   3601   3604   3605   3606     1  0.0000000  0.7531200  3
   3601   3604   3605   3611     1  0.0000000  0.6508444  3
   3604   3601   3600   3614     1  180.0000771  0.8368000  1
   3604   3601   3600   3614     1  180.0000771  1.0460000  2
   3604   3601   3600   3614     1  0.0000000  0.7531200  3
   3604   3601   3600   3622     1  0.0000000  0.6508444  3
   3604   3605   3606   3610     1  0.0000000  0.6508444  3
   3604   3605   3606   3622     1  0.0000000  0.6508444  3
   3605   3604   3601   3613     1  0.0000000  0.6508444  3
   3606   3605   3604   3612     1  0.0000000  0.6508444  3
   3606   3622   3600   3614     1  180.0000771  0.4184000  2
   3606   3622   3600   3614     1  0.0000000  1.6024720  3
   3610   3606   3605   3611     1  0.0000000  4.9162000  2
   3610   3606   3605   3611     1  0.0000000  0.6024960  3
   3611   3605   3604   3612     1  0.0000000  4.9162000  2
   3611   3605   3604   3612     1  0.0000000  0.6024960  3
   3611   3605   3606   3622     1  0.0000000  4.9162000  2
   3611   3605   3606   3622     1  0.0000000  0.6024960  3
   3612   3604   3601   3613     1  0.0000000  4.9162000  2
   3612   3604   3601   3613     1  0.0000000  0.6024960  3
   3613   3601   3600   3614     1  0.0000000  0.6508444  3
   3613   3601   3600   3622     1  0.0000000  4.9162000  2
   3613   3601   3600   3622     1  0.0000000  0.6024960  3
   3620   3614   3600   3622     1  0.0000000  4.9162000  2
   3620   3614   3600   3622     1  0.0000000  0.6024960  3
   3623   3624   3627   3628     1  180.0000771  0.8368000  1
   3623   3624   3627   3628     1  180.0000771  1.0460000  2
   3623   3624   3627   3628     1  0.0000000  0.7531200  3
   3623   3624   3627   3635     1  0.0000000  0.6508444  3
   3623   3645   3629   3633     1  180.0000771  5.6484000  1
   3623   3645   3629   3633     1  180.0000771  3.5564000  2
   3623   3645   3629   3633     1  0.0000000  0.4184000  3
   3623   3645   3629   3628     1  180.0000771  0.4184000  2
   3623   3645   3629   3628     1  0.0000000  1.6024720  3
   3624   3627   3628   3629     1  180.0000771  0.8368000  1
   3624   3627   3628   3629     1  180.0000771  1.0460000  2
   3624   3627   3628   3629     1  0.0000000  0.7531200  3
   3624   3627   3628   3634     1  0.0000000  0.6508444  3
   3624   3623   3637   3643     1  0.0000000  0.6508444  3
   3624   3623   3645   3629     1  180.0000771  0.4184000  2
   3624   3623   3645   3629     1  0.0000000  1.6024720  3
   3627   3628   3629   3633     1  0.0000000  0.6508444  3
   3627   3628   3629   3645     1  0.0000000  0.6508444  3
   3627   3624   3623   3637     1  180.0000771  0.8368000  1
   3627   3624   3623   3637     1  180.0000771  1.0460000  2
   3627   3624   3623   3637     1  0.0000000  0.7531200  3
   3627   3624   3623   3645     1  0.0000000  0.6508444  3
   3628   3627   3624   3636     1  0.0000000  0.6508444  3
   3629   3645   3623   3637     1  180.0000771  0.4184000  2
   3629   3645   3623   3637     1  0.0000000  1.6024720  3
   3629   3628   3627   3635     1  0.0000000  0.6508444  3
   3633   3629   3628   3634     1  0.0000000  4.9162000  2
   3633   3629   3628   3634     1  0.0000000  0.6024960  3
   3634   3628   3629   3645     1  0.0000000  4.9162000  2
   3634   3628   3629   3645     1  0.0000000  0.6024960  3
   3634   3628   3627   3635     1  0.0000000  4.9162000  2
   3634   3628   3627   3635     1  0.0000000  0.6024960  3
   3635   3627   3624   3636     1  0.0000000  4.9162000  2
   3635   3627   3624   3636     1  0.0000000  0.6024960  3
   3636   3624   3623   3637     1  0.0000000  0.6508444  3
   3636   3624   3623   3645     1  0.0000000  4.9162000  2
   3636   3624   3623   3645     1  0.0000000  0.6024960  3
   3643   3637   3623   3645     1  0.0000000  4.9162000  2
   3643   3637   3623   3645     1  0.0000000  0.6024960  3
   3646   3647   3650   3651     1  180.0000771  0.8368000  1
   3646   3647   3650   3651     1  180.0000771  1.0460000  2
   3646   3647   3650   3651     1  0.0000000  0.7531200  3
   3646   3647   3650   3658     1  0.0000000  0.6508444  3
   3646   3668   3652   3651     1  180.0000771  0.4184000  2
   3646   3668   3652   3651     1  0.0000000  1.6024720  3
   3646   3668   3652   3656     1  180.0000771  5.6484000  1
   3646   3668   3652   3656     1  180.0000771  3.5564000  2
   3646   3668   3652   3656     1  0.0000000  0.4184000  3
   3647   3646   3660   3666     1  0.0000000  0.6508444  3
   3647   3646   3668   3652     1  180.0000771  0.4184000  2
   3647   3646   3668   3652     1  0.0000000  1.6024720  3
   3647   3650   3651   3652     1  180.0000771  0.8368000  1
   3647   3650   3651   3652     1  180.0000771  1.0460000  2
   3647   3650   3651   3652     1  0.0000000  0.7531200  3
   3647   3650   3651   3657     1  0.0000000  0.6508444  3
   3650   3647   3646   3660     1  180.0000771  0.8368000  1
   3650   3647   3646   3660     1  180.0000771  1.0460000  2
   3650   3647   3646   3660     1  0.0000000  0.7531200  3
   3650   3647   3646   3668     1  0.0000000  0.6508444  3
   3650   3651   3652   3656     1  0.0000000  0.6508444  3
   3650   3651   3652   3668     1  0.0000000  0.6508444  3
   3651   3650   3647   3659     1  0.0000000  0.6508444  3
   3652   3651   3650   3658     1  0.0000000  0.6508444  3
   3652   3668   3646   3660     1  180.0000771  0.4184000  2
   3652   3668   3646   3660     1  0.0000000  1.6024720  3
   3656   3652   3651   3657     1  0.0000000  4.9162000  2
   3656   3652   3651   3657     1  0.0000000  0.6024960  3
   3657   3651   3650   3658     1  0.0000000  4.9162000  2
   3657   3651   3650   3658     1  0.0000000  0.6024960  3
   3657   3651   3652   3668     1  0.0000000  4.9162000  2
   3657   3651   3652   3668     1  0.0000000  0.6024960  3
   3658   3650   3647   3659     1  0.0000000  4.9162000  2
   3658   3650   3647   3659     1  0.0000000  0.6024960  3
   3659   3647   3646   3660     1  0.0000000  0.6508444  3
   3659   3647   3646   3668     1  0.0000000  4.9162000  2
   3659   3647   3646   3668     1  0.0000000  0.6024960  3
   3666   3660   3646   3668     1  0.0000000  4.9162000  2
   3666   3660   3646   3668     1  0.0000000  0.6024960  3
   3669   3670   3673   3674     1  180.0000771  0.8368000  1
   3669   3670   3673   3674     1  180.0000771  1.0460000  2
   3669   3670   3673   3674     1  0.0000000  0.7531200  3
   3669   3670   3673   3681     1  0.0000000  0.6508444  3
   3669   3691   3675   3679     1  180.0000771  5.6484000  1
   3669   3691   3675   3679     1  180.0000771  3.5564000  2
   3669   3691   3675   3679     1  0.0000000  0.4184000  3
   3669   3691   3675   3674     1  180.0000771  0.4184000  2
   3669   3691   3675   3674     1  0.0000000  1.6024720  3
   3670   3673   3674   3675     1  180.0000771  0.8368000  1
   3670   3673   3674   3675     1  180.0000771  1.0460000  2
   3670   3673   3674   3675     1  0.0000000  0.7531200  3
   3670   3673   3674   3680     1  0.0000000  0.6508444  3
   3670   3669   3683   3689     1  0.0000000  0.6508444  3
   3670   3669   3691   3675     1  180.0000771  0.4184000  2
   3670   3669   3691   3675     1  0.0000000  1.6024720  3
   3673   3674   3675   3679     1  0.0000000  0.6508444  3
   3673   3674   3675   3691     1  0.0000000  0.6508444  3
   3673   3670   3669   3683     1  180.0000771  0.8368000  1
   3673   3670   3669   3683     1  180.0000771  1.0460000  2
   3673   3670   3669   3683     1  0.0000000  0.7531200  3
   3673   3670   3669   3691     1  0.0000000  0.6508444  3
   3674   3673   3670   3682     1  0.0000000  0.6508444  3
   3675   3691   3669   3683     1  180.0000771  0.4184000  2
   3675   3691   3669   3683     1  0.0000000  1.6024720  3
   3675   3674   3673   3681     1  0.0000000  0.6508444  3
   3679   3675   3674   3680     1  0.0000000  4.9162000  2
   3679   3675   3674   3680     1  0.0000000  0.6024960  3
   3680   3674   3675   3691     1  0.0000000  4.9162000  2
   3680   3674   3675   3691     1  0.0000000  0.6024960  3
   3680   3674   3673   3681     1  0.0000000  4.9162000  2
   3680   3674   3673   3681     1  0.0000000  0.6024960  3
   3681   3673   3670   3682     1  0.0000000  4.9162000  2
   3681   3673   3670   3682     1  0.0000000  0.6024960  3
   3682   3670   3669   3683     1  0.0000000  0.6508444  3
   3682   3670   3669   3691     1  0.0000000  4.9162000  2
   3682   3670   3669   3691     1  0.0000000  0.6024960  3
   3689   3683   3669   3691     1  0.0000000  4.9162000  2
   3689   3683   3669   3691     1  0.0000000  0.6024960  3
   3692   3693   3696   3697     1  180.0000771  0.8368000  1
   3692   3693   3696   3697     1  180.0000771  1.0460000  2
   3692   3693   3696   3697     1  0.0000000  0.7531200  3
   3692   3693   3696   3704     1  0.0000000  0.6508444  3
   3692   3714   3698   3697     1  180.0000771  0.4184000  2
   3692   3714   3698   3697     1  0.0000000  1.6024720  3
   3692   3714   3698   3702     1  180.0000771  5.6484000  1
   3692   3714   3698   3702     1  180.0000771  3.5564000  2
   3692   3714   3698   3702     1  0.0000000  0.4184000  3
   3693   3692   3706   3712     1  0.0000000  0.6508444  3
   3693   3692   3714   3698     1  180.0000771  0.4184000  2
   3693   3692   3714   3698     1  0.0000000  1.6024720  3
   3693   3696   3697   3698     1  180.0000771  0.8368000  1
   3693   3696   3697   3698     1  180.0000771  1.0460000  2
   3693   3696   3697   3698     1  0.0000000  0.7531200  3
   3693   3696   3697   3703     1  0.0000000  0.6508444  3
   3696   3693   3692   3706     1  180.0000771  0.8368000  1
   3696   3693   3692   3706     1  180.0000771  1.0460000  2
   3696   3693   3692   3706     1  0.0000000  0.7531200  3
   3696   3693   3692   3714     1  0.0000000  0.6508444  3
   3696   3697   3698   3702     1  0.0000000  0.6508444  3
   3696   3697   3698   3714     1  0.0000000  0.6508444  3
   3697   3696   3693   3705     1  0.0000000  0.6508444  3
   3698   3697   3696   3704     1  0.0000000  0.6508444  3
   3698   3714   3692   3706     1  180.0000771  0.4184000  2
   3698   3714   3692   3706     1  0.0000000  1.6024720  3
   3702   3698   3697   3703     1  0.0000000  4.9162000  2
   3702   3698   3697   3703     1  0.0000000  0.6024960  3
   3703   3697   3696   3704     1  0.0000000  4.9162000  2
   3703   3697   3696   3704     1  0.0000000  0.6024960  3
   3703   3697   3698   3714     1  0.0000000  4.9162000  2
   3703   3697   3698   3714     1  0.0000000  0.6024960  3
   3704   3696   3693   3705     1  0.0000000  4.9162000  2
   3704   3696   3693   3705     1  0.0000000  0.6024960  3
   3705   3693   3692   3706     1  0.0000000  0.6508444  3
   3705   3693   3692   3714     1  0.0000000  4.9162000  2
   3705   3693   3692   3714     1  0.0000000  0.6024960  3
   3712   3706   3692   3714     1  0.0000000  4.9162000  2
   3712   3706   3692   3714     1  0.0000000  0.6024960  3
   3715   3716   3719   3720     1  180.0000771  0.8368000  1
   3715   3716   3719   3720     1  180.0000771  1.0460000  2
   3715   3716   3719   3720     1  0.0000000  0.7531200  3
   3715   3716   3719   3727     1  0.0000000  0.6508444  3
   3715   3737   3721   3725     1  180.0000771  5.6484000  1
   3715   3737   3721   3725     1  180.0000771  3.5564000  2
   3715   3737   3721   3725     1  0.0000000  0.4184000  3
   3715   3737   3721   3720     1  180.0000771  0.4184000  2
   3715   3737   3721   3720     1  0.0000000  1.6024720  3
   3716   3719   3720   3721     1  180.0000771  0.8368000  1
   3716   3719   3720   3721     1  180.0000771  1.0460000  2
   3716   3719   3720   3721     1  0.0000000  0.7531200  3
   3716   3719   3720   3726     1  0.0000000  0.6508444  3
   3716   3715   3729   3735     1  0.0000000  0.6508444  3
   3716   3715   3737   3721     1  180.0000771  0.4184000  2
   3716   3715   3737   3721     1  0.0000000  1.6024720  3
   3719   3720   3721   3725     1  0.0000000  0.6508444  3
   3719   3720   3721   3737     1  0.0000000  0.6508444  3
   3719   3716   3715   3729     1  180.0000771  0.8368000  1
   3719   3716   3715   3729     1  180.0000771  1.0460000  2
   3719   3716   3715   3729     1  0.0000000  0.7531200  3
   3719   3716   3715   3737     1  0.0000000  0.6508444  3
   3720   3719   3716   3728     1  0.0000000  0.6508444  3
   3721   3737   3715   3729     1  180.0000771  0.4184000  2
   3721   3737   3715   3729     1  0.0000000  1.6024720  3
   3721   3720   3719   3727     1  0.0000000  0.6508444  3
   3725   3721   3720   3726     1  0.0000000  4.9162000  2
   3725   3721   3720   3726     1  0.0000000  0.6024960  3
   3726   3720   3721   3737     1  0.0000000  4.9162000  2
   3726   3720   3721   3737     1  0.0000000  0.6024960  3
   3726   3720   3719   3727     1  0.0000000  4.9162000  2
   3726   3720   3719   3727     1  0.0000000  0.6024960  3
   3727   3719   3716   3728     1  0.0000000  4.9162000  2
   3727   3719   3716   3728     1  0.0000000  0.6024960  3
   3728   3716   3715   3729     1  0.0000000  0.6508444  3
   3728   3716   3715   3737     1  0.0000000  4.9162000  2
   3728   3716   3715   3737     1  0.0000000  0.6024960  3
   3735   3729   3715   3737     1  0.0000000  4.9162000  2
   3735   3729   3715   3737     1  0.0000000  0.6024960  3
   3738   3739   3742   3743     1  180.0000771  0.8368000  1
   3738   3739   3742   3743     1  180.0000771  1.0460000  2
   3738   3739   3742   3743     1  0.0000000  0.7531200  3
   3738   3739   3742   3750     1  0.0000000  0.6508444  3
   3738   3760   3744   3743     1  180.0000771  0.4184000  2
   3738   3760   3744   3743     1  0.0000000  1.6024720  3
   3738   3760   3744   3748     1  180.0000771  5.6484000  1
   3738   3760   3744   3748     1  180.0000771  3.5564000  2
   3738   3760   3744   3748     1  0.0000000  0.4184000  3
   3739   3738   3752   3758     1  0.0000000  0.6508444  3
   3739   3738   3760   3744     1  180.0000771  0.4184000  2
   3739   3738   3760   3744     1  0.0000000  1.6024720  3
   3739   3742   3743   3744     1  180.0000771  0.8368000  1
   3739   3742   3743   3744     1  180.0000771  1.0460000  2
   3739   3742   3743   3744     1  0.0000000  0.7531200  3
   3739   3742   3743   3749     1  0.0000000  0.6508444  3
   3742   3739   3738   3752     1  180.0000771  0.8368000  1
   3742   3739   3738   3752     1  180.0000771  1.0460000  2
   3742   3739   3738   3752     1  0.0000000  0.7531200  3
   3742   3739   3738   3760     1  0.0000000  0.6508444  3
   3742   3743   3744   3748     1  0.0000000  0.6508444  3
   3742   3743   3744   3760     1  0.0000000  0.6508444  3
   3743   3742   3739   3751     1  0.0000000  0.6508444  3
   3744   3743   3742   3750     1  0.0000000  0.6508444  3
   3744   3760   3738   3752     1  180.0000771  0.4184000  2
   3744   3760   3738   3752     1  0.0000000  1.6024720  3
   3748   3744   3743   3749     1  0.0000000  4.9162000  2
   3748   3744   3743   3749     1  0.0000000  0.6024960  3
   3749   3743   3742   3750     1  0.0000000  4.9162000  2
   3749   3743   3742   3750     1  0.0000000  0.6024960  3
   3749   3743   3744   3760     1  0.0000000  4.9162000  2
   3749   3743   3744   3760     1  0.0000000  0.6024960  3
   3750   3742   3739   3751     1  0.0000000  4.9162000  2
   3750   3742   3739   3751     1  0.0000000  0.6024960  3
   3751   3739   3738   3752     1  0.0000000  0.6508444  3
   3751   3739   3738   3760     1  0.0000000  4.9162000  2
   3751   3739   3738   3760     1  0.0000000  0.6024960  3
   3758   3752   3738   3760     1  0.0000000  4.9162000  2
   3758   3752   3738   3760     1  0.0000000  0.6024960  3
   3761   3762   3765   3766     1  180.0000771  0.8368000  1
   3761   3762   3765   3766     1  180.0000771  1.0460000  2
   3761   3762   3765   3766     1  0.0000000  0.7531200  3
   3761   3762   3765   3773     1  0.0000000  0.6508444  3
   3761   3783   3767   3771     1  180.0000771  5.6484000  1
   3761   3783   3767   3771     1  180.0000771  3.5564000  2
   3761   3783   3767   3771     1  0.0000000  0.4184000  3
   3761   3783   3767   3766     1  180.0000771  0.4184000  2
   3761   3783   3767   3766     1  0.0000000  1.6024720  3
   3762   3765   3766   3767     1  180.0000771  0.8368000  1
   3762   3765   3766   3767     1  180.0000771  1.0460000  2
   3762   3765   3766   3767     1  0.0000000  0.7531200  3
   3762   3765   3766   3772     1  0.0000000  0.6508444  3
   3762   3761   3775   3781     1  0.0000000  0.6508444  3
   3762   3761   3783   3767     1  180.0000771  0.4184000  2
   3762   3761   3783   3767     1  0.0000000  1.6024720  3
   3765   3766   3767   3771     1  0.0000000  0.6508444  3
   3765   3766   3767   3783     1  0.0000000  0.6508444  3
   3765   3762   3761   3775     1  180.0000771  0.8368000  1
   3765   3762   3761   3775     1  180.0000771  1.0460000  2
   3765   3762   3761   3775     1  0.0000000  0.7531200  3
   3765   3762   3761   3783     1  0.0000000  0.6508444  3
   3766   3765   3762   3774     1  0.0000000  0.6508444  3
   3767   3783   3761   3775     1  180.0000771  0.4184000  2
   3767   3783   3761   3775     1  0.0000000  1.6024720  3
   3767   3766   3765   3773     1  0.0000000  0.6508444  3
   3771   3767   3766   3772     1  0.0000000  4.9162000  2
   3771   3767   3766   3772     1  0.0000000  0.6024960  3
   3772   3766   3767   3783     1  0.0000000  4.9162000  2
   3772   3766   3767   3783     1  0.0000000  0.6024960  3
   3772   3766   3765   3773     1  0.0000000  4.9162000  2
   3772   3766   3765   3773     1  0.0000000  0.6024960  3
   3773   3765   3762   3774     1  0.0000000  4.9162000  2
   3773   3765   3762   3774     1  0.0000000  0.6024960  3
   3774   3762   3761   3775     1  0.0000000  0.6508444  3
   3774   3762   3761   3783     1  0.0000000  4.9162000  2
   3774   3762   3761   3783     1  0.0000000  0.6024960  3
   3781   3775   3761   3783     1  0.0000000  4.9162000  2
   3781   3775   3761   3783     1  0.0000000  0.6024960  3
   3784   3785   3788   3789     1  180.0000771  0.8368000  1
   3784   3785   3788   3789     1  180.0000771  1.0460000  2
   3784   3785   3788   3789     1  0.0000000  0.7531200  3
   3784   3785   3788   3796     1  0.0000000  0.6508444  3
   3784   3806   3790   3789     1  180.0000771  0.4184000  2
   3784   3806   3790   3789     1  0.0000000  1.6024720  3
   3784   3806   3790   3794     1  180.0000771  5.6484000  1
   3784   3806   3790   3794     1  180.0000771  3.5564000  2
   3784   3806   3790   3794     1  0.0000000  0.4184000  3
   3785   3784   3798   3804     1  0.0000000  0.6508444  3
   3785   3784   3806   3790     1  180.0000771  0.4184000  2
   3785   3784   3806   3790     1  0.0000000  1.6024720  3
   3785   3788   3789   3790     1  180.0000771  0.8368000  1
   3785   3788   3789   3790     1  180.0000771  1.0460000  2
   3785   3788   3789   3790     1  0.0000000  0.7531200  3
   3785   3788   3789   3795     1  0.0000000  0.6508444  3
   3788   3785   3784   3798     1  180.0000771  0.8368000  1
   3788   3785   3784   3798     1  180.0000771  1.0460000  2
   3788   3785   3784   3798     1  0.0000000  0.7531200  3
   3788   3785   3784   3806     1  0.0000000  0.6508444  3
   3788   3789   3790   3794     1  0.0000000  0.6508444  3
   3788   3789   3790   3806     1  0.0000000  0.6508444  3
   3789   3788   3785   3797     1  0.0000000  0.6508444  3
   3790   3789   3788   3796     1  0.0000000  0.6508444  3
   3790   3806   3784   3798     1  180.0000771  0.4184000  2
   3790   3806   3784   3798     1  0.0000000  1.6024720  3
   3794   3790   3789   3795     1  0.0000000  4.9162000  2
   3794   3790   3789   3795     1  0.0000000  0.6024960  3
   3795   3789   3788   3796     1  0.0000000  4.9162000  2
   3795   3789   3788   3796     1  0.0000000  0.6024960  3
   3795   3789   3790   3806     1  0.0000000  4.9162000  2
   3795   3789   3790   3806     1  0.0000000  0.6024960  3
   3796   3788   3785   3797     1  0.0000000  4.9162000  2
   3796   3788   3785   3797     1  0.0000000  0.6024960  3
   3797   3785   3784   3798     1  0.0000000  0.6508444  3
   3797   3785   3784   3806     1  0.0000000  4.9162000  2
   3797   3785   3784   3806     1  0.0000000  0.6024960  3
   3804   3798   3784   3806     1  0.0000000  4.9162000  2
   3804   3798   3784   3806     1  0.0000000  0.6024960  3
   3807   3808   3811   3812     1  180.0000771  0.8368000  1
   3807   3808   3811   3812     1  180.0000771  1.0460000  2
   3807   3808   3811   3812     1  0.0000000  0.7531200  3
   3807   3808   3811   3819     1  0.0000000  0.6508444  3
   3807   3829   3813   3817     1  180.0000771  5.6484000  1
   3807   3829   3813   3817     1  180.0000771  3.5564000  2
   3807   3829   3813   3817     1  0.0000000  0.4184000  3
   3807   3829   3813   3812     1  180.0000771  0.4184000  2
   3807   3829   3813   3812     1  0.0000000  1.6024720  3
   3808   3811   3812   3813     1  180.0000771  0.8368000  1
   3808   3811   3812   3813     1  180.0000771  1.0460000  2
   3808   3811   3812   3813     1  0.0000000  0.7531200  3
   3808   3811   3812   3818     1  0.0000000  0.6508444  3
   3808   3807   3821   3827     1  0.0000000  0.6508444  3
   3808   3807   3829   3813     1  180.0000771  0.4184000  2
   3808   3807   3829   3813     1  0.0000000  1.6024720  3
   3811   3812   3813   3817     1  0.0000000  0.6508444  3
   3811   3812   3813   3829     1  0.0000000  0.6508444  3
   3811   3808   3807   3821     1  180.0000771  0.8368000  1
   3811   3808   3807   3821     1  180.0000771  1.0460000  2
   3811   3808   3807   3821     1  0.0000000  0.7531200  3
   3811   3808   3807   3829     1  0.0000000  0.6508444  3
   3812   3811   3808   3820     1  0.0000000  0.6508444  3
   3813   3829   3807   3821     1  180.0000771  0.4184000  2
   3813   3829   3807   3821     1  0.0000000  1.6024720  3
   3813   3812   3811   3819     1  0.0000000  0.6508444  3
   3817   3813   3812   3818     1  0.0000000  4.9162000  2
   3817   3813   3812   3818     1  0.0000000  0.6024960  3
   3818   3812   3813   3829     1  0.0000000  4.9162000  2
   3818   3812   3813   3829     1  0.0000000  0.6024960  3
   3818   3812   3811   3819     1  0.0000000  4.9162000  2
   3818   3812   3811   3819     1  0.0000000  0.6024960  3
   3819   3811   3808   3820     1  0.0000000  4.9162000  2
   3819   3811   3808   3820     1  0.0000000  0.6024960  3
   3820   3808   3807   3821     1  0.0000000  0.6508444  3
   3820   3808   3807   3829     1  0.0000000  4.9162000  2
   3820   3808   3807   3829     1  0.0000000  0.6024960  3
   3827   3821   3807   3829     1  0.0000000  4.9162000  2
   3827   3821   3807   3829     1  0.0000000  0.6024960  3
   3830   3831   3834   3835     1  180.0000771  0.8368000  1
   3830   3831   3834   3835     1  180.0000771  1.0460000  2
   3830   3831   3834   3835     1  0.0000000  0.7531200  3
   3830   3831   3834   3842     1  0.0000000  0.6508444  3
   3830   3852   3836   3835     1  180.0000771  0.4184000  2
   3830   3852   3836   3835     1  0.0000000  1.6024720  3
   3830   3852   3836   3840     1  180.0000771  5.6484000  1
   3830   3852   3836   3840     1  180.0000771  3.5564000  2
   3830   3852   3836   3840     1  0.0000000  0.4184000  3
   3831   3830   3844   3850     1  0.0000000  0.6508444  3
   3831   3830   3852   3836     1  180.0000771  0.4184000  2
   3831   3830   3852   3836     1  0.0000000  1.6024720  3
   3831   3834   3835   3836     1  180.0000771  0.8368000  1
   3831   3834   3835   3836     1  180.0000771  1.0460000  2
   3831   3834   3835   3836     1  0.0000000  0.7531200  3
   3831   3834   3835   3841     1  0.0000000  0.6508444  3
   3834   3831   3830   3844     1  180.0000771  0.8368000  1
   3834   3831   3830   3844     1  180.0000771  1.0460000  2
   3834   3831   3830   3844     1  0.0000000  0.7531200  3
   3834   3831   3830   3852     1  0.0000000  0.6508444  3
   3834   3835   3836   3840     1  0.0000000  0.6508444  3
   3834   3835   3836   3852     1  0.0000000  0.6508444  3
   3835   3834   3831   3843     1  0.0000000  0.6508444  3
   3836   3835   3834   3842     1  0.0000000  0.6508444  3
   3836   3852   3830   3844     1  180.0000771  0.4184000  2
   3836   3852   3830   3844     1  0.0000000  1.6024720  3
   3840   3836   3835   3841     1  0.0000000  4.9162000  2
   3840   3836   3835   3841     1  0.0000000  0.6024960  3
   3841   3835   3834   3842     1  0.0000000  4.9162000  2
   3841   3835   3834   3842     1  0.0000000  0.6024960  3
   3841   3835   3836   3852     1  0.0000000  4.9162000  2
   3841   3835   3836   3852     1  0.0000000  0.6024960  3
   3842   3834   3831   3843     1  0.0000000  4.9162000  2
   3842   3834   3831   3843     1  0.0000000  0.6024960  3
   3843   3831   3830   3844     1  0.0000000  0.6508444  3
   3843   3831   3830   3852     1  0.0000000  4.9162000  2
   3843   3831   3830   3852     1  0.0000000  0.6024960  3
   3850   3844   3830   3852     1  0.0000000  4.9162000  2
   3850   3844   3830   3852     1  0.0000000  0.6024960  3
   3853   3854   3857   3858     1  180.0000771  0.8368000  1
   3853   3854   3857   3858     1  180.0000771  1.0460000  2
   3853   3854   3857   3858     1  0.0000000  0.7531200  3
   3853   3854   3857   3865     1  0.0000000  0.6508444  3
   3853   3875   3859   3863     1  180.0000771  5.6484000  1
   3853   3875   3859   3863     1  180.0000771  3.5564000  2
   3853   3875   3859   3863     1  0.0000000  0.4184000  3
   3853   3875   3859   3858     1  180.0000771  0.4184000  2
   3853   3875   3859   3858     1  0.0000000  1.6024720  3
   3854   3857   3858   3859     1  180.0000771  0.8368000  1
   3854   3857   3858   3859     1  180.0000771  1.0460000  2
   3854   3857   3858   3859     1  0.0000000  0.7531200  3
   3854   3857   3858   3864     1  0.0000000  0.6508444  3
   3854   3853   3867   3873     1  0.0000000  0.6508444  3
   3854   3853   3875   3859     1  180.0000771  0.4184000  2
   3854   3853   3875   3859     1  0.0000000  1.6024720  3
   3857   3858   3859   3863     1  0.0000000  0.6508444  3
   3857   3858   3859   3875     1  0.0000000  0.6508444  3
   3857   3854   3853   3867     1  180.0000771  0.8368000  1
   3857   3854   3853   3867     1  180.0000771  1.0460000  2
   3857   3854   3853   3867     1  0.0000000  0.7531200  3
   3857   3854   3853   3875     1  0.0000000  0.6508444  3
   3858   3857   3854   3866     1  0.0000000  0.6508444  3
   3859   3875   3853   3867     1  180.0000771  0.4184000  2
   3859   3875   3853   3867     1  0.0000000  1.6024720  3
   3859   3858   3857   3865     1  0.0000000  0.6508444  3
   3863   3859   3858   3864     1  0.0000000  4.9162000  2
   3863   3859   3858   3864     1  0.0000000  0.6024960  3
   3864   3858   3859   3875     1  0.0000000  4.9162000  2
   3864   3858   3859   3875     1  0.0000000  0.6024960  3
   3864   3858   3857   3865     1  0.0000000  4.9162000  2
   3864   3858   3857   3865     1  0.0000000  0.6024960  3
   3865   3857   3854   3866     1  0.0000000  4.9162000  2
   3865   3857   3854   3866     1  0.0000000  0.6024960  3
   3866   3854   3853   3867     1  0.0000000  0.6508444  3
   3866   3854   3853   3875     1  0.0000000  4.9162000  2
   3866   3854   3853   3875     1  0.0000000  0.6024960  3
   3873   3867   3853   3875     1  0.0000000  4.9162000  2
   3873   3867   3853   3875     1  0.0000000  0.6024960  3
   3876   3877   3880   3881     1  180.0000771  0.8368000  1
   3876   3877   3880   3881     1  180.0000771  1.0460000  2
   3876   3877   3880   3881     1  0.0000000  0.7531200  3
   3876   3877   3880   3888     1  0.0000000  0.6508444  3
   3876   3898   3882   3881     1  180.0000771  0.4184000  2
   3876   3898   3882   3881     1  0.0000000  1.6024720  3
   3876   3898   3882   3886     1  180.0000771  5.6484000  1
   3876   3898   3882   3886     1  180.0000771  3.5564000  2
   3876   3898   3882   3886     1  0.0000000  0.4184000  3
   3877   3876   3890   3896     1  0.0000000  0.6508444  3
   3877   3876   3898   3882     1  180.0000771  0.4184000  2
   3877   3876   3898   3882     1  0.0000000  1.6024720  3
   3877   3880   3881   3882     1  180.0000771  0.8368000  1
   3877   3880   3881   3882     1  180.0000771  1.0460000  2
   3877   3880   3881   3882     1  0.0000000  0.7531200  3
   3877   3880   3881   3887     1  0.0000000  0.6508444  3
   3880   3877   3876   3890     1  180.0000771  0.8368000  1
   3880   3877   3876   3890     1  180.0000771  1.0460000  2
   3880   3877   3876   3890     1  0.0000000  0.7531200  3
   3880   3877   3876   3898     1  0.0000000  0.6508444  3
   3880   3881   3882   3886     1  0.0000000  0.6508444  3
   3880   3881   3882   3898     1  0.0000000  0.6508444  3
   3881   3880   3877   3889     1  0.0000000  0.6508444  3
   3882   3881   3880   3888     1  0.0000000  0.6508444  3
   3882   3898   3876   3890     1  180.0000771  0.4184000  2
   3882   3898   3876   3890     1  0.0000000  1.6024720  3
   3886   3882   3881   3887     1  0.0000000  4.9162000  2
   3886   3882   3881   3887     1  0.0000000  0.6024960  3
   3887   3881   3880   3888     1  0.0000000  4.9162000  2
   3887   3881   3880   3888     1  0.0000000  0.6024960  3
   3887   3881   3882   3898     1  0.0000000  4.9162000  2
   3887   3881   3882   3898     1  0.0000000  0.6024960  3
   3888   3880   3877   3889     1  0.0000000  4.9162000  2
   3888   3880   3877   3889     1  0.0000000  0.6024960  3
   3889   3877   3876   3890     1  0.0000000  0.6508444  3
   3889   3877   3876   3898     1  0.0000000  4.9162000  2
   3889   3877   3876   3898     1  0.0000000  0.6024960  3
   3896   3890   3876   3898     1  0.0000000  4.9162000  2
   3896   3890   3876   3898     1  0.0000000  0.6024960  3
   3899   3900   3903   3904     1  180.0000771  0.8368000  1
   3899   3900   3903   3904     1  180.0000771  1.0460000  2
   3899   3900   3903   3904     1  0.0000000  0.7531200  3
   3899   3900   3903   3911     1  0.0000000  0.6508444  3
   3899   3921   3905   3909     1  180.0000771  5.6484000  1
   3899   3921   3905   3909     1  180.0000771  3.5564000  2
   3899   3921   3905   3909     1  0.0000000  0.4184000  3
   3899   3921   3905   3904     1  180.0000771  0.4184000  2
   3899   3921   3905   3904     1  0.0000000  1.6024720  3
   3900   3903   3904   3905     1  180.0000771  0.8368000  1
   3900   3903   3904   3905     1  180.0000771  1.0460000  2
   3900   3903   3904   3905     1  0.0000000  0.7531200  3
   3900   3903   3904   3910     1  0.0000000  0.6508444  3
   3900   3899   3913   3919     1  0.0000000  0.6508444  3
   3900   3899   3921   3905     1  180.0000771  0.4184000  2
   3900   3899   3921   3905     1  0.0000000  1.6024720  3
   3903   3904   3905   3909     1  0.0000000  0.6508444  3
   3903   3904   3905   3921     1  0.0000000  0.6508444  3
   3903   3900   3899   3913     1  180.0000771  0.8368000  1
   3903   3900   3899   3913     1  180.0000771  1.0460000  2
   3903   3900   3899   3913     1  0.0000000  0.7531200  3
   3903   3900   3899   3921     1  0.0000000  0.6508444  3
   3904   3903   3900   3912     1  0.0000000  0.6508444  3
   3905   3921   3899   3913     1  180.0000771  0.4184000  2
   3905   3921   3899   3913     1  0.0000000  1.6024720  3
   3905   3904   3903   3911     1  0.0000000  0.6508444  3
   3909   3905   3904   3910     1  0.0000000  4.9162000  2
   3909   3905   3904   3910     1  0.0000000  0.6024960  3
   3910   3904   3905   3921     1  0.0000000  4.9162000  2
   3910   3904   3905   3921     1  0.0000000  0.6024960  3
   3910   3904   3903   3911     1  0.0000000  4.9162000  2
   3910   3904   3903   3911     1  0.0000000  0.6024960  3
   3911   3903   3900   3912     1  0.0000000  4.9162000  2
   3911   3903   3900   3912     1  0.0000000  0.6024960  3
   3912   3900   3899   3913     1  0.0000000  0.6508444  3
   3912   3900   3899   3921     1  0.0000000  4.9162000  2
   3912   3900   3899   3921     1  0.0000000  0.6024960  3
   3919   3913   3899   3921     1  0.0000000  4.9162000  2
   3919   3913   3899   3921     1  0.0000000  0.6024960  3
   3922   3923   3926   3927     1  180.0000771  0.8368000  1
   3922   3923   3926   3927     1  180.0000771  1.0460000  2
   3922   3923   3926   3927     1  0.0000000  0.7531200  3
   3922   3923   3926   3934     1  0.0000000  0.6508444  3
   3922   3944   3928   3927     1  180.0000771  0.4184000  2
   3922   3944   3928   3927     1  0.0000000  1.6024720  3
   3922   3944   3928   3932     1  180.0000771  5.6484000  1
   3922   3944   3928   3932     1  180.0000771  3.5564000  2
   3922   3944   3928   3932     1  0.0000000  0.4184000  3
   3923   3922   3936   3942     1  0.0000000  0.6508444  3
   3923   3922   3944   3928     1  180.0000771  0.4184000  2
   3923   3922   3944   3928     1  0.0000000  1.6024720  3
   3923   3926   3927   3928     1  180.0000771  0.8368000  1
   3923   3926   3927   3928     1  180.0000771  1.0460000  2
   3923   3926   3927   3928     1  0.0000000  0.7531200  3
   3923   3926   3927   3933     1  0.0000000  0.6508444  3
   3926   3923   3922   3936     1  180.0000771  0.8368000  1
   3926   3923   3922   3936     1  180.0000771  1.0460000  2
   3926   3923   3922   3936     1  0.0000000  0.7531200  3
   3926   3923   3922   3944     1  0.0000000  0.6508444  3
   3926   3927   3928   3932     1  0.0000000  0.6508444  3
   3926   3927   3928   3944     1  0.0000000  0.6508444  3
   3927   3926   3923   3935     1  0.0000000  0.6508444  3
   3928   3927   3926   3934     1  0.0000000  0.6508444  3
   3928   3944   3922   3936     1  180.0000771  0.4184000  2
   3928   3944   3922   3936     1  0.0000000  1.6024720  3
   3932   3928   3927   3933     1  0.0000000  4.9162000  2
   3932   3928   3927   3933     1  0.0000000  0.6024960  3
   3933   3927   3926   3934     1  0.0000000  4.9162000  2
   3933   3927   3926   3934     1  0.0000000  0.6024960  3
   3933   3927   3928   3944     1  0.0000000  4.9162000  2
   3933   3927   3928   3944     1  0.0000000  0.6024960  3
   3934   3926   3923   3935     1  0.0000000  4.9162000  2
   3934   3926   3923   3935     1  0.0000000  0.6024960  3
   3935   3923   3922   3936     1  0.0000000  0.6508444  3
   3935   3923   3922   3944     1  0.0000000  4.9162000  2
   3935   3923   3922   3944     1  0.0000000  0.6024960  3
   3942   3936   3922   3944     1  0.0000000  4.9162000  2
   3942   3936   3922   3944     1  0.0000000  0.6024960  3
   3945   3946   3949   3950     1  180.0000771  0.8368000  1
   3945   3946   3949   3950     1  180.0000771  1.0460000  2
   3945   3946   3949   3950     1  0.0000000  0.7531200  3
   3945   3946   3949   3957     1  0.0000000  0.6508444  3
   3945   3967   3951   3955     1  180.0000771  5.6484000  1
   3945   3967   3951   3955     1  180.0000771  3.5564000  2
   3945   3967   3951   3955     1  0.0000000  0.4184000  3
   3945   3967   3951   3950     1  180.0000771  0.4184000  2
   3945   3967   3951   3950     1  0.0000000  1.6024720  3
   3946   3949   3950   3951     1  180.0000771  0.8368000  1
   3946   3949   3950   3951     1  180.0000771  1.0460000  2
   3946   3949   3950   3951     1  0.0000000  0.7531200  3
   3946   3949   3950   3956     1  0.0000000  0.6508444  3
   3946   3945   3959   3965     1  0.0000000  0.6508444  3
   3946   3945   3967   3951     1  180.0000771  0.4184000  2
   3946   3945   3967   3951     1  0.0000000  1.6024720  3
   3949   3950   3951   3955     1  0.0000000  0.6508444  3
   3949   3950   3951   3967     1  0.0000000  0.6508444  3
   3949   3946   3945   3959     1  180.0000771  0.8368000  1
   3949   3946   3945   3959     1  180.0000771  1.0460000  2
   3949   3946   3945   3959     1  0.0000000  0.7531200  3
   3949   3946   3945   3967     1  0.0000000  0.6508444  3
   3950   3949   3946   3958     1  0.0000000  0.6508444  3
   3951   3967   3945   3959     1  180.0000771  0.4184000  2
   3951   3967   3945   3959     1  0.0000000  1.6024720  3
   3951   3950   3949   3957     1  0.0000000  0.6508444  3
   3955   3951   3950   3956     1  0.0000000  4.9162000  2
   3955   3951   3950   3956     1  0.0000000  0.6024960  3
   3956   3950   3951   3967     1  0.0000000  4.9162000  2
   3956   3950   3951   3967     1  0.0000000  0.6024960  3
   3956   3950   3949   3957     1  0.0000000  4.9162000  2
   3956   3950   3949   3957     1  0.0000000  0.6024960  3
   3957   3949   3946   3958     1  0.0000000  4.9162000  2
   3957   3949   3946   3958     1  0.0000000  0.6024960  3
   3958   3946   3945   3959     1  0.0000000  0.6508444  3
   3958   3946   3945   3967     1  0.0000000  4.9162000  2
   3958   3946   3945   3967     1  0.0000000  0.6024960  3
   3965   3959   3945   3967     1  0.0000000  4.9162000  2
   3965   3959   3945   3967     1  0.0000000  0.6024960  3
   3968   3969   3972   3973     1  180.0000771  0.8368000  1
   3968   3969   3972   3973     1  180.0000771  1.0460000  2
   3968   3969   3972   3973     1  0.0000000  0.7531200  3
   3968   3969   3972   3980     1  0.0000000  0.6508444  3
   3968   3990   3974   3973     1  180.0000771  0.4184000  2
   3968   3990   3974   3973     1  0.0000000  1.6024720  3
   3968   3990   3974   3978     1  180.0000771  5.6484000  1
   3968   3990   3974   3978     1  180.0000771  3.5564000  2
   3968   3990   3974   3978     1  0.0000000  0.4184000  3
   3969   3968   3982   3988     1  0.0000000  0.6508444  3
   3969   3968   3990   3974     1  180.0000771  0.4184000  2
   3969   3968   3990   3974     1  0.0000000  1.6024720  3
   3969   3972   3973   3974     1  180.0000771  0.8368000  1
   3969   3972   3973   3974     1  180.0000771  1.0460000  2
   3969   3972   3973   3974     1  0.0000000  0.7531200  3
   3969   3972   3973   3979     1  0.0000000  0.6508444  3
   3972   3969   3968   3982     1  180.0000771  0.8368000  1
   3972   3969   3968   3982     1  180.0000771  1.0460000  2
   3972   3969   3968   3982     1  0.0000000  0.7531200  3
   3972   3969   3968   3990     1  0.0000000  0.6508444  3
   3972   3973   3974   3978     1  0.0000000  0.6508444  3
   3972   3973   3974   3990     1  0.0000000  0.6508444  3
   3973   3972   3969   3981     1  0.0000000  0.6508444  3
   3974   3973   3972   3980     1  0.0000000  0.6508444  3
   3974   3990   3968   3982     1  180.0000771  0.4184000  2
   3974   3990   3968   3982     1  0.0000000  1.6024720  3
   3978   3974   3973   3979     1  0.0000000  4.9162000  2
   3978   3974   3973   3979     1  0.0000000  0.6024960  3
   3979   3973   3972   3980     1  0.0000000  4.9162000  2
   3979   3973   3972   3980     1  0.0000000  0.6024960  3
   3979   3973   3974   3990     1  0.0000000  4.9162000  2
   3979   3973   3974   3990     1  0.0000000  0.6024960  3
   3980   3972   3969   3981     1  0.0000000  4.9162000  2
   3980   3972   3969   3981     1  0.0000000  0.6024960  3
   3981   3969   3968   3982     1  0.0000000  0.6508444  3
   3981   3969   3968   3990     1  0.0000000  4.9162000  2
   3981   3969   3968   3990     1  0.0000000  0.6024960  3
   3988   3982   3968   3990     1  0.0000000  4.9162000  2
   3988   3982   3968   3990     1  0.0000000  0.6024960  3
   3991   3992   3995   3996     1  180.0000771  0.8368000  1
   3991   3992   3995   3996     1  180.0000771  1.0460000  2
   3991   3992   3995   3996     1  0.0000000  0.7531200  3
   3991   3992   3995   4003     1  0.0000000  0.6508444  3
   3991   4013   3997   4001     1  180.0000771  5.6484000  1
   3991   4013   3997   4001     1  180.0000771  3.5564000  2
   3991   4013   3997   4001     1  0.0000000  0.4184000  3
   3991   4013   3997   3996     1  180.0000771  0.4184000  2
   3991   4013   3997   3996     1  0.0000000  1.6024720  3
   3992   3995   3996   3997     1  180.0000771  0.8368000  1
   3992   3995   3996   3997     1  180.0000771  1.0460000  2
   3992   3995   3996   3997     1  0.0000000  0.7531200  3
   3992   3995   3996   4002     1  0.0000000  0.6508444  3
   3992   3991   4005   4011     1  0.0000000  0.6508444  3
   3992   3991   4013   3997     1  180.0000771  0.4184000  2
   3992   3991   4013   3997     1  0.0000000  1.6024720  3
   3995   3996   3997   4001     1  0.0000000  0.6508444  3
   3995   3996   3997   4013     1  0.0000000  0.6508444  3
   3995   3992   3991   4005     1  180.0000771  0.8368000  1
   3995   3992   3991   4005     1  180.0000771  1.0460000  2
   3995   3992   3991   4005     1  0.0000000  0.7531200  3
   3995   3992   3991   4013     1  0.0000000  0.6508444  3
   3996   3995   3992   4004     1  0.0000000  0.6508444  3
   3997   4013   3991   4005     1  180.0000771  0.4184000  2
   3997   4013   3991   4005     1  0.0000000  1.6024720  3
   3997   3996   3995   4003     1  0.0000000  0.6508444  3
   4001   3997   3996   4002     1  0.0000000  4.9162000  2
   4001   3997   3996   4002     1  0.0000000  0.6024960  3
   4002   3996   3997   4013     1  0.0000000  4.9162000  2
   4002   3996   3997   4013     1  0.0000000  0.6024960  3
   4002   3996   3995   4003     1  0.0000000  4.9162000  2
   4002   3996   3995   4003     1  0.0000000  0.6024960  3
   4003   3995   3992   4004     1  0.0000000  4.9162000  2
   4003   3995   3992   4004     1  0.0000000  0.6024960  3
   4004   3992   3991   4005     1  0.0000000  0.6508444  3
   4004   3992   3991   4013     1  0.0000000  4.9162000  2
   4004   3992   3991   4013     1  0.0000000  0.6024960  3
   4011   4005   3991   4013     1  0.0000000  4.9162000  2
   4011   4005   3991   4013     1  0.0000000  0.6024960  3
   4014   4015   4018   4019     1  180.0000771  0.8368000  1
   4014   4015   4018   4019     1  180.0000771  1.0460000  2
   4014   4015   4018   4019     1  0.0000000  0.7531200  3
   4014   4015   4018   4026     1  0.0000000  0.6508444  3
   4014   4036   4020   4019     1  180.0000771  0.4184000  2
   4014   4036   4020   4019     1  0.0000000  1.6024720  3
   4014   4036   4020   4024     1  180.0000771  5.6484000  1
   4014   4036   4020   4024     1  180.0000771  3.5564000  2
   4014   4036   4020   4024     1  0.0000000  0.4184000  3
   4015   4014   4028   4034     1  0.0000000  0.6508444  3
   4015   4014   4036   4020     1  180.0000771  0.4184000  2
   4015   4014   4036   4020     1  0.0000000  1.6024720  3
   4015   4018   4019   4020     1  180.0000771  0.8368000  1
   4015   4018   4019   4020     1  180.0000771  1.0460000  2
   4015   4018   4019   4020     1  0.0000000  0.7531200  3
   4015   4018   4019   4025     1  0.0000000  0.6508444  3
   4018   4015   4014   4028     1  180.0000771  0.8368000  1
   4018   4015   4014   4028     1  180.0000771  1.0460000  2
   4018   4015   4014   4028     1  0.0000000  0.7531200  3
   4018   4015   4014   4036     1  0.0000000  0.6508444  3
   4018   4019   4020   4024     1  0.0000000  0.6508444  3
   4018   4019   4020   4036     1  0.0000000  0.6508444  3
   4019   4018   4015   4027     1  0.0000000  0.6508444  3
   4020   4019   4018   4026     1  0.0000000  0.6508444  3
   4020   4036   4014   4028     1  180.0000771  0.4184000  2
   4020   4036   4014   4028     1  0.0000000  1.6024720  3
   4024   4020   4019   4025     1  0.0000000  4.9162000  2
   4024   4020   4019   4025     1  0.0000000  0.6024960  3
   4025   4019   4018   4026     1  0.0000000  4.9162000  2
   4025   4019   4018   4026     1  0.0000000  0.6024960  3
   4025   4019   4020   4036     1  0.0000000  4.9162000  2
   4025   4019   4020   4036     1  0.0000000  0.6024960  3
   4026   4018   4015   4027     1  0.0000000  4.9162000  2
   4026   4018   4015   4027     1  0.0000000  0.6024960  3
   4027   4015   4014   4028     1  0.0000000  0.6508444  3
   4027   4015   4014   4036     1  0.0000000  4.9162000  2
   4027   4015   4014   4036     1  0.0000000  0.6024960  3
   4034   4028   4014   4036     1  0.0000000  4.9162000  2
   4034   4028   4014   4036     1  0.0000000  0.6024960  3
   4037   4038   4041   4042     1  180.0000771  0.8368000  1
   4037   4038   4041   4042     1  180.0000771  1.0460000  2
   4037   4038   4041   4042     1  0.0000000  0.7531200  3
   4037   4038   4041   4049     1  0.0000000  0.6508444  3
   4037   4059   4043   4047     1  180.0000771  5.6484000  1
   4037   4059   4043   4047     1  180.0000771  3.5564000  2
   4037   4059   4043   4047     1  0.0000000  0.4184000  3
   4037   4059   4043   4042     1  180.0000771  0.4184000  2
   4037   4059   4043   4042     1  0.0000000  1.6024720  3
   4038   4041   4042   4043     1  180.0000771  0.8368000  1
   4038   4041   4042   4043     1  180.0000771  1.0460000  2
   4038   4041   4042   4043     1  0.0000000  0.7531200  3
   4038   4041   4042   4048     1  0.0000000  0.6508444  3
   4038   4037   4051   4057     1  0.0000000  0.6508444  3
   4038   4037   4059   4043     1  180.0000771  0.4184000  2
   4038   4037   4059   4043     1  0.0000000  1.6024720  3
   4041   4042   4043   4047     1  0.0000000  0.6508444  3
   4041   4042   4043   4059     1  0.0000000  0.6508444  3
   4041   4038   4037   4051     1  180.0000771  0.8368000  1
   4041   4038   4037   4051     1  180.0000771  1.0460000  2
   4041   4038   4037   4051     1  0.0000000  0.7531200  3
   4041   4038   4037   4059     1  0.0000000  0.6508444  3
   4042   4041   4038   4050     1  0.0000000  0.6508444  3
   4043   4059   4037   4051     1  180.0000771  0.4184000  2
   4043   4059   4037   4051     1  0.0000000  1.6024720  3
   4043   4042   4041   4049     1  0.0000000  0.6508444  3
   4047   4043   4042   4048     1  0.0000000  4.9162000  2
   4047   4043   4042   4048     1  0.0000000  0.6024960  3
   4048   4042   4043   4059     1  0.0000000  4.9162000  2
   4048   4042   4043   4059     1  0.0000000  0.6024960  3
   4048   4042   4041   4049     1  0.0000000  4.9162000  2
   4048   4042   4041   4049     1  0.0000000  0.6024960  3
   4049   4041   4038   4050     1  0.0000000  4.9162000  2
   4049   4041   4038   4050     1  0.0000000  0.6024960  3
   4050   4038   4037   4051     1  0.0000000  0.6508444  3
   4050   4038   4037   4059     1  0.0000000  4.9162000  2
   4050   4038   4037   4059     1  0.0000000  0.6024960  3
   4057   4051   4037   4059     1  0.0000000  4.9162000  2
   4057   4051   4037   4059     1  0.0000000  0.6024960  3
   4060   4061   4064   4065     1  180.0000771  0.8368000  1
   4060   4061   4064   4065     1  180.0000771  1.0460000  2
   4060   4061   4064   4065     1  0.0000000  0.7531200  3
   4060   4061   4064   4072     1  0.0000000  0.6508444  3
   4060   4082   4066   4065     1  180.0000771  0.4184000  2
   4060   4082   4066   4065     1  0.0000000  1.6024720  3
   4060   4082   4066   4070     1  180.0000771  5.6484000  1
   4060   4082   4066   4070     1  180.0000771  3.5564000  2
   4060   4082   4066   4070     1  0.0000000  0.4184000  3
   4061   4060   4074   4080     1  0.0000000  0.6508444  3
   4061   4060   4082   4066     1  180.0000771  0.4184000  2
   4061   4060   4082   4066     1  0.0000000  1.6024720  3
   4061   4064   4065   4066     1  180.0000771  0.8368000  1
   4061   4064   4065   4066     1  180.0000771  1.0460000  2
   4061   4064   4065   4066     1  0.0000000  0.7531200  3
   4061   4064   4065   4071     1  0.0000000  0.6508444  3
   4064   4061   4060   4074     1  180.0000771  0.8368000  1
   4064   4061   4060   4074     1  180.0000771  1.0460000  2
   4064   4061   4060   4074     1  0.0000000  0.7531200  3
   4064   4061   4060   4082     1  0.0000000  0.6508444  3
   4064   4065   4066   4070     1  0.0000000  0.6508444  3
   4064   4065   4066   4082     1  0.0000000  0.6508444  3
   4065   4064   4061   4073     1  0.0000000  0.6508444  3
   4066   4065   4064   4072     1  0.0000000  0.6508444  3
   4066   4082   4060   4074     1  180.0000771  0.4184000  2
   4066   4082   4060   4074     1  0.0000000  1.6024720  3
   4070   4066   4065   4071     1  0.0000000  4.9162000  2
   4070   4066   4065   4071     1  0.0000000  0.6024960  3
   4071   4065   4064   4072     1  0.0000000  4.9162000  2
   4071   4065   4064   4072     1  0.0000000  0.6024960  3
   4071   4065   4066   4082     1  0.0000000  4.9162000  2
   4071   4065   4066   4082     1  0.0000000  0.6024960  3
   4072   4064   4061   4073     1  0.0000000  4.9162000  2
   4072   4064   4061   4073     1  0.0000000  0.6024960  3
   4073   4061   4060   4074     1  0.0000000  0.6508444  3
   4073   4061   4060   4082     1  0.0000000  4.9162000  2
   4073   4061   4060   4082     1  0.0000000  0.6024960  3
   4080   4074   4060   4082     1  0.0000000  4.9162000  2
   4080   4074   4060   4082     1  0.0000000  0.6024960  3
   4083   4084   4087   4088     1  180.0000771  0.8368000  1
   4083   4084   4087   4088     1  180.0000771  1.0460000  2
   4083   4084   4087   4088     1  0.0000000  0.7531200  3
   4083   4084   4087   4095     1  0.0000000  0.6508444  3
   4083   4105   4089   4093     1  180.0000771  5.6484000  1
   4083   4105   4089   4093     1  180.0000771  3.5564000  2
   4083   4105   4089   4093     1  0.0000000  0.4184000  3
   4083   4105   4089   4088     1  180.0000771  0.4184000  2
   4083   4105   4089   4088     1  0.0000000  1.6024720  3
   4084   4087   4088   4089     1  180.0000771  0.8368000  1
   4084   4087   4088   4089     1  180.0000771  1.0460000  2
   4084   4087   4088   4089     1  0.0000000  0.7531200  3
   4084   4087   4088   4094     1  0.0000000  0.6508444  3
   4084   4083   4097   4103     1  0.0000000  0.6508444  3
   4084   4083   4105   4089     1  180.0000771  0.4184000  2
   4084   4083   4105   4089     1  0.0000000  1.6024720  3
   4087   4088   4089   4093     1  0.0000000  0.6508444  3
   4087   4088   4089   4105     1  0.0000000  0.6508444  3
   4087   4084   4083   4097     1  180.0000771  0.8368000  1
   4087   4084   4083   4097     1  180.0000771  1.0460000  2
   4087   4084   4083   4097     1  0.0000000  0.7531200  3
   4087   4084   4083   4105     1  0.0000000  0.6508444  3
   4088   4087   4084   4096     1  0.0000000  0.6508444  3
   4089   4105   4083   4097     1  180.0000771  0.4184000  2
   4089   4105   4083   4097     1  0.0000000  1.6024720  3
   4089   4088   4087   4095     1  0.0000000  0.6508444  3
   4093   4089   4088   4094     1  0.0000000  4.9162000  2
   4093   4089   4088   4094     1  0.0000000  0.6024960  3
   4094   4088   4089   4105     1  0.0000000  4.9162000  2
   4094   4088   4089   4105     1  0.0000000  0.6024960  3
   4094   4088   4087   4095     1  0.0000000  4.9162000  2
   4094   4088   4087   4095     1  0.0000000  0.6024960  3
   4095   4087   4084   4096     1  0.0000000  4.9162000  2
   4095   4087   4084   4096     1  0.0000000  0.6024960  3
   4096   4084   4083   4097     1  0.0000000  0.6508444  3
   4096   4084   4083   4105     1  0.0000000  4.9162000  2
   4096   4084   4083   4105     1  0.0000000  0.6024960  3
   4103   4097   4083   4105     1  0.0000000  4.9162000  2
   4103   4097   4083   4105     1  0.0000000  0.6024960  3
   4106   4107   4110   4111     1  180.0000771  0.8368000  1
   4106   4107   4110   4111     1  180.0000771  1.0460000  2
   4106   4107   4110   4111     1  0.0000000  0.7531200  3
   4106   4107   4110   4118     1  0.0000000  0.6508444  3
   4106   4128   4112   4111     1  180.0000771  0.4184000  2
   4106   4128   4112   4111     1  0.0000000  1.6024720  3
   4106   4128   4112   4116     1  180.0000771  5.6484000  1
   4106   4128   4112   4116     1  180.0000771  3.5564000  2
   4106   4128   4112   4116     1  0.0000000  0.4184000  3
   4107   4106   4120   4126     1  0.0000000  0.6508444  3
   4107   4106   4128   4112     1  180.0000771  0.4184000  2
   4107   4106   4128   4112     1  0.0000000  1.6024720  3
   4107   4110   4111   4112     1  180.0000771  0.8368000  1
   4107   4110   4111   4112     1  180.0000771  1.0460000  2
   4107   4110   4111   4112     1  0.0000000  0.7531200  3
   4107   4110   4111   4117     1  0.0000000  0.6508444  3
   4110   4107   4106   4120     1  180.0000771  0.8368000  1
   4110   4107   4106   4120     1  180.0000771  1.0460000  2
   4110   4107   4106   4120     1  0.0000000  0.7531200  3
   4110   4107   4106   4128     1  0.0000000  0.6508444  3
   4110   4111   4112   4116     1  0.0000000  0.6508444  3
   4110   4111   4112   4128     1  0.0000000  0.6508444  3
   4111   4110   4107   4119     1  0.0000000  0.6508444  3
   4112   4111   4110   4118     1  0.0000000  0.6508444  3
   4112   4128   4106   4120     1  180.0000771  0.4184000  2
   4112   4128   4106   4120     1  0.0000000  1.6024720  3
   4116   4112   4111   4117     1  0.0000000  4.9162000  2
   4116   4112   4111   4117     1  0.0000000  0.6024960  3
   4117   4111   4110   4118     1  0.0000000  4.9162000  2
   4117   4111   4110   4118     1  0.0000000  0.6024960  3
   4117   4111   4112   4128     1  0.0000000  4.9162000  2
   4117   4111   4112   4128     1  0.0000000  0.6024960  3
   4118   4110   4107   4119     1  0.0000000  4.9162000  2
   4118   4110   4107   4119     1  0.0000000  0.6024960  3
   4119   4107   4106   4120     1  0.0000000  0.6508444  3
   4119   4107   4106   4128     1  0.0000000  4.9162000  2
   4119   4107   4106   4128     1  0.0000000  0.6024960  3
   4126   4120   4106   4128     1  0.0000000  4.9162000  2
   4126   4120   4106   4128     1  0.0000000  0.6024960  3
   4129   4130   4133   4134     1  180.0000771  0.8368000  1
   4129   4130   4133   4134     1  180.0000771  1.0460000  2
   4129   4130   4133   4134     1  0.0000000  0.7531200  3
   4129   4130   4133   4141     1  0.0000000  0.6508444  3
   4129   4151   4135   4139     1  180.0000771  5.6484000  1
   4129   4151   4135   4139     1  180.0000771  3.5564000  2
   4129   4151   4135   4139     1  0.0000000  0.4184000  3
   4129   4151   4135   4134     1  180.0000771  0.4184000  2
   4129   4151   4135   4134     1  0.0000000  1.6024720  3
   4130   4133   4134   4135     1  180.0000771  0.8368000  1
   4130   4133   4134   4135     1  180.0000771  1.0460000  2
   4130   4133   4134   4135     1  0.0000000  0.7531200  3
   4130   4133   4134   4140     1  0.0000000  0.6508444  3
   4130   4129   4143   4149     1  0.0000000  0.6508444  3
   4130   4129   4151   4135     1  180.0000771  0.4184000  2
   4130   4129   4151   4135     1  0.0000000  1.6024720  3
   4133   4134   4135   4139     1  0.0000000  0.6508444  3
   4133   4134   4135   4151     1  0.0000000  0.6508444  3
   4133   4130   4129   4143     1  180.0000771  0.8368000  1
   4133   4130   4129   4143     1  180.0000771  1.0460000  2
   4133   4130   4129   4143     1  0.0000000  0.7531200  3
   4133   4130   4129   4151     1  0.0000000  0.6508444  3
   4134   4133   4130   4142     1  0.0000000  0.6508444  3
   4135   4151   4129   4143     1  180.0000771  0.4184000  2
   4135   4151   4129   4143     1  0.0000000  1.6024720  3
   4135   4134   4133   4141     1  0.0000000  0.6508444  3
   4139   4135   4134   4140     1  0.0000000  4.9162000  2
   4139   4135   4134   4140     1  0.0000000  0.6024960  3
   4140   4134   4135   4151     1  0.0000000  4.9162000  2
   4140   4134   4135   4151     1  0.0000000  0.6024960  3
   4140   4134   4133   4141     1  0.0000000  4.9162000  2
   4140   4134   4133   4141     1  0.0000000  0.6024960  3
   4141   4133   4130   4142     1  0.0000000  4.9162000  2
   4141   4133   4130   4142     1  0.0000000  0.6024960  3
   4142   4130   4129   4143     1  0.0000000  0.6508444  3
   4142   4130   4129   4151     1  0.0000000  4.9162000  2
   4142   4130   4129   4151     1  0.0000000  0.6024960  3
   4149   4143   4129   4151     1  0.0000000  4.9162000  2
   4149   4143   4129   4151     1  0.0000000  0.6024960  3
   4152   4153   4156   4157     1  180.0000771  0.8368000  1
   4152   4153   4156   4157     1  180.0000771  1.0460000  2
   4152   4153   4156   4157     1  0.0000000  0.7531200  3
   4152   4153   4156   4164     1  0.0000000  0.6508444  3
   4152   4174   4158   4157     1  180.0000771  0.4184000  2
   4152   4174   4158   4157     1  0.0000000  1.6024720  3
   4152   4174   4158   4162     1  180.0000771  5.6484000  1
   4152   4174   4158   4162     1  180.0000771  3.5564000  2
   4152   4174   4158   4162     1  0.0000000  0.4184000  3
   4153   4152   4166   4172     1  0.0000000  0.6508444  3
   4153   4152   4174   4158     1  180.0000771  0.4184000  2
   4153   4152   4174   4158     1  0.0000000  1.6024720  3
   4153   4156   4157   4158     1  180.0000771  0.8368000  1
   4153   4156   4157   4158     1  180.0000771  1.0460000  2
   4153   4156   4157   4158     1  0.0000000  0.7531200  3
   4153   4156   4157   4163     1  0.0000000  0.6508444  3
   4156   4153   4152   4166     1  180.0000771  0.8368000  1
   4156   4153   4152   4166     1  180.0000771  1.0460000  2
   4156   4153   4152   4166     1  0.0000000  0.7531200  3
   4156   4153   4152   4174     1  0.0000000  0.6508444  3
   4156   4157   4158   4162     1  0.0000000  0.6508444  3
   4156   4157   4158   4174     1  0.0000000  0.6508444  3
   4157   4156   4153   4165     1  0.0000000  0.6508444  3
   4158   4157   4156   4164     1  0.0000000  0.6508444  3
   4158   4174   4152   4166     1  180.0000771  0.4184000  2
   4158   4174   4152   4166     1  0.0000000  1.6024720  3
   4162   4158   4157   4163     1  0.0000000  4.9162000  2
   4162   4158   4157   4163     1  0.0000000  0.6024960  3
   4163   4157   4156   4164     1  0.0000000  4.9162000  2
   4163   4157   4156   4164     1  0.0000000  0.6024960  3
   4163   4157   4158   4174     1  0.0000000  4.9162000  2
   4163   4157   4158   4174     1  0.0000000  0.6024960  3
   4164   4156   4153   4165     1  0.0000000  4.9162000  2
   4164   4156   4153   4165     1  0.0000000  0.6024960  3
   4165   4153   4152   4166     1  0.0000000  0.6508444  3
   4165   4153   4152   4174     1  0.0000000  4.9162000  2
   4165   4153   4152   4174     1  0.0000000  0.6024960  3
   4172   4166   4152   4174     1  0.0000000  4.9162000  2
   4172   4166   4152   4174     1  0.0000000  0.6024960  3
   4175   4176   4179   4180     1  180.0000771  0.8368000  1
   4175   4176   4179   4180     1  180.0000771  1.0460000  2
   4175   4176   4179   4180     1  0.0000000  0.7531200  3
   4175   4176   4179   4187     1  0.0000000  0.6508444  3
   4175   4197   4181   4185     1  180.0000771  5.6484000  1
   4175   4197   4181   4185     1  180.0000771  3.5564000  2
   4175   4197   4181   4185     1  0.0000000  0.4184000  3
   4175   4197   4181   4180     1  180.0000771  0.4184000  2
   4175   4197   4181   4180     1  0.0000000  1.6024720  3
   4176   4179   4180   4181     1  180.0000771  0.8368000  1
   4176   4179   4180   4181     1  180.0000771  1.0460000  2
   4176   4179   4180   4181     1  0.0000000  0.7531200  3
   4176   4179   4180   4186     1  0.0000000  0.6508444  3
   4176   4175   4189   4195     1  0.0000000  0.6508444  3
   4176   4175   4197   4181     1  180.0000771  0.4184000  2
   4176   4175   4197   4181     1  0.0000000  1.6024720  3
   4179   4180   4181   4185     1  0.0000000  0.6508444  3
   4179   4180   4181   4197     1  0.0000000  0.6508444  3
   4179   4176   4175   4189     1  180.0000771  0.8368000  1
   4179   4176   4175   4189     1  180.0000771  1.0460000  2
   4179   4176   4175   4189     1  0.0000000  0.7531200  3
   4179   4176   4175   4197     1  0.0000000  0.6508444  3
   4180   4179   4176   4188     1  0.0000000  0.6508444  3
   4181   4197   4175   4189     1  180.0000771  0.4184000  2
   4181   4197   4175   4189     1  0.0000000  1.6024720  3
   4181   4180   4179   4187     1  0.0000000  0.6508444  3
   4185   4181   4180   4186     1  0.0000000  4.9162000  2
   4185   4181   4180   4186     1  0.0000000  0.6024960  3
   4186   4180   4181   4197     1  0.0000000  4.9162000  2
   4186   4180   4181   4197     1  0.0000000  0.6024960  3
   4186   4180   4179   4187     1  0.0000000  4.9162000  2
   4186   4180   4179   4187     1  0.0000000  0.6024960  3
   4187   4179   4176   4188     1  0.0000000  4.9162000  2
   4187   4179   4176   4188     1  0.0000000  0.6024960  3
   4188   4176   4175   4189     1  0.0000000  0.6508444  3
   4188   4176   4175   4197     1  0.0000000  4.9162000  2
   4188   4176   4175   4197     1  0.0000000  0.6024960  3
   4195   4189   4175   4197     1  0.0000000  4.9162000  2
   4195   4189   4175   4197     1  0.0000000  0.6024960  3
   4198   4199   4202   4203     1  180.0000771  0.8368000  1
   4198   4199   4202   4203     1  180.0000771  1.0460000  2
   4198   4199   4202   4203     1  0.0000000  0.7531200  3
   4198   4199   4202   4210     1  0.0000000  0.6508444  3
   4198   4220   4204   4203     1  180.0000771  0.4184000  2
   4198   4220   4204   4203     1  0.0000000  1.6024720  3
   4198   4220   4204   4208     1  180.0000771  5.6484000  1
   4198   4220   4204   4208     1  180.0000771  3.5564000  2
   4198   4220   4204   4208     1  0.0000000  0.4184000  3
   4199   4198   4212   4218     1  0.0000000  0.6508444  3
   4199   4198   4220   4204     1  180.0000771  0.4184000  2
   4199   4198   4220   4204     1  0.0000000  1.6024720  3
   4199   4202   4203   4204     1  180.0000771  0.8368000  1
   4199   4202   4203   4204     1  180.0000771  1.0460000  2
   4199   4202   4203   4204     1  0.0000000  0.7531200  3
   4199   4202   4203   4209     1  0.0000000  0.6508444  3
   4202   4199   4198   4212     1  180.0000771  0.8368000  1
   4202   4199   4198   4212     1  180.0000771  1.0460000  2
   4202   4199   4198   4212     1  0.0000000  0.7531200  3
   4202   4199   4198   4220     1  0.0000000  0.6508444  3
   4202   4203   4204   4208     1  0.0000000  0.6508444  3
   4202   4203   4204   4220     1  0.0000000  0.6508444  3
   4203   4202   4199   4211     1  0.0000000  0.6508444  3
   4204   4203   4202   4210     1  0.0000000  0.6508444  3
   4204   4220   4198   4212     1  180.0000771  0.4184000  2
   4204   4220   4198   4212     1  0.0000000  1.6024720  3
   4208   4204   4203   4209     1  0.0000000  4.9162000  2
   4208   4204   4203   4209     1  0.0000000  0.6024960  3
   4209   4203   4202   4210     1  0.0000000  4.9162000  2
   4209   4203   4202   4210     1  0.0000000  0.6024960  3
   4209   4203   4204   4220     1  0.0000000  4.9162000  2
   4209   4203   4204   4220     1  0.0000000  0.6024960  3
   4210   4202   4199   4211     1  0.0000000  4.9162000  2
   4210   4202   4199   4211     1  0.0000000  0.6024960  3
   4211   4199   4198   4212     1  0.0000000  0.6508444  3
   4211   4199   4198   4220     1  0.0000000  4.9162000  2
   4211   4199   4198   4220     1  0.0000000  0.6024960  3
   4218   4212   4198   4220     1  0.0000000  4.9162000  2
   4218   4212   4198   4220     1  0.0000000  0.6024960  3
   4221   4222   4225   4226     1  180.0000771  0.8368000  1
   4221   4222   4225   4226     1  180.0000771  1.0460000  2
   4221   4222   4225   4226     1  0.0000000  0.7531200  3
   4221   4222   4225   4233     1  0.0000000  0.6508444  3
   4221   4243   4227   4231     1  180.0000771  5.6484000  1
   4221   4243   4227   4231     1  180.0000771  3.5564000  2
   4221   4243   4227   4231     1  0.0000000  0.4184000  3
   4221   4243   4227   4226     1  180.0000771  0.4184000  2
   4221   4243   4227   4226     1  0.0000000  1.6024720  3
   4222   4225   4226   4227     1  180.0000771  0.8368000  1
   4222   4225   4226   4227     1  180.0000771  1.0460000  2
   4222   4225   4226   4227     1  0.0000000  0.7531200  3
   4222   4225   4226   4232     1  0.0000000  0.6508444  3
   4222   4221   4235   4241     1  0.0000000  0.6508444  3
   4222   4221   4243   4227     1  180.0000771  0.4184000  2
   4222   4221   4243   4227     1  0.0000000  1.6024720  3
   4225   4226   4227   4231     1  0.0000000  0.6508444  3
   4225   4226   4227   4243     1  0.0000000  0.6508444  3
   4225   4222   4221   4235     1  180.0000771  0.8368000  1
   4225   4222   4221   4235     1  180.0000771  1.0460000  2
   4225   4222   4221   4235     1  0.0000000  0.7531200  3
   4225   4222   4221   4243     1  0.0000000  0.6508444  3
   4226   4225   4222   4234     1  0.0000000  0.6508444  3
   4227   4243   4221   4235     1  180.0000771  0.4184000  2
   4227   4243   4221   4235     1  0.0000000  1.6024720  3
   4227   4226   4225   4233     1  0.0000000  0.6508444  3
   4231   4227   4226   4232     1  0.0000000  4.9162000  2
   4231   4227   4226   4232     1  0.0000000  0.6024960  3
   4232   4226   4227   4243     1  0.0000000  4.9162000  2
   4232   4226   4227   4243     1  0.0000000  0.6024960  3
   4232   4226   4225   4233     1  0.0000000  4.9162000  2
   4232   4226   4225   4233     1  0.0000000  0.6024960  3
   4233   4225   4222   4234     1  0.0000000  4.9162000  2
   4233   4225   4222   4234     1  0.0000000  0.6024960  3
   4234   4222   4221   4235     1  0.0000000  0.6508444  3
   4234   4222   4221   4243     1  0.0000000  4.9162000  2
   4234   4222   4221   4243     1  0.0000000  0.6024960  3
   4241   4235   4221   4243     1  0.0000000  4.9162000  2
   4241   4235   4221   4243     1  0.0000000  0.6024960  3
   4244   4245   4248   4249     1  180.0000771  0.8368000  1
   4244   4245   4248   4249     1  180.0000771  1.0460000  2
   4244   4245   4248   4249     1  0.0000000  0.7531200  3
   4244   4245   4248   4256     1  0.0000000  0.6508444  3
   4244   4266   4250   4249     1  180.0000771  0.4184000  2
   4244   4266   4250   4249     1  0.0000000  1.6024720  3
   4244   4266   4250   4254     1  180.0000771  5.6484000  1
   4244   4266   4250   4254     1  180.0000771  3.5564000  2
   4244   4266   4250   4254     1  0.0000000  0.4184000  3
   4245   4244   4258   4264     1  0.0000000  0.6508444  3
   4245   4244   4266   4250     1  180.0000771  0.4184000  2
   4245   4244   4266   4250     1  0.0000000  1.6024720  3
   4245   4248   4249   4250     1  180.0000771  0.8368000  1
   4245   4248   4249   4250     1  180.0000771  1.0460000  2
   4245   4248   4249   4250     1  0.0000000  0.7531200  3
   4245   4248   4249   4255     1  0.0000000  0.6508444  3
   4248   4245   4244   4258     1  180.0000771  0.8368000  1
   4248   4245   4244   4258     1  180.0000771  1.0460000  2
   4248   4245   4244   4258     1  0.0000000  0.7531200  3
   4248   4245   4244   4266     1  0.0000000  0.6508444  3
   4248   4249   4250   4254     1  0.0000000  0.6508444  3
   4248   4249   4250   4266     1  0.0000000  0.6508444  3
   4249   4248   4245   4257     1  0.0000000  0.6508444  3
   4250   4249   4248   4256     1  0.0000000  0.6508444  3
   4250   4266   4244   4258     1  180.0000771  0.4184000  2
   4250   4266   4244   4258     1  0.0000000  1.6024720  3
   4254   4250   4249   4255     1  0.0000000  4.9162000  2
   4254   4250   4249   4255     1  0.0000000  0.6024960  3
   4255   4249   4248   4256     1  0.0000000  4.9162000  2
   4255   4249   4248   4256     1  0.0000000  0.6024960  3
   4255   4249   4250   4266     1  0.0000000  4.9162000  2
   4255   4249   4250   4266     1  0.0000000  0.6024960  3
   4256   4248   4245   4257     1  0.0000000  4.9162000  2
   4256   4248   4245   4257     1  0.0000000  0.6024960  3
   4257   4245   4244   4258     1  0.0000000  0.6508444  3
   4257   4245   4244   4266     1  0.0000000  4.9162000  2
   4257   4245   4244   4266     1  0.0000000  0.6024960  3
   4264   4258   4244   4266     1  0.0000000  4.9162000  2
   4264   4258   4244   4266     1  0.0000000  0.6024960  3
   4267   4268   4271   4272     1  180.0000771  0.8368000  1
   4267   4268   4271   4272     1  180.0000771  1.0460000  2
   4267   4268   4271   4272     1  0.0000000  0.7531200  3
   4267   4268   4271   4279     1  0.0000000  0.6508444  3
   4267   4289   4273   4277     1  180.0000771  5.6484000  1
   4267   4289   4273   4277     1  180.0000771  3.5564000  2
   4267   4289   4273   4277     1  0.0000000  0.4184000  3
   4267   4289   4273   4272     1  180.0000771  0.4184000  2
   4267   4289   4273   4272     1  0.0000000  1.6024720  3
   4268   4271   4272   4273     1  180.0000771  0.8368000  1
   4268   4271   4272   4273     1  180.0000771  1.0460000  2
   4268   4271   4272   4273     1  0.0000000  0.7531200  3
   4268   4271   4272   4278     1  0.0000000  0.6508444  3
   4268   4267   4281   4287     1  0.0000000  0.6508444  3
   4268   4267   4289   4273     1  180.0000771  0.4184000  2
   4268   4267   4289   4273     1  0.0000000  1.6024720  3
   4271   4272   4273   4277     1  0.0000000  0.6508444  3
   4271   4272   4273   4289     1  0.0000000  0.6508444  3
   4271   4268   4267   4281     1  180.0000771  0.8368000  1
   4271   4268   4267   4281     1  180.0000771  1.0460000  2
   4271   4268   4267   4281     1  0.0000000  0.7531200  3
   4271   4268   4267   4289     1  0.0000000  0.6508444  3
   4272   4271   4268   4280     1  0.0000000  0.6508444  3
   4273   4289   4267   4281     1  180.0000771  0.4184000  2
   4273   4289   4267   4281     1  0.0000000  1.6024720  3
   4273   4272   4271   4279     1  0.0000000  0.6508444  3
   4277   4273   4272   4278     1  0.0000000  4.9162000  2
   4277   4273   4272   4278     1  0.0000000  0.6024960  3
   4278   4272   4273   4289     1  0.0000000  4.9162000  2
   4278   4272   4273   4289     1  0.0000000  0.6024960  3
   4278   4272   4271   4279     1  0.0000000  4.9162000  2
   4278   4272   4271   4279     1  0.0000000  0.6024960  3
   4279   4271   4268   4280     1  0.0000000  4.9162000  2
   4279   4271   4268   4280     1  0.0000000  0.6024960  3
   4280   4268   4267   4281     1  0.0000000  0.6508444  3
   4280   4268   4267   4289     1  0.0000000  4.9162000  2
   4280   4268   4267   4289     1  0.0000000  0.6024960  3
   4287   4281   4267   4289     1  0.0000000  4.9162000  2
   4287   4281   4267   4289     1  0.0000000  0.6024960  3
   4290   4291   4294   4295     1  180.0000771  0.8368000  1
   4290   4291   4294   4295     1  180.0000771  1.0460000  2
   4290   4291   4294   4295     1  0.0000000  0.7531200  3
   4290   4291   4294   4302     1  0.0000000  0.6508444  3
   4290   4312   4296   4295     1  180.0000771  0.4184000  2
   4290   4312   4296   4295     1  0.0000000  1.6024720  3
   4290   4312   4296   4300     1  180.0000771  5.6484000  1
   4290   4312   4296   4300     1  180.0000771  3.5564000  2
   4290   4312   4296   4300     1  0.0000000  0.4184000  3
   4291   4290   4304   4310     1  0.0000000  0.6508444  3
   4291   4290   4312   4296     1  180.0000771  0.4184000  2
   4291   4290   4312   4296     1  0.0000000  1.6024720  3
   4291   4294   4295   4296     1  180.0000771  0.8368000  1
   4291   4294   4295   4296     1  180.0000771  1.0460000  2
   4291   4294   4295   4296     1  0.0000000  0.7531200  3
   4291   4294   4295   4301     1  0.0000000  0.6508444  3
   4294   4291   4290   4304     1  180.0000771  0.8368000  1
   4294   4291   4290   4304     1  180.0000771  1.0460000  2
   4294   4291   4290   4304     1  0.0000000  0.7531200  3
   4294   4291   4290   4312     1  0.0000000  0.6508444  3
   4294   4295   4296   4300     1  0.0000000  0.6508444  3
   4294   4295   4296   4312     1  0.0000000  0.6508444  3
   4295   4294   4291   4303     1  0.0000000  0.6508444  3
   4296   4295   4294   4302     1  0.0000000  0.6508444  3
   4296   4312   4290   4304     1  180.0000771  0.4184000  2
   4296   4312   4290   4304     1  0.0000000  1.6024720  3
   4300   4296   4295   4301     1  0.0000000  4.9162000  2
   4300   4296   4295   4301     1  0.0000000  0.6024960  3
   4301   4295   4294   4302     1  0.0000000  4.9162000  2
   4301   4295   4294   4302     1  0.0000000  0.6024960  3
   4301   4295   4296   4312     1  0.0000000  4.9162000  2
   4301   4295   4296   4312     1  0.0000000  0.6024960  3
   4302   4294   4291   4303     1  0.0000000  4.9162000  2
   4302   4294   4291   4303     1  0.0000000  0.6024960  3
   4303   4291   4290   4304     1  0.0000000  0.6508444  3
   4303   4291   4290   4312     1  0.0000000  4.9162000  2
   4303   4291   4290   4312     1  0.0000000  0.6024960  3
   4310   4304   4290   4312     1  0.0000000  4.9162000  2
   4310   4304   4290   4312     1  0.0000000  0.6024960  3
   4313   4314   4317   4318     1  180.0000771  0.8368000  1
   4313   4314   4317   4318     1  180.0000771  1.0460000  2
   4313   4314   4317   4318     1  0.0000000  0.7531200  3
   4313   4314   4317   4325     1  0.0000000  0.6508444  3
   4313   4335   4319   4323     1  180.0000771  5.6484000  1
   4313   4335   4319   4323     1  180.0000771  3.5564000  2
   4313   4335   4319   4323     1  0.0000000  0.4184000  3
   4313   4335   4319   4318     1  180.0000771  0.4184000  2
   4313   4335   4319   4318     1  0.0000000  1.6024720  3
   4314   4317   4318   4319     1  180.0000771  0.8368000  1
   4314   4317   4318   4319     1  180.0000771  1.0460000  2
   4314   4317   4318   4319     1  0.0000000  0.7531200  3
   4314   4317   4318   4324     1  0.0000000  0.6508444  3
   4314   4313   4327   4333     1  0.0000000  0.6508444  3
   4314   4313   4335   4319     1  180.0000771  0.4184000  2
   4314   4313   4335   4319     1  0.0000000  1.6024720  3
   4317   4318   4319   4323     1  0.0000000  0.6508444  3
   4317   4318   4319   4335     1  0.0000000  0.6508444  3
   4317   4314   4313   4327     1  180.0000771  0.8368000  1
   4317   4314   4313   4327     1  180.0000771  1.0460000  2
   4317   4314   4313   4327     1  0.0000000  0.7531200  3
   4317   4314   4313   4335     1  0.0000000  0.6508444  3
   4318   4317   4314   4326     1  0.0000000  0.6508444  3
   4319   4335   4313   4327     1  180.0000771  0.4184000  2
   4319   4335   4313   4327     1  0.0000000  1.6024720  3
   4319   4318   4317   4325     1  0.0000000  0.6508444  3
   4323   4319   4318   4324     1  0.0000000  4.9162000  2
   4323   4319   4318   4324     1  0.0000000  0.6024960  3
   4324   4318   4319   4335     1  0.0000000  4.9162000  2
   4324   4318   4319   4335     1  0.0000000  0.6024960  3
   4324   4318   4317   4325     1  0.0000000  4.9162000  2
   4324   4318   4317   4325     1  0.0000000  0.6024960  3
   4325   4317   4314   4326     1  0.0000000  4.9162000  2
   4325   4317   4314   4326     1  0.0000000  0.6024960  3
   4326   4314   4313   4327     1  0.0000000  0.6508444  3
   4326   4314   4313   4335     1  0.0000000  4.9162000  2
   4326   4314   4313   4335     1  0.0000000  0.6024960  3
   4333   4327   4313   4335     1  0.0000000  4.9162000  2
   4333   4327   4313   4335     1  0.0000000  0.6024960  3
   4336   4337   4340   4341     1  180.0000771  0.8368000  1
   4336   4337   4340   4341     1  180.0000771  1.0460000  2
   4336   4337   4340   4341     1  0.0000000  0.7531200  3
   4336   4337   4340   4348     1  0.0000000  0.6508444  3
   4336   4358   4342   4341     1  180.0000771  0.4184000  2
   4336   4358   4342   4341     1  0.0000000  1.6024720  3
   4336   4358   4342   4346     1  180.0000771  5.6484000  1
   4336   4358   4342   4346     1  180.0000771  3.5564000  2
   4336   4358   4342   4346     1  0.0000000  0.4184000  3
   4337   4336   4350   4356     1  0.0000000  0.6508444  3
   4337   4336   4358   4342     1  180.0000771  0.4184000  2
   4337   4336   4358   4342     1  0.0000000  1.6024720  3
   4337   4340   4341   4342     1  180.0000771  0.8368000  1
   4337   4340   4341   4342     1  180.0000771  1.0460000  2
   4337   4340   4341   4342     1  0.0000000  0.7531200  3
   4337   4340   4341   4347     1  0.0000000  0.6508444  3
   4340   4337   4336   4350     1  180.0000771  0.8368000  1
   4340   4337   4336   4350     1  180.0000771  1.0460000  2
   4340   4337   4336   4350     1  0.0000000  0.7531200  3
   4340   4337   4336   4358     1  0.0000000  0.6508444  3
   4340   4341   4342   4346     1  0.0000000  0.6508444  3
   4340   4341   4342   4358     1  0.0000000  0.6508444  3
   4341   4340   4337   4349     1  0.0000000  0.6508444  3
   4342   4341   4340   4348     1  0.0000000  0.6508444  3
   4342   4358   4336   4350     1  180.0000771  0.4184000  2
   4342   4358   4336   4350     1  0.0000000  1.6024720  3
   4346   4342   4341   4347     1  0.0000000  4.9162000  2
   4346   4342   4341   4347     1  0.0000000  0.6024960  3
   4347   4341   4340   4348     1  0.0000000  4.9162000  2
   4347   4341   4340   4348     1  0.0000000  0.6024960  3
   4347   4341   4342   4358     1  0.0000000  4.9162000  2
   4347   4341   4342   4358     1  0.0000000  0.6024960  3
   4348   4340   4337   4349     1  0.0000000  4.9162000  2
   4348   4340   4337   4349     1  0.0000000  0.6024960  3
   4349   4337   4336   4350     1  0.0000000  0.6508444  3
   4349   4337   4336   4358     1  0.0000000  4.9162000  2
   4349   4337   4336   4358     1  0.0000000  0.6024960  3
   4356   4350   4336   4358     1  0.0000000  4.9162000  2
   4356   4350   4336   4358     1  0.0000000  0.6024960  3
   4359   4360   4363   4364     1  180.0000771  0.8368000  1
   4359   4360   4363   4364     1  180.0000771  1.0460000  2
   4359   4360   4363   4364     1  0.0000000  0.7531200  3
   4359   4360   4363   4371     1  0.0000000  0.6508444  3
   4359   4381   4365   4369     1  180.0000771  5.6484000  1
   4359   4381   4365   4369     1  180.0000771  3.5564000  2
   4359   4381   4365   4369     1  0.0000000  0.4184000  3
   4359   4381   4365   4364     1  180.0000771  0.4184000  2
   4359   4381   4365   4364     1  0.0000000  1.6024720  3
   4360   4363   4364   4365     1  180.0000771  0.8368000  1
   4360   4363   4364   4365     1  180.0000771  1.0460000  2
   4360   4363   4364   4365     1  0.0000000  0.7531200  3
   4360   4363   4364   4370     1  0.0000000  0.6508444  3
   4360   4359   4373   4379     1  0.0000000  0.6508444  3
   4360   4359   4381   4365     1  180.0000771  0.4184000  2
   4360   4359   4381   4365     1  0.0000000  1.6024720  3
   4363   4364   4365   4369     1  0.0000000  0.6508444  3
   4363   4364   4365   4381     1  0.0000000  0.6508444  3
   4363   4360   4359   4373     1  180.0000771  0.8368000  1
   4363   4360   4359   4373     1  180.0000771  1.0460000  2
   4363   4360   4359   4373     1  0.0000000  0.7531200  3
   4363   4360   4359   4381     1  0.0000000  0.6508444  3
   4364   4363   4360   4372     1  0.0000000  0.6508444  3
   4365   4381   4359   4373     1  180.0000771  0.4184000  2
   4365   4381   4359   4373     1  0.0000000  1.6024720  3
   4365   4364   4363   4371     1  0.0000000  0.6508444  3
   4369   4365   4364   4370     1  0.0000000  4.9162000  2
   4369   4365   4364   4370     1  0.0000000  0.6024960  3
   4370   4364   4365   4381     1  0.0000000  4.9162000  2
   4370   4364   4365   4381     1  0.0000000  0.6024960  3
   4370   4364   4363   4371     1  0.0000000  4.9162000  2
   4370   4364   4363   4371     1  0.0000000  0.6024960  3
   4371   4363   4360   4372     1  0.0000000  4.9162000  2
   4371   4363   4360   4372     1  0.0000000  0.6024960  3
   4372   4360   4359   4373     1  0.0000000  0.6508444  3
   4372   4360   4359   4381     1  0.0000000  4.9162000  2
   4372   4360   4359   4381     1  0.0000000  0.6024960  3
   4379   4373   4359   4381     1  0.0000000  4.9162000  2
   4379   4373   4359   4381     1  0.0000000  0.6024960  3
   4382   4383   4386   4387     1  180.0000771  0.8368000  1
   4382   4383   4386   4387     1  180.0000771  1.0460000  2
   4382   4383   4386   4387     1  0.0000000  0.7531200  3
   4382   4383   4386   4394     1  0.0000000  0.6508444  3
   4382   4404   4388   4387     1  180.0000771  0.4184000  2
   4382   4404   4388   4387     1  0.0000000  1.6024720  3
   4382   4404   4388   4392     1  180.0000771  5.6484000  1
   4382   4404   4388   4392     1  180.0000771  3.5564000  2
   4382   4404   4388   4392     1  0.0000000  0.4184000  3
   4383   4382   4396   4402     1  0.0000000  0.6508444  3
   4383   4382   4404   4388     1  180.0000771  0.4184000  2
   4383   4382   4404   4388     1  0.0000000  1.6024720  3
   4383   4386   4387   4388     1  180.0000771  0.8368000  1
   4383   4386   4387   4388     1  180.0000771  1.0460000  2
   4383   4386   4387   4388     1  0.0000000  0.7531200  3
   4383   4386   4387   4393     1  0.0000000  0.6508444  3
   4386   4383   4382   4396     1  180.0000771  0.8368000  1
   4386   4383   4382   4396     1  180.0000771  1.0460000  2
   4386   4383   4382   4396     1  0.0000000  0.7531200  3
   4386   4383   4382   4404     1  0.0000000  0.6508444  3
   4386   4387   4388   4392     1  0.0000000  0.6508444  3
   4386   4387   4388   4404     1  0.0000000  0.6508444  3
   4387   4386   4383   4395     1  0.0000000  0.6508444  3
   4388   4387   4386   4394     1  0.0000000  0.6508444  3
   4388   4404   4382   4396     1  180.0000771  0.4184000  2
   4388   4404   4382   4396     1  0.0000000  1.6024720  3
   4392   4388   4387   4393     1  0.0000000  4.9162000  2
   4392   4388   4387   4393     1  0.0000000  0.6024960  3
   4393   4387   4386   4394     1  0.0000000  4.9162000  2
   4393   4387   4386   4394     1  0.0000000  0.6024960  3
   4393   4387   4388   4404     1  0.0000000  4.9162000  2
   4393   4387   4388   4404     1  0.0000000  0.6024960  3
   4394   4386   4383   4395     1  0.0000000  4.9162000  2
   4394   4386   4383   4395     1  0.0000000  0.6024960  3
   4395   4383   4382   4396     1  0.0000000  0.6508444  3
   4395   4383   4382   4404     1  0.0000000  4.9162000  2
   4395   4383   4382   4404     1  0.0000000  0.6024960  3
   4402   4396   4382   4404     1  0.0000000  4.9162000  2
   4402   4396   4382   4404     1  0.0000000  0.6024960  3
   4405   4406   4409   4410     1  180.0000771  0.8368000  1
   4405   4406   4409   4410     1  180.0000771  1.0460000  2
   4405   4406   4409   4410     1  0.0000000  0.7531200  3
   4405   4406   4409   4417     1  0.0000000  0.6508444  3
   4405   4427   4411   4415     1  180.0000771  5.6484000  1
   4405   4427   4411   4415     1  180.0000771  3.5564000  2
   4405   4427   4411   4415     1  0.0000000  0.4184000  3
   4405   4427   4411   4410     1  180.0000771  0.4184000  2
   4405   4427   4411   4410     1  0.0000000  1.6024720  3
   4406   4409   4410   4411     1  180.0000771  0.8368000  1
   4406   4409   4410   4411     1  180.0000771  1.0460000  2
   4406   4409   4410   4411     1  0.0000000  0.7531200  3
   4406   4409   4410   4416     1  0.0000000  0.6508444  3
   4406   4405   4419   4425     1  0.0000000  0.6508444  3
   4406   4405   4427   4411     1  180.0000771  0.4184000  2
   4406   4405   4427   4411     1  0.0000000  1.6024720  3
   4409   4410   4411   4415     1  0.0000000  0.6508444  3
   4409   4410   4411   4427     1  0.0000000  0.6508444  3
   4409   4406   4405   4419     1  180.0000771  0.8368000  1
   4409   4406   4405   4419     1  180.0000771  1.0460000  2
   4409   4406   4405   4419     1  0.0000000  0.7531200  3
   4409   4406   4405   4427     1  0.0000000  0.6508444  3
   4410   4409   4406   4418     1  0.0000000  0.6508444  3
   4411   4427   4405   4419     1  180.0000771  0.4184000  2
   4411   4427   4405   4419     1  0.0000000  1.6024720  3
   4411   4410   4409   4417     1  0.0000000  0.6508444  3
   4415   4411   4410   4416     1  0.0000000  4.9162000  2
   4415   4411   4410   4416     1  0.0000000  0.6024960  3
   4416   4410   4411   4427     1  0.0000000  4.9162000  2
   4416   4410   4411   4427     1  0.0000000  0.6024960  3
   4416   4410   4409   4417     1  0.0000000  4.9162000  2
   4416   4410   4409   4417     1  0.0000000  0.6024960  3
   4417   4409   4406   4418     1  0.0000000  4.9162000  2
   4417   4409   4406   4418     1  0.0000000  0.6024960  3
   4418   4406   4405   4419     1  0.0000000  0.6508444  3
   4418   4406   4405   4427     1  0.0000000  4.9162000  2
   4418   4406   4405   4427     1  0.0000000  0.6024960  3
   4425   4419   4405   4427     1  0.0000000  4.9162000  2
   4425   4419   4405   4427     1  0.0000000  0.6024960  3
   4428   4429   4432   4433     1  180.0000771  0.8368000  1
   4428   4429   4432   4433     1  180.0000771  1.0460000  2
   4428   4429   4432   4433     1  0.0000000  0.7531200  3
   4428   4429   4432   4440     1  0.0000000  0.6508444  3
   4428   4450   4434   4433     1  180.0000771  0.4184000  2
   4428   4450   4434   4433     1  0.0000000  1.6024720  3
   4428   4450   4434   4438     1  180.0000771  5.6484000  1
   4428   4450   4434   4438     1  180.0000771  3.5564000  2
   4428   4450   4434   4438     1  0.0000000  0.4184000  3
   4429   4428   4442   4448     1  0.0000000  0.6508444  3
   4429   4428   4450   4434     1  180.0000771  0.4184000  2
   4429   4428   4450   4434     1  0.0000000  1.6024720  3
   4429   4432   4433   4434     1  180.0000771  0.8368000  1
   4429   4432   4433   4434     1  180.0000771  1.0460000  2
   4429   4432   4433   4434     1  0.0000000  0.7531200  3
   4429   4432   4433   4439     1  0.0000000  0.6508444  3
   4432   4429   4428   4442     1  180.0000771  0.8368000  1
   4432   4429   4428   4442     1  180.0000771  1.0460000  2
   4432   4429   4428   4442     1  0.0000000  0.7531200  3
   4432   4429   4428   4450     1  0.0000000  0.6508444  3
   4432   4433   4434   4438     1  0.0000000  0.6508444  3
   4432   4433   4434   4450     1  0.0000000  0.6508444  3
   4433   4432   4429   4441     1  0.0000000  0.6508444  3
   4434   4433   4432   4440     1  0.0000000  0.6508444  3
   4434   4450   4428   4442     1  180.0000771  0.4184000  2
   4434   4450   4428   4442     1  0.0000000  1.6024720  3
   4438   4434   4433   4439     1  0.0000000  4.9162000  2
   4438   4434   4433   4439     1  0.0000000  0.6024960  3
   4439   4433   4432   4440     1  0.0000000  4.9162000  2
   4439   4433   4432   4440     1  0.0000000  0.6024960  3
   4439   4433   4434   4450     1  0.0000000  4.9162000  2
   4439   4433   4434   4450     1  0.0000000  0.6024960  3
   4440   4432   4429   4441     1  0.0000000  4.9162000  2
   4440   4432   4429   4441     1  0.0000000  0.6024960  3
   4441   4429   4428   4442     1  0.0000000  0.6508444  3
   4441   4429   4428   4450     1  0.0000000  4.9162000  2
   4441   4429   4428   4450     1  0.0000000  0.6024960  3
   4448   4442   4428   4450     1  0.0000000  4.9162000  2
   4448   4442   4428   4450     1  0.0000000  0.6024960  3
   4451   4452   4455   4456     1  180.0000771  0.8368000  1
   4451   4452   4455   4456     1  180.0000771  1.0460000  2
   4451   4452   4455   4456     1  0.0000000  0.7531200  3
   4451   4452   4455   4463     1  0.0000000  0.6508444  3
   4451   4473   4457   4461     1  180.0000771  5.6484000  1
   4451   4473   4457   4461     1  180.0000771  3.5564000  2
   4451   4473   4457   4461     1  0.0000000  0.4184000  3
   4451   4473   4457   4456     1  180.0000771  0.4184000  2
   4451   4473   4457   4456     1  0.0000000  1.6024720  3
   4452   4455   4456   4457     1  180.0000771  0.8368000  1
   4452   4455   4456   4457     1  180.0000771  1.0460000  2
   4452   4455   4456   4457     1  0.0000000  0.7531200  3
   4452   4455   4456   4462     1  0.0000000  0.6508444  3
   4452   4451   4465   4471     1  0.0000000  0.6508444  3
   4452   4451   4473   4457     1  180.0000771  0.4184000  2
   4452   4451   4473   4457     1  0.0000000  1.6024720  3
   4455   4456   4457   4461     1  0.0000000  0.6508444  3
   4455   4456   4457   4473     1  0.0000000  0.6508444  3
   4455   4452   4451   4465     1  180.0000771  0.8368000  1
   4455   4452   4451   4465     1  180.0000771  1.0460000  2
   4455   4452   4451   4465     1  0.0000000  0.7531200  3
   4455   4452   4451   4473     1  0.0000000  0.6508444  3
   4456   4455   4452   4464     1  0.0000000  0.6508444  3
   4457   4473   4451   4465     1  180.0000771  0.4184000  2
   4457   4473   4451   4465     1  0.0000000  1.6024720  3
   4457   4456   4455   4463     1  0.0000000  0.6508444  3
   4461   4457   4456   4462     1  0.0000000  4.9162000  2
   4461   4457   4456   4462     1  0.0000000  0.6024960  3
   4462   4456   4457   4473     1  0.0000000  4.9162000  2
   4462   4456   4457   4473     1  0.0000000  0.6024960  3
   4462   4456   4455   4463     1  0.0000000  4.9162000  2
   4462   4456   4455   4463     1  0.0000000  0.6024960  3
   4463   4455   4452   4464     1  0.0000000  4.9162000  2
   4463   4455   4452   4464     1  0.0000000  0.6024960  3
   4464   4452   4451   4465     1  0.0000000  0.6508444  3
   4464   4452   4451   4473     1  0.0000000  4.9162000  2
   4464   4452   4451   4473     1  0.0000000  0.6024960  3
   4471   4465   4451   4473     1  0.0000000  4.9162000  2
   4471   4465   4451   4473     1  0.0000000  0.6024960  3
   4474   4475   4478   4479     1  180.0000771  0.8368000  1
   4474   4475   4478   4479     1  180.0000771  1.0460000  2
   4474   4475   4478   4479     1  0.0000000  0.7531200  3
   4474   4475   4478   4486     1  0.0000000  0.6508444  3
   4474   4496   4480   4479     1  180.0000771  0.4184000  2
   4474   4496   4480   4479     1  0.0000000  1.6024720  3
   4474   4496   4480   4484     1  180.0000771  5.6484000  1
   4474   4496   4480   4484     1  180.0000771  3.5564000  2
   4474   4496   4480   4484     1  0.0000000  0.4184000  3
   4475   4474   4488   4494     1  0.0000000  0.6508444  3
   4475   4474   4496   4480     1  180.0000771  0.4184000  2
   4475   4474   4496   4480     1  0.0000000  1.6024720  3
   4475   4478   4479   4480     1  180.0000771  0.8368000  1
   4475   4478   4479   4480     1  180.0000771  1.0460000  2
   4475   4478   4479   4480     1  0.0000000  0.7531200  3
   4475   4478   4479   4485     1  0.0000000  0.6508444  3
   4478   4475   4474   4488     1  180.0000771  0.8368000  1
   4478   4475   4474   4488     1  180.0000771  1.0460000  2
   4478   4475   4474   4488     1  0.0000000  0.7531200  3
   4478   4475   4474   4496     1  0.0000000  0.6508444  3
   4478   4479   4480   4484     1  0.0000000  0.6508444  3
   4478   4479   4480   4496     1  0.0000000  0.6508444  3
   4479   4478   4475   4487     1  0.0000000  0.6508444  3
   4480   4479   4478   4486     1  0.0000000  0.6508444  3
   4480   4496   4474   4488     1  180.0000771  0.4184000  2
   4480   4496   4474   4488     1  0.0000000  1.6024720  3
   4484   4480   4479   4485     1  0.0000000  4.9162000  2
   4484   4480   4479   4485     1  0.0000000  0.6024960  3
   4485   4479   4478   4486     1  0.0000000  4.9162000  2
   4485   4479   4478   4486     1  0.0000000  0.6024960  3
   4485   4479   4480   4496     1  0.0000000  4.9162000  2
   4485   4479   4480   4496     1  0.0000000  0.6024960  3
   4486   4478   4475   4487     1  0.0000000  4.9162000  2
   4486   4478   4475   4487     1  0.0000000  0.6024960  3
   4487   4475   4474   4488     1  0.0000000  0.6508444  3
   4487   4475   4474   4496     1  0.0000000  4.9162000  2
   4487   4475   4474   4496     1  0.0000000  0.6024960  3
   4494   4488   4474   4496     1  0.0000000  4.9162000  2
   4494   4488   4474   4496     1  0.0000000  0.6024960  3
   4497   4498   4501   4502     1  180.0000771  0.8368000  1
   4497   4498   4501   4502     1  180.0000771  1.0460000  2
   4497   4498   4501   4502     1  0.0000000  0.7531200  3
   4497   4498   4501   4509     1  0.0000000  0.6508444  3
   4497   4519   4503   4507     1  180.0000771  5.6484000  1
   4497   4519   4503   4507     1  180.0000771  3.5564000  2
   4497   4519   4503   4507     1  0.0000000  0.4184000  3
   4497   4519   4503   4502     1  180.0000771  0.4184000  2
   4497   4519   4503   4502     1  0.0000000  1.6024720  3
   4498   4501   4502   4503     1  180.0000771  0.8368000  1
   4498   4501   4502   4503     1  180.0000771  1.0460000  2
   4498   4501   4502   4503     1  0.0000000  0.7531200  3
   4498   4501   4502   4508     1  0.0000000  0.6508444  3
   4498   4497   4511   4517     1  0.0000000  0.6508444  3
   4498   4497   4519   4503     1  180.0000771  0.4184000  2
   4498   4497   4519   4503     1  0.0000000  1.6024720  3
   4501   4502   4503   4507     1  0.0000000  0.6508444  3
   4501   4502   4503   4519     1  0.0000000  0.6508444  3
   4501   4498   4497   4511     1  180.0000771  0.8368000  1
   4501   4498   4497   4511     1  180.0000771  1.0460000  2
   4501   4498   4497   4511     1  0.0000000  0.7531200  3
   4501   4498   4497   4519     1  0.0000000  0.6508444  3
   4502   4501   4498   4510     1  0.0000000  0.6508444  3
   4503   4519   4497   4511     1  180.0000771  0.4184000  2
   4503   4519   4497   4511     1  0.0000000  1.6024720  3
   4503   4502   4501   4509     1  0.0000000  0.6508444  3
   4507   4503   4502   4508     1  0.0000000  4.9162000  2
   4507   4503   4502   4508     1  0.0000000  0.6024960  3
   4508   4502   4503   4519     1  0.0000000  4.9162000  2
   4508   4502   4503   4519     1  0.0000000  0.6024960  3
   4508   4502   4501   4509     1  0.0000000  4.9162000  2
   4508   4502   4501   4509     1  0.0000000  0.6024960  3
   4509   4501   4498   4510     1  0.0000000  4.9162000  2
   4509   4501   4498   4510     1  0.0000000  0.6024960  3
   4510   4498   4497   4511     1  0.0000000  0.6508444  3
   4510   4498   4497   4519     1  0.0000000  4.9162000  2
   4510   4498   4497   4519     1  0.0000000  0.6024960  3
   4517   4511   4497   4519     1  0.0000000  4.9162000  2
   4517   4511   4497   4519     1  0.0000000  0.6024960  3
   4520   4521   4524   4525     1  180.0000771  0.8368000  1
   4520   4521   4524   4525     1  180.0000771  1.0460000  2
   4520   4521   4524   4525     1  0.0000000  0.7531200  3
   4520   4521   4524   4532     1  0.0000000  0.6508444  3
   4520   4542   4526   4525     1  180.0000771  0.4184000  2
   4520   4542   4526   4525     1  0.0000000  1.6024720  3
   4520   4542   4526   4530     1  180.0000771  5.6484000  1
   4520   4542   4526   4530     1  180.0000771  3.5564000  2
   4520   4542   4526   4530     1  0.0000000  0.4184000  3
   4521   4520   4534   4540     1  0.0000000  0.6508444  3
   4521   4520   4542   4526     1  180.0000771  0.4184000  2
   4521   4520   4542   4526     1  0.0000000  1.6024720  3
   4521   4524   4525   4526     1  180.0000771  0.8368000  1
   4521   4524   4525   4526     1  180.0000771  1.0460000  2
   4521   4524   4525   4526     1  0.0000000  0.7531200  3
   4521   4524   4525   4531     1  0.0000000  0.6508444  3
   4524   4521   4520   4534     1  180.0000771  0.8368000  1
   4524   4521   4520   4534     1  180.0000771  1.0460000  2
   4524   4521   4520   4534     1  0.0000000  0.7531200  3
   4524   4521   4520   4542     1  0.0000000  0.6508444  3
   4524   4525   4526   4530     1  0.0000000  0.6508444  3
   4524   4525   4526   4542     1  0.0000000  0.6508444  3
   4525   4524   4521   4533     1  0.0000000  0.6508444  3
   4526   4525   4524   4532     1  0.0000000  0.6508444  3
   4526   4542   4520   4534     1  180.0000771  0.4184000  2
   4526   4542   4520   4534     1  0.0000000  1.6024720  3
   4530   4526   4525   4531     1  0.0000000  4.9162000  2
   4530   4526   4525   4531     1  0.0000000  0.6024960  3
   4531   4525   4524   4532     1  0.0000000  4.9162000  2
   4531   4525   4524   4532     1  0.0000000  0.6024960  3
   4531   4525   4526   4542     1  0.0000000  4.9162000  2
   4531   4525   4526   4542     1  0.0000000  0.6024960  3
   4532   4524   4521   4533     1  0.0000000  4.9162000  2
   4532   4524   4521   4533     1  0.0000000  0.6024960  3
   4533   4521   4520   4534     1  0.0000000  0.6508444  3
   4533   4521   4520   4542     1  0.0000000  4.9162000  2
   4533   4521   4520   4542     1  0.0000000  0.6024960  3
   4540   4534   4520   4542     1  0.0000000  4.9162000  2
   4540   4534   4520   4542     1  0.0000000  0.6024960  3
   4543   4544   4547   4548     1  180.0000771  0.8368000  1
   4543   4544   4547   4548     1  180.0000771  1.0460000  2
   4543   4544   4547   4548     1  0.0000000  0.7531200  3
   4543   4544   4547   4555     1  0.0000000  0.6508444  3
   4543   4565   4549   4553     1  180.0000771  5.6484000  1
   4543   4565   4549   4553     1  180.0000771  3.5564000  2
   4543   4565   4549   4553     1  0.0000000  0.4184000  3
   4543   4565   4549   4548     1  180.0000771  0.4184000  2
   4543   4565   4549   4548     1  0.0000000  1.6024720  3
   4544   4547   4548   4549     1  180.0000771  0.8368000  1
   4544   4547   4548   4549     1  180.0000771  1.0460000  2
   4544   4547   4548   4549     1  0.0000000  0.7531200  3
   4544   4547   4548   4554     1  0.0000000  0.6508444  3
   4544   4543   4557   4563     1  0.0000000  0.6508444  3
   4544   4543   4565   4549     1  180.0000771  0.4184000  2
   4544   4543   4565   4549     1  0.0000000  1.6024720  3
   4547   4548   4549   4553     1  0.0000000  0.6508444  3
   4547   4548   4549   4565     1  0.0000000  0.6508444  3
   4547   4544   4543   4557     1  180.0000771  0.8368000  1
   4547   4544   4543   4557     1  180.0000771  1.0460000  2
   4547   4544   4543   4557     1  0.0000000  0.7531200  3
   4547   4544   4543   4565     1  0.0000000  0.6508444  3
   4548   4547   4544   4556     1  0.0000000  0.6508444  3
   4549   4565   4543   4557     1  180.0000771  0.4184000  2
   4549   4565   4543   4557     1  0.0000000  1.6024720  3
   4549   4548   4547   4555     1  0.0000000  0.6508444  3
   4553   4549   4548   4554     1  0.0000000  4.9162000  2
   4553   4549   4548   4554     1  0.0000000  0.6024960  3
   4554   4548   4549   4565     1  0.0000000  4.9162000  2
   4554   4548   4549   4565     1  0.0000000  0.6024960  3
   4554   4548   4547   4555     1  0.0000000  4.9162000  2
   4554   4548   4547   4555     1  0.0000000  0.6024960  3
   4555   4547   4544   4556     1  0.0000000  4.9162000  2
   4555   4547   4544   4556     1  0.0000000  0.6024960  3
   4556   4544   4543   4557     1  0.0000000  0.6508444  3
   4556   4544   4543   4565     1  0.0000000  4.9162000  2
   4556   4544   4543   4565     1  0.0000000  0.6024960  3
   4563   4557   4543   4565     1  0.0000000  4.9162000  2
   4563   4557   4543   4565     1  0.0000000  0.6024960  3
   4566   4567   4570   4571     1  180.0000771  0.8368000  1
   4566   4567   4570   4571     1  180.0000771  1.0460000  2
   4566   4567   4570   4571     1  0.0000000  0.7531200  3
   4566   4567   4570   4578     1  0.0000000  0.6508444  3
   4566   4588   4572   4571     1  180.0000771  0.4184000  2
   4566   4588   4572   4571     1  0.0000000  1.6024720  3
   4566   4588   4572   4576     1  180.0000771  5.6484000  1
   4566   4588   4572   4576     1  180.0000771  3.5564000  2
   4566   4588   4572   4576     1  0.0000000  0.4184000  3
   4567   4566   4580   4586     1  0.0000000  0.6508444  3
   4567   4566   4588   4572     1  180.0000771  0.4184000  2
   4567   4566   4588   4572     1  0.0000000  1.6024720  3
   4567   4570   4571   4572     1  180.0000771  0.8368000  1
   4567   4570   4571   4572     1  180.0000771  1.0460000  2
   4567   4570   4571   4572     1  0.0000000  0.7531200  3
   4567   4570   4571   4577     1  0.0000000  0.6508444  3
   4570   4567   4566   4580     1  180.0000771  0.8368000  1
   4570   4567   4566   4580     1  180.0000771  1.0460000  2
   4570   4567   4566   4580     1  0.0000000  0.7531200  3
   4570   4567   4566   4588     1  0.0000000  0.6508444  3
   4570   4571   4572   4576     1  0.0000000  0.6508444  3
   4570   4571   4572   4588     1  0.0000000  0.6508444  3
   4571   4570   4567   4579     1  0.0000000  0.6508444  3
   4572   4571   4570   4578     1  0.0000000  0.6508444  3
   4572   4588   4566   4580     1  180.0000771  0.4184000  2
   4572   4588   4566   4580     1  0.0000000  1.6024720  3
   4576   4572   4571   4577     1  0.0000000  4.9162000  2
   4576   4572   4571   4577     1  0.0000000  0.6024960  3
   4577   4571   4570   4578     1  0.0000000  4.9162000  2
   4577   4571   4570   4578     1  0.0000000  0.6024960  3
   4577   4571   4572   4588     1  0.0000000  4.9162000  2
   4577   4571   4572   4588     1  0.0000000  0.6024960  3
   4578   4570   4567   4579     1  0.0000000  4.9162000  2
   4578   4570   4567   4579     1  0.0000000  0.6024960  3
   4579   4567   4566   4580     1  0.0000000  0.6508444  3
   4579   4567   4566   4588     1  0.0000000  4.9162000  2
   4579   4567   4566   4588     1  0.0000000  0.6024960  3
   4586   4580   4566   4588     1  0.0000000  4.9162000  2
   4586   4580   4566   4588     1  0.0000000  0.6024960  3
   4589   4590   4593   4594     1  180.0000771  0.8368000  1
   4589   4590   4593   4594     1  180.0000771  1.0460000  2
   4589   4590   4593   4594     1  0.0000000  0.7531200  3
   4589   4590   4593   4601     1  0.0000000  0.6508444  3
   4589   4611   4595   4599     1  180.0000771  5.6484000  1
   4589   4611   4595   4599     1  180.0000771  3.5564000  2
   4589   4611   4595   4599     1  0.0000000  0.4184000  3
   4589   4611   4595   4594     1  180.0000771  0.4184000  2
   4589   4611   4595   4594     1  0.0000000  1.6024720  3
   4590   4593   4594   4595     1  180.0000771  0.8368000  1
   4590   4593   4594   4595     1  180.0000771  1.0460000  2
   4590   4593   4594   4595     1  0.0000000  0.7531200  3
   4590   4593   4594   4600     1  0.0000000  0.6508444  3
   4590   4589   4603   4609     1  0.0000000  0.6508444  3
   4590   4589   4611   4595     1  180.0000771  0.4184000  2
   4590   4589   4611   4595     1  0.0000000  1.6024720  3
   4593   4594   4595   4599     1  0.0000000  0.6508444  3
   4593   4594   4595   4611     1  0.0000000  0.6508444  3
   4593   4590   4589   4603     1  180.0000771  0.8368000  1
   4593   4590   4589   4603     1  180.0000771  1.0460000  2
   4593   4590   4589   4603     1  0.0000000  0.7531200  3
   4593   4590   4589   4611     1  0.0000000  0.6508444  3
   4594   4593   4590   4602     1  0.0000000  0.6508444  3
   4595   4611   4589   4603     1  180.0000771  0.4184000  2
   4595   4611   4589   4603     1  0.0000000  1.6024720  3
   4595   4594   4593   4601     1  0.0000000  0.6508444  3
   4599   4595   4594   4600     1  0.0000000  4.9162000  2
   4599   4595   4594   4600     1  0.0000000  0.6024960  3
   4600   4594   4595   4611     1  0.0000000  4.9162000  2
   4600   4594   4595   4611     1  0.0000000  0.6024960  3
   4600   4594   4593   4601     1  0.0000000  4.9162000  2
   4600   4594   4593   4601     1  0.0000000  0.6024960  3
   4601   4593   4590   4602     1  0.0000000  4.9162000  2
   4601   4593   4590   4602     1  0.0000000  0.6024960  3
   4602   4590   4589   4603     1  0.0000000  0.6508444  3
   4602   4590   4589   4611     1  0.0000000  4.9162000  2
   4602   4590   4589   4611     1  0.0000000  0.6024960  3
   4609   4603   4589   4611     1  0.0000000  4.9162000  2
   4609   4603   4589   4611     1  0.0000000  0.6024960  3
   4612   4613   4616   4617     1  180.0000771  0.8368000  1
   4612   4613   4616   4617     1  180.0000771  1.0460000  2
   4612   4613   4616   4617     1  0.0000000  0.7531200  3
   4612   4613   4616   4624     1  0.0000000  0.6508444  3
   4612   4634   4618   4617     1  180.0000771  0.4184000  2
   4612   4634   4618   4617     1  0.0000000  1.6024720  3
   4612   4634   4618   4622     1  180.0000771  5.6484000  1
   4612   4634   4618   4622     1  180.0000771  3.5564000  2
   4612   4634   4618   4622     1  0.0000000  0.4184000  3
   4613   4612   4626   4632     1  0.0000000  0.6508444  3
   4613   4612   4634   4618     1  180.0000771  0.4184000  2
   4613   4612   4634   4618     1  0.0000000  1.6024720  3
   4613   4616   4617   4618     1  180.0000771  0.8368000  1
   4613   4616   4617   4618     1  180.0000771  1.0460000  2
   4613   4616   4617   4618     1  0.0000000  0.7531200  3
   4613   4616   4617   4623     1  0.0000000  0.6508444  3
   4616   4613   4612   4626     1  180.0000771  0.8368000  1
   4616   4613   4612   4626     1  180.0000771  1.0460000  2
   4616   4613   4612   4626     1  0.0000000  0.7531200  3
   4616   4613   4612   4634     1  0.0000000  0.6508444  3
   4616   4617   4618   4622     1  0.0000000  0.6508444  3
   4616   4617   4618   4634     1  0.0000000  0.6508444  3
   4617   4616   4613   4625     1  0.0000000  0.6508444  3
   4618   4617   4616   4624     1  0.0000000  0.6508444  3
   4618   4634   4612   4626     1  180.0000771  0.4184000  2
   4618   4634   4612   4626     1  0.0000000  1.6024720  3
   4622   4618   4617   4623     1  0.0000000  4.9162000  2
   4622   4618   4617   4623     1  0.0000000  0.6024960  3
   4623   4617   4616   4624     1  0.0000000  4.9162000  2
   4623   4617   4616   4624     1  0.0000000  0.6024960  3
   4623   4617   4618   4634     1  0.0000000  4.9162000  2
   4623   4617   4618   4634     1  0.0000000  0.6024960  3
   4624   4616   4613   4625     1  0.0000000  4.9162000  2
   4624   4616   4613   4625     1  0.0000000  0.6024960  3
   4625   4613   4612   4626     1  0.0000000  0.6508444  3
   4625   4613   4612   4634     1  0.0000000  4.9162000  2
   4625   4613   4612   4634     1  0.0000000  0.6024960  3
   4632   4626   4612   4634     1  0.0000000  4.9162000  2
   4632   4626   4612   4634     1  0.0000000  0.6024960  3
   4635   4636   4639   4640     1  180.0000771  0.8368000  1
   4635   4636   4639   4640     1  180.0000771  1.0460000  2
   4635   4636   4639   4640     1  0.0000000  0.7531200  3
   4635   4636   4639   4647     1  0.0000000  0.6508444  3
   4635   4657   4641   4645     1  180.0000771  5.6484000  1
   4635   4657   4641   4645     1  180.0000771  3.5564000  2
   4635   4657   4641   4645     1  0.0000000  0.4184000  3
   4635   4657   4641   4640     1  180.0000771  0.4184000  2
   4635   4657   4641   4640     1  0.0000000  1.6024720  3
   4636   4639   4640   4641     1  180.0000771  0.8368000  1
   4636   4639   4640   4641     1  180.0000771  1.0460000  2
   4636   4639   4640   4641     1  0.0000000  0.7531200  3
   4636   4639   4640   4646     1  0.0000000  0.6508444  3
   4636   4635   4649   4655     1  0.0000000  0.6508444  3
   4636   4635   4657   4641     1  180.0000771  0.4184000  2
   4636   4635   4657   4641     1  0.0000000  1.6024720  3
   4639   4640   4641   4645     1  0.0000000  0.6508444  3
   4639   4640   4641   4657     1  0.0000000  0.6508444  3
   4639   4636   4635   4649     1  180.0000771  0.8368000  1
   4639   4636   4635   4649     1  180.0000771  1.0460000  2
   4639   4636   4635   4649     1  0.0000000  0.7531200  3
   4639   4636   4635   4657     1  0.0000000  0.6508444  3
   4640   4639   4636   4648     1  0.0000000  0.6508444  3
   4641   4657   4635   4649     1  180.0000771  0.4184000  2
   4641   4657   4635   4649     1  0.0000000  1.6024720  3
   4641   4640   4639   4647     1  0.0000000  0.6508444  3
   4645   4641   4640   4646     1  0.0000000  4.9162000  2
   4645   4641   4640   4646     1  0.0000000  0.6024960  3
   4646   4640   4641   4657     1  0.0000000  4.9162000  2
   4646   4640   4641   4657     1  0.0000000  0.6024960  3
   4646   4640   4639   4647     1  0.0000000  4.9162000  2
   4646   4640   4639   4647     1  0.0000000  0.6024960  3
   4647   4639   4636   4648     1  0.0000000  4.9162000  2
   4647   4639   4636   4648     1  0.0000000  0.6024960  3
   4648   4636   4635   4649     1  0.0000000  0.6508444  3
   4648   4636   4635   4657     1  0.0000000  4.9162000  2
   4648   4636   4635   4657     1  0.0000000  0.6024960  3
   4655   4649   4635   4657     1  0.0000000  4.9162000  2
   4655   4649   4635   4657     1  0.0000000  0.6024960  3
   4658   4659   4662   4663     1  180.0000771  0.8368000  1
   4658   4659   4662   4663     1  180.0000771  1.0460000  2
   4658   4659   4662   4663     1  0.0000000  0.7531200  3
   4658   4659   4662   4670     1  0.0000000  0.6508444  3
   4658   4680   4664   4663     1  180.0000771  0.4184000  2
   4658   4680   4664   4663     1  0.0000000  1.6024720  3
   4658   4680   4664   4668     1  180.0000771  5.6484000  1
   4658   4680   4664   4668     1  180.0000771  3.5564000  2
   4658   4680   4664   4668     1  0.0000000  0.4184000  3
   4659   4658   4672   4678     1  0.0000000  0.6508444  3
   4659   4658   4680   4664     1  180.0000771  0.4184000  2
   4659   4658   4680   4664     1  0.0000000  1.6024720  3
   4659   4662   4663   4664     1  180.0000771  0.8368000  1
   4659   4662   4663   4664     1  180.0000771  1.0460000  2
   4659   4662   4663   4664     1  0.0000000  0.7531200  3
   4659   4662   4663   4669     1  0.0000000  0.6508444  3
   4662   4659   4658   4672     1  180.0000771  0.8368000  1
   4662   4659   4658   4672     1  180.0000771  1.0460000  2
   4662   4659   4658   4672     1  0.0000000  0.7531200  3
   4662   4659   4658   4680     1  0.0000000  0.6508444  3
   4662   4663   4664   4668     1  0.0000000  0.6508444  3
   4662   4663   4664   4680     1  0.0000000  0.6508444  3
   4663   4662   4659   4671     1  0.0000000  0.6508444  3
   4664   4663   4662   4670     1  0.0000000  0.6508444  3
   4664   4680   4658   4672     1  180.0000771  0.4184000  2
   4664   4680   4658   4672     1  0.0000000  1.6024720  3
   4668   4664   4663   4669     1  0.0000000  4.9162000  2
   4668   4664   4663   4669     1  0.0000000  0.6024960  3
   4669   4663   4662   4670     1  0.0000000  4.9162000  2
   4669   4663   4662   4670     1  0.0000000  0.6024960  3
   4669   4663   4664   4680     1  0.0000000  4.9162000  2
   4669   4663   4664   4680     1  0.0000000  0.6024960  3
   4670   4662   4659   4671     1  0.0000000  4.9162000  2
   4670   4662   4659   4671     1  0.0000000  0.6024960  3
   4671   4659   4658   4672     1  0.0000000  0.6508444  3
   4671   4659   4658   4680     1  0.0000000  4.9162000  2
   4671   4659   4658   4680     1  0.0000000  0.6024960  3
   4678   4672   4658   4680     1  0.0000000  4.9162000  2
   4678   4672   4658   4680     1  0.0000000  0.6024960  3
   4681   4682   4685   4686     1  180.0000771  0.8368000  1
   4681   4682   4685   4686     1  180.0000771  1.0460000  2
   4681   4682   4685   4686     1  0.0000000  0.7531200  3
   4681   4682   4685   4693     1  0.0000000  0.6508444  3
   4681   4703   4687   4691     1  180.0000771  5.6484000  1
   4681   4703   4687   4691     1  180.0000771  3.5564000  2
   4681   4703   4687   4691     1  0.0000000  0.4184000  3
   4681   4703   4687   4686     1  180.0000771  0.4184000  2
   4681   4703   4687   4686     1  0.0000000  1.6024720  3
   4682   4685   4686   4687     1  180.0000771  0.8368000  1
   4682   4685   4686   4687     1  180.0000771  1.0460000  2
   4682   4685   4686   4687     1  0.0000000  0.7531200  3
   4682   4685   4686   4692     1  0.0000000  0.6508444  3
   4682   4681   4695   4701     1  0.0000000  0.6508444  3
   4682   4681   4703   4687     1  180.0000771  0.4184000  2
   4682   4681   4703   4687     1  0.0000000  1.6024720  3
   4685   4686   4687   4691     1  0.0000000  0.6508444  3
   4685   4686   4687   4703     1  0.0000000  0.6508444  3
   4685   4682   4681   4695     1  180.0000771  0.8368000  1
   4685   4682   4681   4695     1  180.0000771  1.0460000  2
   4685   4682   4681   4695     1  0.0000000  0.7531200  3
   4685   4682   4681   4703     1  0.0000000  0.6508444  3
   4686   4685   4682   4694     1  0.0000000  0.6508444  3
   4687   4703   4681   4695     1  180.0000771  0.4184000  2
   4687   4703   4681   4695     1  0.0000000  1.6024720  3
   4687   4686   4685   4693     1  0.0000000  0.6508444  3
   4691   4687   4686   4692     1  0.0000000  4.9162000  2
   4691   4687   4686   4692     1  0.0000000  0.6024960  3
   4692   4686   4687   4703     1  0.0000000  4.9162000  2
   4692   4686   4687   4703     1  0.0000000  0.6024960  3
   4692   4686   4685   4693     1  0.0000000  4.9162000  2
   4692   4686   4685   4693     1  0.0000000  0.6024960  3
   4693   4685   4682   4694     1  0.0000000  4.9162000  2
   4693   4685   4682   4694     1  0.0000000  0.6024960  3
   4694   4682   4681   4695     1  0.0000000  0.6508444  3
   4694   4682   4681   4703     1  0.0000000  4.9162000  2
   4694   4682   4681   4703     1  0.0000000  0.6024960  3
   4701   4695   4681   4703     1  0.0000000  4.9162000  2
   4701   4695   4681   4703     1  0.0000000  0.6024960  3
   4704   4705   4708   4709     1  180.0000771  0.8368000  1
   4704   4705   4708   4709     1  180.0000771  1.0460000  2
   4704   4705   4708   4709     1  0.0000000  0.7531200  3
   4704   4705   4708   4716     1  0.0000000  0.6508444  3
   4704   4726   4710   4709     1  180.0000771  0.4184000  2
   4704   4726   4710   4709     1  0.0000000  1.6024720  3
   4704   4726   4710   4714     1  180.0000771  5.6484000  1
   4704   4726   4710   4714     1  180.0000771  3.5564000  2
   4704   4726   4710   4714     1  0.0000000  0.4184000  3
   4705   4704   4718   4724     1  0.0000000  0.6508444  3
   4705   4704   4726   4710     1  180.0000771  0.4184000  2
   4705   4704   4726   4710     1  0.0000000  1.6024720  3
   4705   4708   4709   4710     1  180.0000771  0.8368000  1
   4705   4708   4709   4710     1  180.0000771  1.0460000  2
   4705   4708   4709   4710     1  0.0000000  0.7531200  3
   4705   4708   4709   4715     1  0.0000000  0.6508444  3
   4708   4705   4704   4718     1  180.0000771  0.8368000  1
   4708   4705   4704   4718     1  180.0000771  1.0460000  2
   4708   4705   4704   4718     1  0.0000000  0.7531200  3
   4708   4705   4704   4726     1  0.0000000  0.6508444  3
   4708   4709   4710   4714     1  0.0000000  0.6508444  3
   4708   4709   4710   4726     1  0.0000000  0.6508444  3
   4709   4708   4705   4717     1  0.0000000  0.6508444  3
   4710   4709   4708   4716     1  0.0000000  0.6508444  3
   4710   4726   4704   4718     1  180.0000771  0.4184000  2
   4710   4726   4704   4718     1  0.0000000  1.6024720  3
   4714   4710   4709   4715     1  0.0000000  4.9162000  2
   4714   4710   4709   4715     1  0.0000000  0.6024960  3
   4715   4709   4708   4716     1  0.0000000  4.9162000  2
   4715   4709   4708   4716     1  0.0000000  0.6024960  3
   4715   4709   4710   4726     1  0.0000000  4.9162000  2
   4715   4709   4710   4726     1  0.0000000  0.6024960  3
   4716   4708   4705   4717     1  0.0000000  4.9162000  2
   4716   4708   4705   4717     1  0.0000000  0.6024960  3
   4717   4705   4704   4718     1  0.0000000  0.6508444  3
   4717   4705   4704   4726     1  0.0000000  4.9162000  2
   4717   4705   4704   4726     1  0.0000000  0.6024960  3
   4724   4718   4704   4726     1  0.0000000  4.9162000  2
   4724   4718   4704   4726     1  0.0000000  0.6024960  3
   4727   4728   4731   4732     1  180.0000771  0.8368000  1
   4727   4728   4731   4732     1  180.0000771  1.0460000  2
   4727   4728   4731   4732     1  0.0000000  0.7531200  3
   4727   4728   4731   4739     1  0.0000000  0.6508444  3
   4727   4749   4733   4737     1  180.0000771  5.6484000  1
   4727   4749   4733   4737     1  180.0000771  3.5564000  2
   4727   4749   4733   4737     1  0.0000000  0.4184000  3
   4727   4749   4733   4732     1  180.0000771  0.4184000  2
   4727   4749   4733   4732     1  0.0000000  1.6024720  3
   4728   4731   4732   4733     1  180.0000771  0.8368000  1
   4728   4731   4732   4733     1  180.0000771  1.0460000  2
   4728   4731   4732   4733     1  0.0000000  0.7531200  3
   4728   4731   4732   4738     1  0.0000000  0.6508444  3
   4728   4727   4741   4747     1  0.0000000  0.6508444  3
   4728   4727   4749   4733     1  180.0000771  0.4184000  2
   4728   4727   4749   4733     1  0.0000000  1.6024720  3
   4731   4732   4733   4737     1  0.0000000  0.6508444  3
   4731   4732   4733   4749     1  0.0000000  0.6508444  3
   4731   4728   4727   4741     1  180.0000771  0.8368000  1
   4731   4728   4727   4741     1  180.0000771  1.0460000  2
   4731   4728   4727   4741     1  0.0000000  0.7531200  3
   4731   4728   4727   4749     1  0.0000000  0.6508444  3
   4732   4731   4728   4740     1  0.0000000  0.6508444  3
   4733   4749   4727   4741     1  180.0000771  0.4184000  2
   4733   4749   4727   4741     1  0.0000000  1.6024720  3
   4733   4732   4731   4739     1  0.0000000  0.6508444  3
   4737   4733   4732   4738     1  0.0000000  4.9162000  2
   4737   4733   4732   4738     1  0.0000000  0.6024960  3
   4738   4732   4733   4749     1  0.0000000  4.9162000  2
   4738   4732   4733   4749     1  0.0000000  0.6024960  3
   4738   4732   4731   4739     1  0.0000000  4.9162000  2
   4738   4732   4731   4739     1  0.0000000  0.6024960  3
   4739   4731   4728   4740     1  0.0000000  4.9162000  2
   4739   4731   4728   4740     1  0.0000000  0.6024960  3
   4740   4728   4727   4741     1  0.0000000  0.6508444  3
   4740   4728   4727   4749     1  0.0000000  4.9162000  2
   4740   4728   4727   4749     1  0.0000000  0.6024960  3
   4747   4741   4727   4749     1  0.0000000  4.9162000  2
   4747   4741   4727   4749     1  0.0000000  0.6024960  3
   4750   4751   4754   4755     1  180.0000771  0.8368000  1
   4750   4751   4754   4755     1  180.0000771  1.0460000  2
   4750   4751   4754   4755     1  0.0000000  0.7531200  3
   4750   4751   4754   4762     1  0.0000000  0.6508444  3
   4750   4772   4756   4755     1  180.0000771  0.4184000  2
   4750   4772   4756   4755     1  0.0000000  1.6024720  3
   4750   4772   4756   4760     1  180.0000771  5.6484000  1
   4750   4772   4756   4760     1  180.0000771  3.5564000  2
   4750   4772   4756   4760     1  0.0000000  0.4184000  3
   4751   4750   4764   4770     1  0.0000000  0.6508444  3
   4751   4750   4772   4756     1  180.0000771  0.4184000  2
   4751   4750   4772   4756     1  0.0000000  1.6024720  3
   4751   4754   4755   4756     1  180.0000771  0.8368000  1
   4751   4754   4755   4756     1  180.0000771  1.0460000  2
   4751   4754   4755   4756     1  0.0000000  0.7531200  3
   4751   4754   4755   4761     1  0.0000000  0.6508444  3
   4754   4751   4750   4764     1  180.0000771  0.8368000  1
   4754   4751   4750   4764     1  180.0000771  1.0460000  2
   4754   4751   4750   4764     1  0.0000000  0.7531200  3
   4754   4751   4750   4772     1  0.0000000  0.6508444  3
   4754   4755   4756   4760     1  0.0000000  0.6508444  3
   4754   4755   4756   4772     1  0.0000000  0.6508444  3
   4755   4754   4751   4763     1  0.0000000  0.6508444  3
   4756   4755   4754   4762     1  0.0000000  0.6508444  3
   4756   4772   4750   4764     1  180.0000771  0.4184000  2
   4756   4772   4750   4764     1  0.0000000  1.6024720  3
   4760   4756   4755   4761     1  0.0000000  4.9162000  2
   4760   4756   4755   4761     1  0.0000000  0.6024960  3
   4761   4755   4754   4762     1  0.0000000  4.9162000  2
   4761   4755   4754   4762     1  0.0000000  0.6024960  3
   4761   4755   4756   4772     1  0.0000000  4.9162000  2
   4761   4755   4756   4772     1  0.0000000  0.6024960  3
   4762   4754   4751   4763     1  0.0000000  4.9162000  2
   4762   4754   4751   4763     1  0.0000000  0.6024960  3
   4763   4751   4750   4764     1  0.0000000  0.6508444  3
   4763   4751   4750   4772     1  0.0000000  4.9162000  2
   4763   4751   4750   4772     1  0.0000000  0.6024960  3
   4770   4764   4750   4772     1  0.0000000  4.9162000  2
   4770   4764   4750   4772     1  0.0000000  0.6024960  3
   4773   4774   4777   4778     1  180.0000771  0.8368000  1
   4773   4774   4777   4778     1  180.0000771  1.0460000  2
   4773   4774   4777   4778     1  0.0000000  0.7531200  3
   4773   4774   4777   4785     1  0.0000000  0.6508444  3
   4773   4795   4779   4783     1  180.0000771  5.6484000  1
   4773   4795   4779   4783     1  180.0000771  3.5564000  2
   4773   4795   4779   4783     1  0.0000000  0.4184000  3
   4773   4795   4779   4778     1  180.0000771  0.4184000  2
   4773   4795   4779   4778     1  0.0000000  1.6024720  3
   4774   4777   4778   4779     1  180.0000771  0.8368000  1
   4774   4777   4778   4779     1  180.0000771  1.0460000  2
   4774   4777   4778   4779     1  0.0000000  0.7531200  3
   4774   4777   4778   4784     1  0.0000000  0.6508444  3
   4774   4773   4787   4793     1  0.0000000  0.6508444  3
   4774   4773   4795   4779     1  180.0000771  0.4184000  2
   4774   4773   4795   4779     1  0.0000000  1.6024720  3
   4777   4778   4779   4783     1  0.0000000  0.6508444  3
   4777   4778   4779   4795     1  0.0000000  0.6508444  3
   4777   4774   4773   4787     1  180.0000771  0.8368000  1
   4777   4774   4773   4787     1  180.0000771  1.0460000  2
   4777   4774   4773   4787     1  0.0000000  0.7531200  3
   4777   4774   4773   4795     1  0.0000000  0.6508444  3
   4778   4777   4774   4786     1  0.0000000  0.6508444  3
   4779   4795   4773   4787     1  180.0000771  0.4184000  2
   4779   4795   4773   4787     1  0.0000000  1.6024720  3
   4779   4778   4777   4785     1  0.0000000  0.6508444  3
   4783   4779   4778   4784     1  0.0000000  4.9162000  2
   4783   4779   4778   4784     1  0.0000000  0.6024960  3
   4784   4778   4779   4795     1  0.0000000  4.9162000  2
   4784   4778   4779   4795     1  0.0000000  0.6024960  3
   4784   4778   4777   4785     1  0.0000000  4.9162000  2
   4784   4778   4777   4785     1  0.0000000  0.6024960  3
   4785   4777   4774   4786     1  0.0000000  4.9162000  2
   4785   4777   4774   4786     1  0.0000000  0.6024960  3
   4786   4774   4773   4787     1  0.0000000  0.6508444  3
   4786   4774   4773   4795     1  0.0000000  4.9162000  2
   4786   4774   4773   4795     1  0.0000000  0.6024960  3
   4793   4787   4773   4795     1  0.0000000  4.9162000  2
   4793   4787   4773   4795     1  0.0000000  0.6024960  3
   4796   4797   4800   4801     1  180.0000771  0.8368000  1
   4796   4797   4800   4801     1  180.0000771  1.0460000  2
   4796   4797   4800   4801     1  0.0000000  0.7531200  3
   4796   4797   4800   4808     1  0.0000000  0.6508444  3
   4796   4818   4802   4801     1  180.0000771  0.4184000  2
   4796   4818   4802   4801     1  0.0000000  1.6024720  3
   4796   4818   4802   4806     1  180.0000771  5.6484000  1
   4796   4818   4802   4806     1  180.0000771  3.5564000  2
   4796   4818   4802   4806     1  0.0000000  0.4184000  3
   4797   4796   4810   4816     1  0.0000000  0.6508444  3
   4797   4796   4818   4802     1  180.0000771  0.4184000  2
   4797   4796   4818   4802     1  0.0000000  1.6024720  3
   4797   4800   4801   4802     1  180.0000771  0.8368000  1
   4797   4800   4801   4802     1  180.0000771  1.0460000  2
   4797   4800   4801   4802     1  0.0000000  0.7531200  3
   4797   4800   4801   4807     1  0.0000000  0.6508444  3
   4800   4797   4796   4810     1  180.0000771  0.8368000  1
   4800   4797   4796   4810     1  180.0000771  1.0460000  2
   4800   4797   4796   4810     1  0.0000000  0.7531200  3
   4800   4797   4796   4818     1  0.0000000  0.6508444  3
   4800   4801   4802   4806     1  0.0000000  0.6508444  3
   4800   4801   4802   4818     1  0.0000000  0.6508444  3
   4801   4800   4797   4809     1  0.0000000  0.6508444  3
   4802   4801   4800   4808     1  0.0000000  0.6508444  3
   4802   4818   4796   4810     1  180.0000771  0.4184000  2
   4802   4818   4796   4810     1  0.0000000  1.6024720  3
   4806   4802   4801   4807     1  0.0000000  4.9162000  2
   4806   4802   4801   4807     1  0.0000000  0.6024960  3
   4807   4801   4800   4808     1  0.0000000  4.9162000  2
   4807   4801   4800   4808     1  0.0000000  0.6024960  3
   4807   4801   4802   4818     1  0.0000000  4.9162000  2
   4807   4801   4802   4818     1  0.0000000  0.6024960  3
   4808   4800   4797   4809     1  0.0000000  4.9162000  2
   4808   4800   4797   4809     1  0.0000000  0.6024960  3
   4809   4797   4796   4810     1  0.0000000  0.6508444  3
   4809   4797   4796   4818     1  0.0000000  4.9162000  2
   4809   4797   4796   4818     1  0.0000000  0.6024960  3
   4816   4810   4796   4818     1  0.0000000  4.9162000  2
   4816   4810   4796   4818     1  0.0000000  0.6024960  3
   4819   4820   4823   4824     1  180.0000771  0.8368000  1
   4819   4820   4823   4824     1  180.0000771  1.0460000  2
   4819   4820   4823   4824     1  0.0000000  0.7531200  3
   4819   4820   4823   4831     1  0.0000000  0.6508444  3
   4819   4841   4825   4829     1  180.0000771  5.6484000  1
   4819   4841   4825   4829     1  180.0000771  3.5564000  2
   4819   4841   4825   4829     1  0.0000000  0.4184000  3
   4819   4841   4825   4824     1  180.0000771  0.4184000  2
   4819   4841   4825   4824     1  0.0000000  1.6024720  3
   4820   4823   4824   4825     1  180.0000771  0.8368000  1
   4820   4823   4824   4825     1  180.0000771  1.0460000  2
   4820   4823   4824   4825     1  0.0000000  0.7531200  3
   4820   4823   4824   4830     1  0.0000000  0.6508444  3
   4820   4819   4833   4839     1  0.0000000  0.6508444  3
   4820   4819   4841   4825     1  180.0000771  0.4184000  2
   4820   4819   4841   4825     1  0.0000000  1.6024720  3
   4823   4824   4825   4829     1  0.0000000  0.6508444  3
   4823   4824   4825   4841     1  0.0000000  0.6508444  3
   4823   4820   4819   4833     1  180.0000771  0.8368000  1
   4823   4820   4819   4833     1  180.0000771  1.0460000  2
   4823   4820   4819   4833     1  0.0000000  0.7531200  3
   4823   4820   4819   4841     1  0.0000000  0.6508444  3
   4824   4823   4820   4832     1  0.0000000  0.6508444  3
   4825   4841   4819   4833     1  180.0000771  0.4184000  2
   4825   4841   4819   4833     1  0.0000000  1.6024720  3
   4825   4824   4823   4831     1  0.0000000  0.6508444  3
   4829   4825   4824   4830     1  0.0000000  4.9162000  2
   4829   4825   4824   4830     1  0.0000000  0.6024960  3
   4830   4824   4825   4841     1  0.0000000  4.9162000  2
   4830   4824   4825   4841     1  0.0000000  0.6024960  3
   4830   4824   4823   4831     1  0.0000000  4.9162000  2
   4830   4824   4823   4831     1  0.0000000  0.6024960  3
   4831   4823   4820   4832     1  0.0000000  4.9162000  2
   4831   4823   4820   4832     1  0.0000000  0.6024960  3
   4832   4820   4819   4833     1  0.0000000  0.6508444  3
   4832   4820   4819   4841     1  0.0000000  4.9162000  2
   4832   4820   4819   4841     1  0.0000000  0.6024960  3
   4839   4833   4819   4841     1  0.0000000  4.9162000  2
   4839   4833   4819   4841     1  0.0000000  0.6024960  3
   4842   4843   4846   4847     1  180.0000771  0.8368000  1
   4842   4843   4846   4847     1  180.0000771  1.0460000  2
   4842   4843   4846   4847     1  0.0000000  0.7531200  3
   4842   4843   4846   4854     1  0.0000000  0.6508444  3
   4842   4864   4848   4847     1  180.0000771  0.4184000  2
   4842   4864   4848   4847     1  0.0000000  1.6024720  3
   4842   4864   4848   4852     1  180.0000771  5.6484000  1
   4842   4864   4848   4852     1  180.0000771  3.5564000  2
   4842   4864   4848   4852     1  0.0000000  0.4184000  3
   4843   4842   4856   4862     1  0.0000000  0.6508444  3
   4843   4842   4864   4848     1  180.0000771  0.4184000  2
   4843   4842   4864   4848     1  0.0000000  1.6024720  3
   4843   4846   4847   4848     1  180.0000771  0.8368000  1
   4843   4846   4847   4848     1  180.0000771  1.0460000  2
   4843   4846   4847   4848     1  0.0000000  0.7531200  3
   4843   4846   4847   4853     1  0.0000000  0.6508444  3
   4846   4843   4842   4856     1  180.0000771  0.8368000  1
   4846   4843   4842   4856     1  180.0000771  1.0460000  2
   4846   4843   4842   4856     1  0.0000000  0.7531200  3
   4846   4843   4842   4864     1  0.0000000  0.6508444  3
   4846   4847   4848   4852     1  0.0000000  0.6508444  3
   4846   4847   4848   4864     1  0.0000000  0.6508444  3
   4847   4846   4843   4855     1  0.0000000  0.6508444  3
   4848   4847   4846   4854     1  0.0000000  0.6508444  3
   4848   4864   4842   4856     1  180.0000771  0.4184000  2
   4848   4864   4842   4856     1  0.0000000  1.6024720  3
   4852   4848   4847   4853     1  0.0000000  4.9162000  2
   4852   4848   4847   4853     1  0.0000000  0.6024960  3
   4853   4847   4846   4854     1  0.0000000  4.9162000  2
   4853   4847   4846   4854     1  0.0000000  0.6024960  3
   4853   4847   4848   4864     1  0.0000000  4.9162000  2
   4853   4847   4848   4864     1  0.0000000  0.6024960  3
   4854   4846   4843   4855     1  0.0000000  4.9162000  2
   4854   4846   4843   4855     1  0.0000000  0.6024960  3
   4855   4843   4842   4856     1  0.0000000  0.6508444  3
   4855   4843   4842   4864     1  0.0000000  4.9162000  2
   4855   4843   4842   4864     1  0.0000000  0.6024960  3
   4862   4856   4842   4864     1  0.0000000  4.9162000  2
   4862   4856   4842   4864     1  0.0000000  0.6024960  3
   4865   4866   4869   4870     1  180.0000771  0.8368000  1
   4865   4866   4869   4870     1  180.0000771  1.0460000  2
   4865   4866   4869   4870     1  0.0000000  0.7531200  3
   4865   4866   4869   4877     1  0.0000000  0.6508444  3
   4865   4887   4871   4875     1  180.0000771  5.6484000  1
   4865   4887   4871   4875     1  180.0000771  3.5564000  2
   4865   4887   4871   4875     1  0.0000000  0.4184000  3
   4865   4887   4871   4870     1  180.0000771  0.4184000  2
   4865   4887   4871   4870     1  0.0000000  1.6024720  3
   4866   4869   4870   4871     1  180.0000771  0.8368000  1
   4866   4869   4870   4871     1  180.0000771  1.0460000  2
   4866   4869   4870   4871     1  0.0000000  0.7531200  3
   4866   4869   4870   4876     1  0.0000000  0.6508444  3
   4866   4865   4879   4885     1  0.0000000  0.6508444  3
   4866   4865   4887   4871     1  180.0000771  0.4184000  2
   4866   4865   4887   4871     1  0.0000000  1.6024720  3
   4869   4870   4871   4875     1  0.0000000  0.6508444  3
   4869   4870   4871   4887     1  0.0000000  0.6508444  3
   4869   4866   4865   4879     1  180.0000771  0.8368000  1
   4869   4866   4865   4879     1  180.0000771  1.0460000  2
   4869   4866   4865   4879     1  0.0000000  0.7531200  3
   4869   4866   4865   4887     1  0.0000000  0.6508444  3
   4870   4869   4866   4878     1  0.0000000  0.6508444  3
   4871   4887   4865   4879     1  180.0000771  0.4184000  2
   4871   4887   4865   4879     1  0.0000000  1.6024720  3
   4871   4870   4869   4877     1  0.0000000  0.6508444  3
   4875   4871   4870   4876     1  0.0000000  4.9162000  2
   4875   4871   4870   4876     1  0.0000000  0.6024960  3
   4876   4870   4871   4887     1  0.0000000  4.9162000  2
   4876   4870   4871   4887     1  0.0000000  0.6024960  3
   4876   4870   4869   4877     1  0.0000000  4.9162000  2
   4876   4870   4869   4877     1  0.0000000  0.6024960  3
   4877   4869   4866   4878     1  0.0000000  4.9162000  2
   4877   4869   4866   4878     1  0.0000000  0.6024960  3
   4878   4866   4865   4879     1  0.0000000  0.6508444  3
   4878   4866   4865   4887     1  0.0000000  4.9162000  2
   4878   4866   4865   4887     1  0.0000000  0.6024960  3
   4885   4879   4865   4887     1  0.0000000  4.9162000  2
   4885   4879   4865   4887     1  0.0000000  0.6024960  3
   4888   4889   4892   4893     1  180.0000771  0.8368000  1
   4888   4889   4892   4893     1  180.0000771  1.0460000  2
   4888   4889   4892   4893     1  0.0000000  0.7531200  3
   4888   4889   4892   4900     1  0.0000000  0.6508444  3
   4888   4910   4894   4893     1  180.0000771  0.4184000  2
   4888   4910   4894   4893     1  0.0000000  1.6024720  3
   4888   4910   4894   4898     1  180.0000771  5.6484000  1
   4888   4910   4894   4898     1  180.0000771  3.5564000  2
   4888   4910   4894   4898     1  0.0000000  0.4184000  3
   4889   4888   4902   4908     1  0.0000000  0.6508444  3
   4889   4888   4910   4894     1  180.0000771  0.4184000  2
   4889   4888   4910   4894     1  0.0000000  1.6024720  3
   4889   4892   4893   4894     1  180.0000771  0.8368000  1
   4889   4892   4893   4894     1  180.0000771  1.0460000  2
   4889   4892   4893   4894     1  0.0000000  0.7531200  3
   4889   4892   4893   4899     1  0.0000000  0.6508444  3
   4892   4889   4888   4902     1  180.0000771  0.8368000  1
   4892   4889   4888   4902     1  180.0000771  1.0460000  2
   4892   4889   4888   4902     1  0.0000000  0.7531200  3
   4892   4889   4888   4910     1  0.0000000  0.6508444  3
   4892   4893   4894   4898     1  0.0000000  0.6508444  3
   4892   4893   4894   4910     1  0.0000000  0.6508444  3
   4893   4892   4889   4901     1  0.0000000  0.6508444  3
   4894   4893   4892   4900     1  0.0000000  0.6508444  3
   4894   4910   4888   4902     1  180.0000771  0.4184000  2
   4894   4910   4888   4902     1  0.0000000  1.6024720  3
   4898   4894   4893   4899     1  0.0000000  4.9162000  2
   4898   4894   4893   4899     1  0.0000000  0.6024960  3
   4899   4893   4892   4900     1  0.0000000  4.9162000  2
   4899   4893   4892   4900     1  0.0000000  0.6024960  3
   4899   4893   4894   4910     1  0.0000000  4.9162000  2
   4899   4893   4894   4910     1  0.0000000  0.6024960  3
   4900   4892   4889   4901     1  0.0000000  4.9162000  2
   4900   4892   4889   4901     1  0.0000000  0.6024960  3
   4901   4889   4888   4902     1  0.0000000  0.6508444  3
   4901   4889   4888   4910     1  0.0000000  4.9162000  2
   4901   4889   4888   4910     1  0.0000000  0.6024960  3
   4908   4902   4888   4910     1  0.0000000  4.9162000  2
   4908   4902   4888   4910     1  0.0000000  0.6024960  3
   4911   4912   4915   4916     1  180.0000771  0.8368000  1
   4911   4912   4915   4916     1  180.0000771  1.0460000  2
   4911   4912   4915   4916     1  0.0000000  0.7531200  3
   4911   4912   4915   4923     1  0.0000000  0.6508444  3
   4911   4933   4917   4921     1  180.0000771  5.6484000  1
   4911   4933   4917   4921     1  180.0000771  3.5564000  2
   4911   4933   4917   4921     1  0.0000000  0.4184000  3
   4911   4933   4917   4916     1  180.0000771  0.4184000  2
   4911   4933   4917   4916     1  0.0000000  1.6024720  3
   4912   4915   4916   4917     1  180.0000771  0.8368000  1
   4912   4915   4916   4917     1  180.0000771  1.0460000  2
   4912   4915   4916   4917     1  0.0000000  0.7531200  3
   4912   4915   4916   4922     1  0.0000000  0.6508444  3
   4912   4911   4925   4931     1  0.0000000  0.6508444  3
   4912   4911   4933   4917     1  180.0000771  0.4184000  2
   4912   4911   4933   4917     1  0.0000000  1.6024720  3
   4915   4916   4917   4921     1  0.0000000  0.6508444  3
   4915   4916   4917   4933     1  0.0000000  0.6508444  3
   4915   4912   4911   4925     1  180.0000771  0.8368000  1
   4915   4912   4911   4925     1  180.0000771  1.0460000  2
   4915   4912   4911   4925     1  0.0000000  0.7531200  3
   4915   4912   4911   4933     1  0.0000000  0.6508444  3
   4916   4915   4912   4924     1  0.0000000  0.6508444  3
   4917   4933   4911   4925     1  180.0000771  0.4184000  2
   4917   4933   4911   4925     1  0.0000000  1.6024720  3
   4917   4916   4915   4923     1  0.0000000  0.6508444  3
   4921   4917   4916   4922     1  0.0000000  4.9162000  2
   4921   4917   4916   4922     1  0.0000000  0.6024960  3
   4922   4916   4917   4933     1  0.0000000  4.9162000  2
   4922   4916   4917   4933     1  0.0000000  0.6024960  3
   4922   4916   4915   4923     1  0.0000000  4.9162000  2
   4922   4916   4915   4923     1  0.0000000  0.6024960  3
   4923   4915   4912   4924     1  0.0000000  4.9162000  2
   4923   4915   4912   4924     1  0.0000000  0.6024960  3
   4924   4912   4911   4925     1  0.0000000  0.6508444  3
   4924   4912   4911   4933     1  0.0000000  4.9162000  2
   4924   4912   4911   4933     1  0.0000000  0.6024960  3
   4931   4925   4911   4933     1  0.0000000  4.9162000  2
   4931   4925   4911   4933     1  0.0000000  0.6024960  3
      1      2     14     15     1  0.0000000  0.6508444  3
      1      2     14     16     1  0.0000000  0.6508444  3
      1      5     17     18     1  0.0000000  0.6508444  3
      1      5     17     19     1  0.0000000  0.6508444  3
      1      8     11     12     1  0.0000000  0.6508444  3
      1      8     11     13     1  0.0000000  0.6508444  3
      2      1      5      6     1  0.0000000  1.2552000  3
      2      1      5      7     1  0.0000000  1.2552000  3
      2      1      8      9     1  0.0000000  1.2552000  3
      2      1      8     10     1  0.0000000  1.2552000  3
      2     14     26     27     1  0.0000000  0.6508444  3
      2     14     26     28     1  0.0000000  0.6508444  3
      5      1      2      3     1  0.0000000  1.2552000  3
      8      1      2      3     1  0.0000000  1.2552000  3
      3      2     14     26     1  0.0000000  0.6508444  3
      3      2     14     15     1  0.0000000  0.6508444  3
      3      2     14     16     1  0.0000000  0.6508444  3
      5      1      2      4     1  0.0000000  1.2552000  3
      8      1      2      4     1  0.0000000  1.2552000  3
      4      2     14     26     1  0.0000000  0.6508444  3
      4      2     14     15     1  0.0000000  0.6508444  3
      4      2     14     16     1  0.0000000  0.6508444  3
      5      1      8      9     1  0.0000000  1.2552000  3
      5      1      8     10     1  0.0000000  1.2552000  3
      5     17     20     21     1  0.0000000  0.6508444  3
      5     17     20     22     1  0.0000000  0.6508444  3
      8      1      5      6     1  0.0000000  1.2552000  3
      6      5     17     20     1  0.0000000  0.6508444  3
      6      5     17     18     1  0.0000000  0.6508444  3
      6      5     17     19     1  0.0000000  0.6508444  3
      8      1      5      7     1  0.0000000  1.2552000  3
      7      5     17     20     1  0.0000000  0.6508444  3
      7      5     17     18     1  0.0000000  0.6508444  3
      7      5     17     19     1  0.0000000  0.6508444  3
      8     11     23     24     1  0.0000000  0.6508444  3
      8     11     23     25     1  0.0000000  0.6508444  3
      9      8     11     23     1  0.0000000  0.6508444  3
      9      8     11     12     1  0.0000000  0.6508444  3
      9      8     11     13     1  0.0000000  0.6508444  3
     10      8     11     23     1  0.0000000  0.6508444  3
     10      8     11     12     1  0.0000000  0.6508444  3
     10      8     11     13     1  0.0000000  0.6508444  3
     12     11     23     86     1  0.0000000  1.0460000  1
     12     11     23     86     1  0.0000000  0.0000000  3
     12     11     23     24     1  0.0000000  0.6508444  3
     12     11     23     25     1  0.0000000  0.6508444  3
     13     11     23     86     1  0.0000000  1.0460000  1
     13     11     23     86     1  0.0000000  0.0000000  3
     13     11     23     24     1  0.0000000  0.6508444  3
     13     11     23     25     1  0.0000000  0.6508444  3
     15     14     26    115     1  0.0000000  1.0460000  1
     15     14     26    115     1  0.0000000  0.0000000  3
     15     14     26     27     1  0.0000000  0.6508444  3
     15     14     26     28     1  0.0000000  0.6508444  3
     16     14     26    115     1  0.0000000  1.0460000  1
     16     14     26    115     1  0.0000000  0.0000000  3
     16     14     26     27     1  0.0000000  0.6508444  3
     16     14     26     28     1  0.0000000  0.6508444  3
     18     17     20     57     1  0.0000000  1.0460000  1
     18     17     20     57     1  0.0000000  0.0000000  3
     18     17     20     21     1  0.0000000  0.6508444  3
     18     17     20     22     1  0.0000000  0.6508444  3
     19     17     20     57     1  0.0000000  1.0460000  1
     19     17     20     57     1  0.0000000  0.0000000  3
     19     17     20     21     1  0.0000000  0.6508444  3
     19     17     20     22     1  0.0000000  0.6508444  3
     20     57     48     49     1  0.0000000  1.6038667  3
     20     57     48     50     1  0.0000000  1.6038667  3
     21     20     57     48     1  0.0000000  1.6038667  3
     22     20     57     48     1  0.0000000  1.6038667  3
     23     86     77     78     1  0.0000000  1.6038667  3
     23     86     77     79     1  0.0000000  1.6038667  3
     24     23     86     77     1  0.0000000  1.6038667  3
     25     23     86     77     1  0.0000000  1.6038667  3
     26    115    106    107     1  0.0000000  1.6038667  3
     26    115    106    108     1  0.0000000  1.6038667  3
     27     26    115    106     1  0.0000000  1.6038667  3
     28     26    115    106     1  0.0000000  1.6038667  3
     29     30     42     43     1  0.0000000  0.6508444  3
     29     30     42     44     1  0.0000000  0.6508444  3
     29     33     45     46     1  0.0000000  0.6508444  3
     29     33     45     47     1  0.0000000  0.6508444  3
     29     36     39     40     1  0.0000000  0.6508444  3
     29     36     39     41     1  0.0000000  0.6508444  3
     30     29     33     34     1  0.0000000  1.2552000  3
     30     29     33     35     1  0.0000000  1.2552000  3
     30     29     36     37     1  0.0000000  1.2552000  3
     30     29     36     38     1  0.0000000  1.2552000  3
     30     42     54     55     1  0.0000000  0.6508444  3
     30     42     54     56     1  0.0000000  0.6508444  3
     31     30     29     33     1  0.0000000  1.2552000  3
     31     30     29     36     1  0.0000000  1.2552000  3
     31     30     42     54     1  0.0000000  0.6508444  3
     31     30     42     43     1  0.0000000  0.6508444  3
     31     30     42     44     1  0.0000000  0.6508444  3
     32     30     29     33     1  0.0000000  1.2552000  3
     32     30     29     36     1  0.0000000  1.2552000  3
     32     30     42     54     1  0.0000000  0.6508444  3
     32     30     42     43     1  0.0000000  0.6508444  3
     32     30     42     44     1  0.0000000  0.6508444  3
     33     29     36     37     1  0.0000000  1.2552000  3
     33     29     36     38     1  0.0000000  1.2552000  3
     33     45     51     52     1  0.0000000  0.6508444  3
     33     45     51     53     1  0.0000000  0.6508444  3
     34     33     29     36     1  0.0000000  1.2552000  3
     34     33     45     51     1  0.0000000  0.6508444  3
     34     33     45     46     1  0.0000000  0.6508444  3
     34     33     45     47     1  0.0000000  0.6508444  3
     35     33     29     36     1  0.0000000  1.2552000  3
     35     33     45     51     1  0.0000000  0.6508444  3
     35     33     45     46     1  0.0000000  0.6508444  3
     35     33     45     47     1  0.0000000  0.6508444  3
     36     39     48     49     1  0.0000000  0.6508444  3
     36     39     48     50     1  0.0000000  0.6508444  3
     37     36     39     48     1  0.0000000  0.6508444  3
     37     36     39     40     1  0.0000000  0.6508444  3
     37     36     39     41     1  0.0000000  0.6508444  3
     38     36     39     48     1  0.0000000  0.6508444  3
     38     36     39     40     1  0.0000000  0.6508444  3
     38     36     39     41     1  0.0000000  0.6508444  3
     40     39     48     57     1  0.0000000  1.0460000  1
     40     39     48     57     1  0.0000000  0.0000000  3
     40     39     48     49     1  0.0000000  0.6508444  3
     40     39     48     50     1  0.0000000  0.6508444  3
     41     39     48     57     1  0.0000000  1.0460000  1
     41     39     48     57     1  0.0000000  0.0000000  3
     41     39     48     49     1  0.0000000  0.6508444  3
     41     39     48     50     1  0.0000000  0.6508444  3
     43     42     54    173     1  0.0000000  1.0460000  1
     43     42     54    173     1  0.0000000  0.0000000  3
     43     42     54     55     1  0.0000000  0.6508444  3
     43     42     54     56     1  0.0000000  0.6508444  3
     44     42     54    173     1  0.0000000  1.0460000  1
     44     42     54    173     1  0.0000000  0.0000000  3
     44     42     54     55     1  0.0000000  0.6508444  3
     44     42     54     56     1  0.0000000  0.6508444  3
     46     45     51    144     1  0.0000000  1.0460000  1
     46     45     51    144     1  0.0000000  0.0000000  3
     46     45     51     52     1  0.0000000  0.6508444  3
     46     45     51     53     1  0.0000000  0.6508444  3
     47     45     51    144     1  0.0000000  1.0460000  1
     47     45     51    144     1  0.0000000  0.0000000  3
     47     45     51     52     1  0.0000000  0.6508444  3
     47     45     51     53     1  0.0000000  0.6508444  3
     51    144    135    136     1  0.0000000  1.6038667  3
     51    144    135    137     1  0.0000000  1.6038667  3
     52     51    144    135     1  0.0000000  1.6038667  3
     53     51    144    135     1  0.0000000  1.6038667  3
     54    173    164    165     1  0.0000000  1.6038667  3
     54    173    164    166     1  0.0000000  1.6038667  3
     55     54    173    164     1  0.0000000  1.6038667  3
     56     54    173    164     1  0.0000000  1.6038667  3
     58     59     71     72     1  0.0000000  0.6508444  3
     58     59     71     73     1  0.0000000  0.6508444  3
     58     62     74     75     1  0.0000000  0.6508444  3
     58     62     74     76     1  0.0000000  0.6508444  3
     58     65     68     69     1  0.0000000  0.6508444  3
     58     65     68     70     1  0.0000000  0.6508444  3
     59     58     62     63     1  0.0000000  1.2552000  3
     59     58     62     64     1  0.0000000  1.2552000  3
     59     58     65     66     1  0.0000000  1.2552000  3
     59     58     65     67     1  0.0000000  1.2552000  3
     59     71     83     84     1  0.0000000  0.6508444  3
     59     71     83     85     1  0.0000000  0.6508444  3
     60     59     58     62     1  0.0000000  1.2552000  3
     60     59     58     65     1  0.0000000  1.2552000  3
     60     59     71     83     1  0.0000000  0.6508444  3
     60     59     71     72     1  0.0000000  0.6508444  3
     60     59     71     73     1  0.0000000  0.6508444  3
     61     59     58     62     1  0.0000000  1.2552000  3
     61     59     58     65     1  0.0000000  1.2552000  3
     61     59     71     83     1  0.0000000  0.6508444  3
     61     59     71     72     1  0.0000000  0.6508444  3
     61     59     71     73     1  0.0000000  0.6508444  3
     62     58     65     66     1  0.0000000  1.2552000  3
     62     58     65     67     1  0.0000000  1.2552000  3
     62     74     80     81     1  0.0000000  0.6508444  3
     62     74     80     82     1  0.0000000  0.6508444  3
     63     62     58     65     1  0.0000000  1.2552000  3
     63     62     74     80     1  0.0000000  0.6508444  3
     63     62     74     75     1  0.0000000  0.6508444  3
     63     62     74     76     1  0.0000000  0.6508444  3
     64     62     58     65     1  0.0000000  1.2552000  3
     64     62     74     80     1  0.0000000  0.6508444  3
     64     62     74     75     1  0.0000000  0.6508444  3
     64     62     74     76     1  0.0000000  0.6508444  3
     65     68     77     78     1  0.0000000  0.6508444  3
     65     68     77     79     1  0.0000000  0.6508444  3
     66     65     68     77     1  0.0000000  0.6508444  3
     66     65     68     69     1  0.0000000  0.6508444  3
     66     65     68     70     1  0.0000000  0.6508444  3
     67     65     68     77     1  0.0000000  0.6508444  3
     67     65     68     69     1  0.0000000  0.6508444  3
     67     65     68     70     1  0.0000000  0.6508444  3
     69     68     77     86     1  0.0000000  1.0460000  1
     69     68     77     86     1  0.0000000  0.0000000  3
     69     68     77     78     1  0.0000000  0.6508444  3
     69     68     77     79     1  0.0000000  0.6508444  3
     70     68     77     86     1  0.0000000  1.0460000  1
     70     68     77     86     1  0.0000000  0.0000000  3
     70     68     77     78     1  0.0000000  0.6508444  3
     70     68     77     79     1  0.0000000  0.6508444  3
     72     71     83    231     1  0.0000000  1.0460000  1
     72     71     83    231     1  0.0000000  0.0000000  3
     72     71     83     84     1  0.0000000  0.6508444  3
     72     71     83     85     1  0.0000000  0.6508444  3
     73     71     83    231     1  0.0000000  1.0460000  1
     73     71     83    231     1  0.0000000  0.0000000  3
     73     71     83     84     1  0.0000000  0.6508444  3
     73     71     83     85     1  0.0000000  0.6508444  3
     75     74     80    202     1  0.0000000  1.0460000  1
     75     74     80    202     1  0.0000000  0.0000000  3
     75     74     80     81     1  0.0000000  0.6508444  3
     75     74     80     82     1  0.0000000  0.6508444  3
     76     74     80    202     1  0.0000000  1.0460000  1
     76     74     80    202     1  0.0000000  0.0000000  3
     76     74     80     81     1  0.0000000  0.6508444  3
     76     74     80     82     1  0.0000000  0.6508444  3
     80    202    193    194     1  0.0000000  1.6038667  3
     80    202    193    195     1  0.0000000  1.6038667  3
     81     80    202    193     1  0.0000000  1.6038667  3
     82     80    202    193     1  0.0000000  1.6038667  3
     83    231    222    223     1  0.0000000  1.6038667  3
     83    231    222    224     1  0.0000000  1.6038667  3
     84     83    231    222     1  0.0000000  1.6038667  3
     85     83    231    222     1  0.0000000  1.6038667  3
     87     88    100    101     1  0.0000000  0.6508444  3
     87     88    100    102     1  0.0000000  0.6508444  3
     87     91    103    104     1  0.0000000  0.6508444  3
     87     91    103    105     1  0.0000000  0.6508444  3
     87     94     97     98     1  0.0000000  0.6508444  3
     87     94     97     99     1  0.0000000  0.6508444  3
     88     87     91     92     1  0.0000000  1.2552000  3
     88     87     91     93     1  0.0000000  1.2552000  3
     88     87     94     95     1  0.0000000  1.2552000  3
     88     87     94     96     1  0.0000000  1.2552000  3
     88    100    112    113     1  0.0000000  0.6508444  3
     88    100    112    114     1  0.0000000  0.6508444  3
     89     88     87     91     1  0.0000000  1.2552000  3
     89     88     87     94     1  0.0000000  1.2552000  3
     89     88    100    112     1  0.0000000  0.6508444  3
     89     88    100    101     1  0.0000000  0.6508444  3
     89     88    100    102     1  0.0000000  0.6508444  3
     90     88     87     91     1  0.0000000  1.2552000  3
     90     88     87     94     1  0.0000000  1.2552000  3
     90     88    100    112     1  0.0000000  0.6508444  3
     90     88    100    101     1  0.0000000  0.6508444  3
     90     88    100    102     1  0.0000000  0.6508444  3
     91     87     94     95     1  0.0000000  1.2552000  3
     91     87     94     96     1  0.0000000  1.2552000  3
     91    103    109    110     1  0.0000000  0.6508444  3
     91    103    109    111     1  0.0000000  0.6508444  3
     92     91     87     94     1  0.0000000  1.2552000  3
     92     91    103    109     1  0.0000000  0.6508444  3
     92     91    103    104     1  0.0000000  0.6508444  3
     92     91    103    105     1  0.0000000  0.6508444  3
     93     91     87     94     1  0.0000000  1.2552000  3
     93     91    103    109     1  0.0000000  0.6508444  3
     93     91    103    104     1  0.0000000  0.6508444  3
     93     91    103    105     1  0.0000000  0.6508444  3
     94     97    106    107     1  0.0000000  0.6508444  3
     94     97    106    108     1  0.0000000  0.6508444  3
     95     94     97    106     1  0.0000000  0.6508444  3
     95     94     97     98     1  0.0000000  0.6508444  3
     95     94     97     99     1  0.0000000  0.6508444  3
     96     94     97    106     1  0.0000000  0.6508444  3
     96     94     97     98     1  0.0000000  0.6508444  3
     96     94     97     99     1  0.0000000  0.6508444  3
     98     97    106    115     1  0.0000000  1.0460000  1
     98     97    106    115     1  0.0000000  0.0000000  3
     98     97    106    107     1  0.0000000  0.6508444  3
     98     97    106    108     1  0.0000000  0.6508444  3
     99     97    106    115     1  0.0000000  1.0460000  1
     99     97    106    115     1  0.0000000  0.0000000  3
     99     97    106    107     1  0.0000000  0.6508444  3
     99     97    106    108     1  0.0000000  0.6508444  3
    101    100    112    289     1  0.0000000  1.0460000  1
    101    100    112    289     1  0.0000000  0.0000000  3
    101    100    112    113     1  0.0000000  0.6508444  3
    101    100    112    114     1  0.0000000  0.6508444  3
    102    100    112    289     1  0.0000000  1.0460000  1
    102    100    112    289     1  0.0000000  0.0000000  3
    102    100    112    113     1  0.0000000  0.6508444  3
    102    100    112    114     1  0.0000000  0.6508444  3
    104    103    109    260     1  0.0000000  1.0460000  1
    104    103    109    260     1  0.0000000  0.0000000  3
    104    103    109    110     1  0.0000000  0.6508444  3
    104    103    109    111     1  0.0000000  0.6508444  3
    105    103    109    260     1  0.0000000  1.0460000  1
    105    103    109    260     1  0.0000000  0.0000000  3
    105    103    109    110     1  0.0000000  0.6508444  3
    105    103    109    111     1  0.0000000  0.6508444  3
    109    260    251    252     1  0.0000000  1.6038667  3
    109    260    251    253     1  0.0000000  1.6038667  3
    110    109    260    251     1  0.0000000  1.6038667  3
    111    109    260    251     1  0.0000000  1.6038667  3
    112    289    280    281     1  0.0000000  1.6038667  3
    112    289    280    282     1  0.0000000  1.6038667  3
    113    112    289    280     1  0.0000000  1.6038667  3
    114    112    289    280     1  0.0000000  1.6038667  3
    116    117    129    130     1  0.0000000  0.6508444  3
    116    117    129    131     1  0.0000000  0.6508444  3
    116    120    132    133     1  0.0000000  0.6508444  3
    116    120    132    134     1  0.0000000  0.6508444  3
    116    123    126    127     1  0.0000000  0.6508444  3
    116    123    126    128     1  0.0000000  0.6508444  3
    117    116    120    121     1  0.0000000  1.2552000  3
    117    116    120    122     1  0.0000000  1.2552000  3
    117    116    123    124     1  0.0000000  1.2552000  3
    117    116    123    125     1  0.0000000  1.2552000  3
    117    129    141    142     1  0.0000000  0.6508444  3
    117    129    141    143     1  0.0000000  0.6508444  3
    118    117    116    120     1  0.0000000  1.2552000  3
    118    117    116    123     1  0.0000000  1.2552000  3
    118    117    129    141     1  0.0000000  0.6508444  3
    118    117    129    130     1  0.0000000  0.6508444  3
    118    117    129    131     1  0.0000000  0.6508444  3
    119    117    116    120     1  0.0000000  1.2552000  3
    119    117    116    123     1  0.0000000  1.2552000  3
    119    117    129    141     1  0.0000000  0.6508444  3
    119    117    129    130     1  0.0000000  0.6508444  3
    119    117    129    131     1  0.0000000  0.6508444  3
    120    116    123    124     1  0.0000000  1.2552000  3
    120    116    123    125     1  0.0000000  1.2552000  3
    120    132    138    139     1  0.0000000  0.6508444  3
    120    132    138    140     1  0.0000000  0.6508444  3
    121    120    116    123     1  0.0000000  1.2552000  3
    121    120    132    138     1  0.0000000  0.6508444  3
    121    120    132    133     1  0.0000000  0.6508444  3
    121    120    132    134     1  0.0000000  0.6508444  3
    122    120    116    123     1  0.0000000  1.2552000  3
    122    120    132    138     1  0.0000000  0.6508444  3
    122    120    132    133     1  0.0000000  0.6508444  3
    122    120    132    134     1  0.0000000  0.6508444  3
    123    126    135    136     1  0.0000000  0.6508444  3
    123    126    135    137     1  0.0000000  0.6508444  3
    124    123    126    135     1  0.0000000  0.6508444  3
    124    123    126    127     1  0.0000000  0.6508444  3
    124    123    126    128     1  0.0000000  0.6508444  3
    125    123    126    135     1  0.0000000  0.6508444  3
    125    123    126    127     1  0.0000000  0.6508444  3
    125    123    126    128     1  0.0000000  0.6508444  3
    127    126    135    144     1  0.0000000  1.0460000  1
    127    126    135    144     1  0.0000000  0.0000000  3
    127    126    135    136     1  0.0000000  0.6508444  3
    127    126    135    137     1  0.0000000  0.6508444  3
    128    126    135    144     1  0.0000000  1.0460000  1
    128    126    135    144     1  0.0000000  0.0000000  3
    128    126    135    136     1  0.0000000  0.6508444  3
    128    126    135    137     1  0.0000000  0.6508444  3
    130    129    141    347     1  0.0000000  1.0460000  1
    130    129    141    347     1  0.0000000  0.0000000  3
    130    129    141    142     1  0.0000000  0.6508444  3
    130    129    141    143     1  0.0000000  0.6508444  3
    131    129    141    347     1  0.0000000  1.0460000  1
    131    129    141    347     1  0.0000000  0.0000000  3
    131    129    141    142     1  0.0000000  0.6508444  3
    131    129    141    143     1  0.0000000  0.6508444  3
    133    132    138    318     1  0.0000000  1.0460000  1
    133    132    138    318     1  0.0000000  0.0000000  3
    133    132    138    139     1  0.0000000  0.6508444  3
    133    132    138    140     1  0.0000000  0.6508444  3
    134    132    138    318     1  0.0000000  1.0460000  1
    134    132    138    318     1  0.0000000  0.0000000  3
    134    132    138    139     1  0.0000000  0.6508444  3
    134    132    138    140     1  0.0000000  0.6508444  3
    138    318    309    310     1  0.0000000  1.6038667  3
    138    318    309    311     1  0.0000000  1.6038667  3
    139    138    318    309     1  0.0000000  1.6038667  3
    140    138    318    309     1  0.0000000  1.6038667  3
    141    347    338    339     1  0.0000000  1.6038667  3
    141    347    338    340     1  0.0000000  1.6038667  3
    142    141    347    338     1  0.0000000  1.6038667  3
    143    141    347    338     1  0.0000000  1.6038667  3
    145    146    158    159     1  0.0000000  0.6508444  3
    145    146    158    160     1  0.0000000  0.6508444  3
    145    149    161    162     1  0.0000000  0.6508444  3
    145    149    161    163     1  0.0000000  0.6508444  3
    145    152    155    156     1  0.0000000  0.6508444  3
    145    152    155    157     1  0.0000000  0.6508444  3
    146    145    149    150     1  0.0000000  1.2552000  3
    146    145    149    151     1  0.0000000  1.2552000  3
    146    145    152    153     1  0.0000000  1.2552000  3
    146    145    152    154     1  0.0000000  1.2552000  3
    146    158    170    171     1  0.0000000  0.6508444  3
    146    158    170    172     1  0.0000000  0.6508444  3
    147    146    145    149     1  0.0000000  1.2552000  3
    147    146    145    152     1  0.0000000  1.2552000  3
    147    146    158    170     1  0.0000000  0.6508444  3
    147    146    158    159     1  0.0000000  0.6508444  3
    147    146    158    160     1  0.0000000  0.6508444  3
    148    146    145    149     1  0.0000000  1.2552000  3
    148    146    145    152     1  0.0000000  1.2552000  3
    148    146    158    170     1  0.0000000  0.6508444  3
    148    146    158    159     1  0.0000000  0.6508444  3
    148    146    158    160     1  0.0000000  0.6508444  3
    149    145    152    153     1  0.0000000  1.2552000  3
    149    145    152    154     1  0.0000000  1.2552000  3
    149    161    167    168     1  0.0000000  0.6508444  3
    149    161    167    169     1  0.0000000  0.6508444  3
    150    149    145    152     1  0.0000000  1.2552000  3
    150    149    161    167     1  0.0000000  0.6508444  3
    150    149    161    162     1  0.0000000  0.6508444  3
    150    149    161    163     1  0.0000000  0.6508444  3
    151    149    145    152     1  0.0000000  1.2552000  3
    151    149    161    167     1  0.0000000  0.6508444  3
    151    149    161    162     1  0.0000000  0.6508444  3
    151    149    161    163     1  0.0000000  0.6508444  3
    152    155    164    165     1  0.0000000  0.6508444  3
    152    155    164    166     1  0.0000000  0.6508444  3
    153    152    155    164     1  0.0000000  0.6508444  3
    153    152    155    156     1  0.0000000  0.6508444  3
    153    152    155    157     1  0.0000000  0.6508444  3
    154    152    155    164     1  0.0000000  0.6508444  3
    154    152    155    156     1  0.0000000  0.6508444  3
    154    152    155    157     1  0.0000000  0.6508444  3
    156    155    164    173     1  0.0000000  1.0460000  1
    156    155    164    173     1  0.0000000  0.0000000  3
    156    155    164    165     1  0.0000000  0.6508444  3
    156    155    164    166     1  0.0000000  0.6508444  3
    157    155    164    173     1  0.0000000  1.0460000  1
    157    155    164    173     1  0.0000000  0.0000000  3
    157    155    164    165     1  0.0000000  0.6508444  3
    157    155    164    166     1  0.0000000  0.6508444  3
    159    158    170    405     1  0.0000000  1.0460000  1
    159    158    170    405     1  0.0000000  0.0000000  3
    159    158    170    171     1  0.0000000  0.6508444  3
    159    158    170    172     1  0.0000000  0.6508444  3
    160    158    170    405     1  0.0000000  1.0460000  1
    160    158    170    405     1  0.0000000  0.0000000  3
    160    158    170    171     1  0.0000000  0.6508444  3
    160    158    170    172     1  0.0000000  0.6508444  3
    162    161    167    376     1  0.0000000  1.0460000  1
    162    161    167    376     1  0.0000000  0.0000000  3
    162    161    167    168     1  0.0000000  0.6508444  3
    162    161    167    169     1  0.0000000  0.6508444  3
    163    161    167    376     1  0.0000000  1.0460000  1
    163    161    167    376     1  0.0000000  0.0000000  3
    163    161    167    168     1  0.0000000  0.6508444  3
    163    161    167    169     1  0.0000000  0.6508444  3
    167    376    367    368     1  0.0000000  1.6038667  3
    167    376    367    369     1  0.0000000  1.6038667  3
    168    167    376    367     1  0.0000000  1.6038667  3
    169    167    376    367     1  0.0000000  1.6038667  3
    170    405    396    397     1  0.0000000  1.6038667  3
    170    405    396    398     1  0.0000000  1.6038667  3
    171    170    405    396     1  0.0000000  1.6038667  3
    172    170    405    396     1  0.0000000  1.6038667  3
    174    175    187    188     1  0.0000000  0.6508444  3
    174    175    187    189     1  0.0000000  0.6508444  3
    174    178    190    191     1  0.0000000  0.6508444  3
    174    178    190    192     1  0.0000000  0.6508444  3
    174    181    184    185     1  0.0000000  0.6508444  3
    174    181    184    186     1  0.0000000  0.6508444  3
    175    174    178    179     1  0.0000000  1.2552000  3
    175    174    178    180     1  0.0000000  1.2552000  3
    175    174    181    182     1  0.0000000  1.2552000  3
    175    174    181    183     1  0.0000000  1.2552000  3
    175    187    199    200     1  0.0000000  0.6508444  3
    175    187    199    201     1  0.0000000  0.6508444  3
    176    175    174    178     1  0.0000000  1.2552000  3
    176    175    174    181     1  0.0000000  1.2552000  3
    176    175    187    199     1  0.0000000  0.6508444  3
    176    175    187    188     1  0.0000000  0.6508444  3
    176    175    187    189     1  0.0000000  0.6508444  3
    177    175    174    178     1  0.0000000  1.2552000  3
    177    175    174    181     1  0.0000000  1.2552000  3
    177    175    187    199     1  0.0000000  0.6508444  3
    177    175    187    188     1  0.0000000  0.6508444  3
    177    175    187    189     1  0.0000000  0.6508444  3
    178    174    181    182     1  0.0000000  1.2552000  3
    178    174    181    183     1  0.0000000  1.2552000  3
    178    190    196    197     1  0.0000000  0.6508444  3
    178    190    196    198     1  0.0000000  0.6508444  3
    179    178    174    181     1  0.0000000  1.2552000  3
    179    178    190    196     1  0.0000000  0.6508444  3
    179    178    190    191     1  0.0000000  0.6508444  3
    179    178    190    192     1  0.0000000  0.6508444  3
    180    178    174    181     1  0.0000000  1.2552000  3
    180    178    190    196     1  0.0000000  0.6508444  3
    180    178    190    191     1  0.0000000  0.6508444  3
    180    178    190    192     1  0.0000000  0.6508444  3
    181    184    193    194     1  0.0000000  0.6508444  3
    181    184    193    195     1  0.0000000  0.6508444  3
    182    181    184    193     1  0.0000000  0.6508444  3
    182    181    184    185     1  0.0000000  0.6508444  3
    182    181    184    186     1  0.0000000  0.6508444  3
    183    181    184    193     1  0.0000000  0.6508444  3
    183    181    184    185     1  0.0000000  0.6508444  3
    183    181    184    186     1  0.0000000  0.6508444  3
    185    184    193    202     1  0.0000000  1.0460000  1
    185    184    193    202     1  0.0000000  0.0000000  3
    185    184    193    194     1  0.0000000  0.6508444  3
    185    184    193    195     1  0.0000000  0.6508444  3
    186    184    193    202     1  0.0000000  1.0460000  1
    186    184    193    202     1  0.0000000  0.0000000  3
    186    184    193    194     1  0.0000000  0.6508444  3
    186    184    193    195     1  0.0000000  0.6508444  3
    188    187    199    463     1  0.0000000  1.0460000  1
    188    187    199    463     1  0.0000000  0.0000000  3
    188    187    199    200     1  0.0000000  0.6508444  3
    188    187    199    201     1  0.0000000  0.6508444  3
    189    187    199    463     1  0.0000000  1.0460000  1
    189    187    199    463     1  0.0000000  0.0000000  3
    189    187    199    200     1  0.0000000  0.6508444  3
    189    187    199    201     1  0.0000000  0.6508444  3
    191    190    196    434     1  0.0000000  1.0460000  1
    191    190    196    434     1  0.0000000  0.0000000  3
    191    190    196    197     1  0.0000000  0.6508444  3
    191    190    196    198     1  0.0000000  0.6508444  3
    192    190    196    434     1  0.0000000  1.0460000  1
    192    190    196    434     1  0.0000000  0.0000000  3
    192    190    196    197     1  0.0000000  0.6508444  3
    192    190    196    198     1  0.0000000  0.6508444  3
    196    434    425    426     1  0.0000000  1.6038667  3
    196    434    425    427     1  0.0000000  1.6038667  3
    197    196    434    425     1  0.0000000  1.6038667  3
    198    196    434    425     1  0.0000000  1.6038667  3
    199    463    454    455     1  0.0000000  1.6038667  3
    199    463    454    456     1  0.0000000  1.6038667  3
    200    199    463    454     1  0.0000000  1.6038667  3
    201    199    463    454     1  0.0000000  1.6038667  3
    203    204    216    217     1  0.0000000  0.6508444  3
    203    204    216    218     1  0.0000000  0.6508444  3
    203    207    219    220     1  0.0000000  0.6508444  3
    203    207    219    221     1  0.0000000  0.6508444  3
    203    210    213    214     1  0.0000000  0.6508444  3
    203    210    213    215     1  0.0000000  0.6508444  3
    204    203    207    208     1  0.0000000  1.2552000  3
    204    203    207    209     1  0.0000000  1.2552000  3
    204    203    210    211     1  0.0000000  1.2552000  3
    204    203    210    212     1  0.0000000  1.2552000  3
    204    216    228    229     1  0.0000000  0.6508444  3
    204    216    228    230     1  0.0000000  0.6508444  3
    205    204    203    207     1  0.0000000  1.2552000  3
    205    204    203    210     1  0.0000000  1.2552000  3
    205    204    216    228     1  0.0000000  0.6508444  3
    205    204    216    217     1  0.0000000  0.6508444  3
    205    204    216    218     1  0.0000000  0.6508444  3
    206    204    203    207     1  0.0000000  1.2552000  3
    206    204    203    210     1  0.0000000  1.2552000  3
    206    204    216    228     1  0.0000000  0.6508444  3
    206    204    216    217     1  0.0000000  0.6508444  3
    206    204    216    218     1  0.0000000  0.6508444  3
    207    203    210    211     1  0.0000000  1.2552000  3
    207    203    210    212     1  0.0000000  1.2552000  3
    207    219    225    226     1  0.0000000  0.6508444  3
    207    219    225    227     1  0.0000000  0.6508444  3
    208    207    203    210     1  0.0000000  1.2552000  3
    208    207    219    225     1  0.0000000  0.6508444  3
    208    207    219    220     1  0.0000000  0.6508444  3
    208    207    219    221     1  0.0000000  0.6508444  3
    209    207    203    210     1  0.0000000  1.2552000  3
    209    207    219    225     1  0.0000000  0.6508444  3
    209    207    219    220     1  0.0000000  0.6508444  3
    209    207    219    221     1  0.0000000  0.6508444  3
    210    213    222    223     1  0.0000000  0.6508444  3
    210    213    222    224     1  0.0000000  0.6508444  3
    211    210    213    222     1  0.0000000  0.6508444  3
    211    210    213    214     1  0.0000000  0.6508444  3
    211    210    213    215     1  0.0000000  0.6508444  3
    212    210    213    222     1  0.0000000  0.6508444  3
    212    210    213    214     1  0.0000000  0.6508444  3
    212    210    213    215     1  0.0000000  0.6508444  3
    214    213    222    231     1  0.0000000  1.0460000  1
    214    213    222    231     1  0.0000000  0.0000000  3
    214    213    222    223     1  0.0000000  0.6508444  3
    214    213    222    224     1  0.0000000  0.6508444  3
    215    213    222    231     1  0.0000000  1.0460000  1
    215    213    222    231     1  0.0000000  0.0000000  3
    215    213    222    223     1  0.0000000  0.6508444  3
    215    213    222    224     1  0.0000000  0.6508444  3
    217    216    228    521     1  0.0000000  1.0460000  1
    217    216    228    521     1  0.0000000  0.0000000  3
    217    216    228    229     1  0.0000000  0.6508444  3
    217    216    228    230     1  0.0000000  0.6508444  3
    218    216    228    521     1  0.0000000  1.0460000  1
    218    216    228    521     1  0.0000000  0.0000000  3
    218    216    228    229     1  0.0000000  0.6508444  3
    218    216    228    230     1  0.0000000  0.6508444  3
    220    219    225    492     1  0.0000000  1.0460000  1
    220    219    225    492     1  0.0000000  0.0000000  3
    220    219    225    226     1  0.0000000  0.6508444  3
    220    219    225    227     1  0.0000000  0.6508444  3
    221    219    225    492     1  0.0000000  1.0460000  1
    221    219    225    492     1  0.0000000  0.0000000  3
    221    219    225    226     1  0.0000000  0.6508444  3
    221    219    225    227     1  0.0000000  0.6508444  3
    225    492    483    484     1  0.0000000  1.6038667  3
    225    492    483    485     1  0.0000000  1.6038667  3
    226    225    492    483     1  0.0000000  1.6038667  3
    227    225    492    483     1  0.0000000  1.6038667  3
    228    521    512    513     1  0.0000000  1.6038667  3
    228    521    512    514     1  0.0000000  1.6038667  3
    229    228    521    512     1  0.0000000  1.6038667  3
    230    228    521    512     1  0.0000000  1.6038667  3
    232    233    245    246     1  0.0000000  0.6508444  3
    232    233    245    247     1  0.0000000  0.6508444  3
    232    236    248    249     1  0.0000000  0.6508444  3
    232    236    248    250     1  0.0000000  0.6508444  3
    232    239    242    243     1  0.0000000  0.6508444  3
    232    239    242    244     1  0.0000000  0.6508444  3
    233    232    236    237     1  0.0000000  1.2552000  3
    233    232    236    238     1  0.0000000  1.2552000  3
    233    232    239    240     1  0.0000000  1.2552000  3
    233    232    239    241     1  0.0000000  1.2552000  3
    233    245    257    258     1  0.0000000  0.6508444  3
    233    245    257    259     1  0.0000000  0.6508444  3
    234    233    232    236     1  0.0000000  1.2552000  3
    234    233    232    239     1  0.0000000  1.2552000  3
    234    233    245    257     1  0.0000000  0.6508444  3
    234    233    245    246     1  0.0000000  0.6508444  3
    234    233    245    247     1  0.0000000  0.6508444  3
    235    233    232    236     1  0.0000000  1.2552000  3
    235    233    232    239     1  0.0000000  1.2552000  3
    235    233    245    257     1  0.0000000  0.6508444  3
    235    233    245    246     1  0.0000000  0.6508444  3
    235    233    245    247     1  0.0000000  0.6508444  3
    236    232    239    240     1  0.0000000  1.2552000  3
    236    232    239    241     1  0.0000000  1.2552000  3
    236    248    254    255     1  0.0000000  0.6508444  3
    236    248    254    256     1  0.0000000  0.6508444  3
    237    236    232    239     1  0.0000000  1.2552000  3
    237    236    248    254     1  0.0000000  0.6508444  3
    237    236    248    249     1  0.0000000  0.6508444  3
    237    236    248    250     1  0.0000000  0.6508444  3
    238    236    232    239     1  0.0000000  1.2552000  3
    238    236    248    254     1  0.0000000  0.6508444  3
    238    236    248    249     1  0.0000000  0.6508444  3
    238    236    248    250     1  0.0000000  0.6508444  3
    239    242    251    252     1  0.0000000  0.6508444  3
    239    242    251    253     1  0.0000000  0.6508444  3
    240    239    242    251     1  0.0000000  0.6508444  3
    240    239    242    243     1  0.0000000  0.6508444  3
    240    239    242    244     1  0.0000000  0.6508444  3
    241    239    242    251     1  0.0000000  0.6508444  3
    241    239    242    243     1  0.0000000  0.6508444  3
    241    239    242    244     1  0.0000000  0.6508444  3
    243    242    251    260     1  0.0000000  1.0460000  1
    243    242    251    260     1  0.0000000  0.0000000  3
    243    242    251    252     1  0.0000000  0.6508444  3
    243    242    251    253     1  0.0000000  0.6508444  3
    244    242    251    260     1  0.0000000  1.0460000  1
    244    242    251    260     1  0.0000000  0.0000000  3
    244    242    251    252     1  0.0000000  0.6508444  3
    244    242    251    253     1  0.0000000  0.6508444  3
    246    245    257    579     1  0.0000000  1.0460000  1
    246    245    257    579     1  0.0000000  0.0000000  3
    246    245    257    258     1  0.0000000  0.6508444  3
    246    245    257    259     1  0.0000000  0.6508444  3
    247    245    257    579     1  0.0000000  1.0460000  1
    247    245    257    579     1  0.0000000  0.0000000  3
    247    245    257    258     1  0.0000000  0.6508444  3
    247    245    257    259     1  0.0000000  0.6508444  3
    249    248    254    550     1  0.0000000  1.0460000  1
    249    248    254    550     1  0.0000000  0.0000000  3
    249    248    254    255     1  0.0000000  0.6508444  3
    249    248    254    256     1  0.0000000  0.6508444  3
    250    248    254    550     1  0.0000000  1.0460000  1
    250    248    254    550     1  0.0000000  0.0000000  3
    250    248    254    255     1  0.0000000  0.6508444  3
    250    248    254    256     1  0.0000000  0.6508444  3
    254    550    541    542     1  0.0000000  1.6038667  3
    254    550    541    543     1  0.0000000  1.6038667  3
    255    254    550    541     1  0.0000000  1.6038667  3
    256    254    550    541     1  0.0000000  1.6038667  3
    257    579    570    571     1  0.0000000  1.6038667  3
    257    579    570    572     1  0.0000000  1.6038667  3
    258    257    579    570     1  0.0000000  1.6038667  3
    259    257    579    570     1  0.0000000  1.6038667  3
    261    262    274    275     1  0.0000000  0.6508444  3
    261    262    274    276     1  0.0000000  0.6508444  3
    261    265    277    278     1  0.0000000  0.6508444  3
    261    265    277    279     1  0.0000000  0.6508444  3
    261    268    271    272     1  0.0000000  0.6508444  3
    261    268    271    273     1  0.0000000  0.6508444  3
    262    261    265    266     1  0.0000000  1.2552000  3
    262    261    265    267     1  0.0000000  1.2552000  3
    262    261    268    269     1  0.0000000  1.2552000  3
    262    261    268    270     1  0.0000000  1.2552000  3
    262    274    286    287     1  0.0000000  0.6508444  3
    262    274    286    288     1  0.0000000  0.6508444  3
    263    262    261    265     1  0.0000000  1.2552000  3
    263    262    261    268     1  0.0000000  1.2552000  3
    263    262    274    286     1  0.0000000  0.6508444  3
    263    262    274    275     1  0.0000000  0.6508444  3
    263    262    274    276     1  0.0000000  0.6508444  3
    264    262    261    265     1  0.0000000  1.2552000  3
    264    262    261    268     1  0.0000000  1.2552000  3
    264    262    274    286     1  0.0000000  0.6508444  3
    264    262    274    275     1  0.0000000  0.6508444  3
    264    262    274    276     1  0.0000000  0.6508444  3
    265    261    268    269     1  0.0000000  1.2552000  3
    265    261    268    270     1  0.0000000  1.2552000  3
    265    277    283    284     1  0.0000000  0.6508444  3
    265    277    283    285     1  0.0000000  0.6508444  3
    266    265    261    268     1  0.0000000  1.2552000  3
    266    265    277    283     1  0.0000000  0.6508444  3
    266    265    277    278     1  0.0000000  0.6508444  3
    266    265    277    279     1  0.0000000  0.6508444  3
    267    265    261    268     1  0.0000000  1.2552000  3
    267    265    277    283     1  0.0000000  0.6508444  3
    267    265    277    278     1  0.0000000  0.6508444  3
    267    265    277    279     1  0.0000000  0.6508444  3
    268    271    280    281     1  0.0000000  0.6508444  3
    268    271    280    282     1  0.0000000  0.6508444  3
    269    268    271    280     1  0.0000000  0.6508444  3
    269    268    271    272     1  0.0000000  0.6508444  3
    269    268    271    273     1  0.0000000  0.6508444  3
    270    268    271    280     1  0.0000000  0.6508444  3
    270    268    271    272     1  0.0000000  0.6508444  3
    270    268    271    273     1  0.0000000  0.6508444  3
    272    271    280    289     1  0.0000000  1.0460000  1
    272    271    280    289     1  0.0000000  0.0000000  3
    272    271    280    281     1  0.0000000  0.6508444  3
    272    271    280    282     1  0.0000000  0.6508444  3
    273    271    280    289     1  0.0000000  1.0460000  1
    273    271    280    289     1  0.0000000  0.0000000  3
    273    271    280    281     1  0.0000000  0.6508444  3
    273    271    280    282     1  0.0000000  0.6508444  3
    275    274    286    637     1  0.0000000  1.0460000  1
    275    274    286    637     1  0.0000000  0.0000000  3
    275    274    286    287     1  0.0000000  0.6508444  3
    275    274    286    288     1  0.0000000  0.6508444  3
    276    274    286    637     1  0.0000000  1.0460000  1
    276    274    286    637     1  0.0000000  0.0000000  3
    276    274    286    287     1  0.0000000  0.6508444  3
    276    274    286    288     1  0.0000000  0.6508444  3
    278    277    283    608     1  0.0000000  1.0460000  1
    278    277    283    608     1  0.0000000  0.0000000  3
    278    277    283    284     1  0.0000000  0.6508444  3
    278    277    283    285     1  0.0000000  0.6508444  3
    279    277    283    608     1  0.0000000  1.0460000  1
    279    277    283    608     1  0.0000000  0.0000000  3
    279    277    283    284     1  0.0000000  0.6508444  3
    279    277    283    285     1  0.0000000  0.6508444  3
    283    608    599    600     1  0.0000000  1.6038667  3
    283    608    599    601     1  0.0000000  1.6038667  3
    284    283    608    599     1  0.0000000  1.6038667  3
    285    283    608    599     1  0.0000000  1.6038667  3
    286    637    628    629     1  0.0000000  1.6038667  3
    286    637    628    630     1  0.0000000  1.6038667  3
    287    286    637    628     1  0.0000000  1.6038667  3
    288    286    637    628     1  0.0000000  1.6038667  3
    290    291    303    304     1  0.0000000  0.6508444  3
    290    291    303    305     1  0.0000000  0.6508444  3
    290    294    306    307     1  0.0000000  0.6508444  3
    290    294    306    308     1  0.0000000  0.6508444  3
    290    297    300    301     1  0.0000000  0.6508444  3
    290    297    300    302     1  0.0000000  0.6508444  3
    291    290    294    295     1  0.0000000  1.2552000  3
    291    290    294    296     1  0.0000000  1.2552000  3
    291    290    297    298     1  0.0000000  1.2552000  3
    291    290    297    299     1  0.0000000  1.2552000  3
    291    303    315    316     1  0.0000000  0.6508444  3
    291    303    315    317     1  0.0000000  0.6508444  3
    292    291    290    294     1  0.0000000  1.2552000  3
    292    291    290    297     1  0.0000000  1.2552000  3
    292    291    303    315     1  0.0000000  0.6508444  3
    292    291    303    304     1  0.0000000  0.6508444  3
    292    291    303    305     1  0.0000000  0.6508444  3
    293    291    290    294     1  0.0000000  1.2552000  3
    293    291    290    297     1  0.0000000  1.2552000  3
    293    291    303    315     1  0.0000000  0.6508444  3
    293    291    303    304     1  0.0000000  0.6508444  3
    293    291    303    305     1  0.0000000  0.6508444  3
    294    290    297    298     1  0.0000000  1.2552000  3
    294    290    297    299     1  0.0000000  1.2552000  3
    294    306    312    313     1  0.0000000  0.6508444  3
    294    306    312    314     1  0.0000000  0.6508444  3
    295    294    290    297     1  0.0000000  1.2552000  3
    295    294    306    312     1  0.0000000  0.6508444  3
    295    294    306    307     1  0.0000000  0.6508444  3
    295    294    306    308     1  0.0000000  0.6508444  3
    296    294    290    297     1  0.0000000  1.2552000  3
    296    294    306    312     1  0.0000000  0.6508444  3
    296    294    306    307     1  0.0000000  0.6508444  3
    296    294    306    308     1  0.0000000  0.6508444  3
    297    300    309    310     1  0.0000000  0.6508444  3
    297    300    309    311     1  0.0000000  0.6508444  3
    298    297    300    309     1  0.0000000  0.6508444  3
    298    297    300    301     1  0.0000000  0.6508444  3
    298    297    300    302     1  0.0000000  0.6508444  3
    299    297    300    309     1  0.0000000  0.6508444  3
    299    297    300    301     1  0.0000000  0.6508444  3
    299    297    300    302     1  0.0000000  0.6508444  3
    301    300    309    318     1  0.0000000  1.0460000  1
    301    300    309    318     1  0.0000000  0.0000000  3
    301    300    309    310     1  0.0000000  0.6508444  3
    301    300    309    311     1  0.0000000  0.6508444  3
    302    300    309    318     1  0.0000000  1.0460000  1
    302    300    309    318     1  0.0000000  0.0000000  3
    302    300    309    310     1  0.0000000  0.6508444  3
    302    300    309    311     1  0.0000000  0.6508444  3
    304    303    315    695     1  0.0000000  1.0460000  1
    304    303    315    695     1  0.0000000  0.0000000  3
    304    303    315    316     1  0.0000000  0.6508444  3
    304    303    315    317     1  0.0000000  0.6508444  3
    305    303    315    695     1  0.0000000  1.0460000  1
    305    303    315    695     1  0.0000000  0.0000000  3
    305    303    315    316     1  0.0000000  0.6508444  3
    305    303    315    317     1  0.0000000  0.6508444  3
    307    306    312    666     1  0.0000000  1.0460000  1
    307    306    312    666     1  0.0000000  0.0000000  3
    307    306    312    313     1  0.0000000  0.6508444  3
    307    306    312    314     1  0.0000000  0.6508444  3
    308    306    312    666     1  0.0000000  1.0460000  1
    308    306    312    666     1  0.0000000  0.0000000  3
    308    306    312    313     1  0.0000000  0.6508444  3
    308    306    312    314     1  0.0000000  0.6508444  3
    312    666    657    658     1  0.0000000  1.6038667  3
    312    666    657    659     1  0.0000000  1.6038667  3
    313    312    666    657     1  0.0000000  1.6038667  3
    314    312    666    657     1  0.0000000  1.6038667  3
    315    695    686    687     1  0.0000000  1.6038667  3
    315    695    686    688     1  0.0000000  1.6038667  3
    316    315    695    686     1  0.0000000  1.6038667  3
    317    315    695    686     1  0.0000000  1.6038667  3
    319    320    332    333     1  0.0000000  0.6508444  3
    319    320    332    334     1  0.0000000  0.6508444  3
    319    323    335    336     1  0.0000000  0.6508444  3
    319    323    335    337     1  0.0000000  0.6508444  3
    319    326    329    330     1  0.0000000  0.6508444  3
    319    326    329    331     1  0.0000000  0.6508444  3
    320    319    323    324     1  0.0000000  1.2552000  3
    320    319    323    325     1  0.0000000  1.2552000  3
    320    319    326    327     1  0.0000000  1.2552000  3
    320    319    326    328     1  0.0000000  1.2552000  3
    320    332    344    345     1  0.0000000  0.6508444  3
    320    332    344    346     1  0.0000000  0.6508444  3
    321    320    319    323     1  0.0000000  1.2552000  3
    321    320    319    326     1  0.0000000  1.2552000  3
    321    320    332    344     1  0.0000000  0.6508444  3
    321    320    332    333     1  0.0000000  0.6508444  3
    321    320    332    334     1  0.0000000  0.6508444  3
    322    320    319    323     1  0.0000000  1.2552000  3
    322    320    319    326     1  0.0000000  1.2552000  3
    322    320    332    344     1  0.0000000  0.6508444  3
    322    320    332    333     1  0.0000000  0.6508444  3
    322    320    332    334     1  0.0000000  0.6508444  3
    323    319    326    327     1  0.0000000  1.2552000  3
    323    319    326    328     1  0.0000000  1.2552000  3
    323    335    341    342     1  0.0000000  0.6508444  3
    323    335    341    343     1  0.0000000  0.6508444  3
    324    323    319    326     1  0.0000000  1.2552000  3
    324    323    335    341     1  0.0000000  0.6508444  3
    324    323    335    336     1  0.0000000  0.6508444  3
    324    323    335    337     1  0.0000000  0.6508444  3
    325    323    319    326     1  0.0000000  1.2552000  3
    325    323    335    341     1  0.0000000  0.6508444  3
    325    323    335    336     1  0.0000000  0.6508444  3
    325    323    335    337     1  0.0000000  0.6508444  3
    326    329    338    339     1  0.0000000  0.6508444  3
    326    329    338    340     1  0.0000000  0.6508444  3
    327    326    329    338     1  0.0000000  0.6508444  3
    327    326    329    330     1  0.0000000  0.6508444  3
    327    326    329    331     1  0.0000000  0.6508444  3
    328    326    329    338     1  0.0000000  0.6508444  3
    328    326    329    330     1  0.0000000  0.6508444  3
    328    326    329    331     1  0.0000000  0.6508444  3
    330    329    338    347     1  0.0000000  1.0460000  1
    330    329    338    347     1  0.0000000  0.0000000  3
    330    329    338    339     1  0.0000000  0.6508444  3
    330    329    338    340     1  0.0000000  0.6508444  3
    331    329    338    347     1  0.0000000  1.0460000  1
    331    329    338    347     1  0.0000000  0.0000000  3
    331    329    338    339     1  0.0000000  0.6508444  3
    331    329    338    340     1  0.0000000  0.6508444  3
    333    332    344    753     1  0.0000000  1.0460000  1
    333    332    344    753     1  0.0000000  0.0000000  3
    333    332    344    345     1  0.0000000  0.6508444  3
    333    332    344    346     1  0.0000000  0.6508444  3
    334    332    344    753     1  0.0000000  1.0460000  1
    334    332    344    753     1  0.0000000  0.0000000  3
    334    332    344    345     1  0.0000000  0.6508444  3
    334    332    344    346     1  0.0000000  0.6508444  3
    336    335    341    724     1  0.0000000  1.0460000  1
    336    335    341    724     1  0.0000000  0.0000000  3
    336    335    341    342     1  0.0000000  0.6508444  3
    336    335    341    343     1  0.0000000  0.6508444  3
    337    335    341    724     1  0.0000000  1.0460000  1
    337    335    341    724     1  0.0000000  0.0000000  3
    337    335    341    342     1  0.0000000  0.6508444  3
    337    335    341    343     1  0.0000000  0.6508444  3
    341    724    715    716     1  0.0000000  1.6038667  3
    341    724    715    717     1  0.0000000  1.6038667  3
    342    341    724    715     1  0.0000000  1.6038667  3
    343    341    724    715     1  0.0000000  1.6038667  3
    344    753    744    745     1  0.0000000  1.6038667  3
    344    753    744    746     1  0.0000000  1.6038667  3
    345    344    753    744     1  0.0000000  1.6038667  3
    346    344    753    744     1  0.0000000  1.6038667  3
    348    349    361    362     1  0.0000000  0.6508444  3
    348    349    361    363     1  0.0000000  0.6508444  3
    348    352    364    365     1  0.0000000  0.6508444  3
    348    352    364    366     1  0.0000000  0.6508444  3
    348    355    358    359     1  0.0000000  0.6508444  3
    348    355    358    360     1  0.0000000  0.6508444  3
    349    348    352    353     1  0.0000000  1.2552000  3
    349    348    352    354     1  0.0000000  1.2552000  3
    349    348    355    356     1  0.0000000  1.2552000  3
    349    348    355    357     1  0.0000000  1.2552000  3
    349    361    373    374     1  0.0000000  0.6508444  3
    349    361    373    375     1  0.0000000  0.6508444  3
    350    349    348    352     1  0.0000000  1.2552000  3
    350    349    348    355     1  0.0000000  1.2552000  3
    350    349    361    373     1  0.0000000  0.6508444  3
    350    349    361    362     1  0.0000000  0.6508444  3
    350    349    361    363     1  0.0000000  0.6508444  3
    351    349    348    352     1  0.0000000  1.2552000  3
    351    349    348    355     1  0.0000000  1.2552000  3
    351    349    361    373     1  0.0000000  0.6508444  3
    351    349    361    362     1  0.0000000  0.6508444  3
    351    349    361    363     1  0.0000000  0.6508444  3
    352    348    355    356     1  0.0000000  1.2552000  3
    352    348    355    357     1  0.0000000  1.2552000  3
    352    364    370    371     1  0.0000000  0.6508444  3
    352    364    370    372     1  0.0000000  0.6508444  3
    353    352    348    355     1  0.0000000  1.2552000  3
    353    352    364    370     1  0.0000000  0.6508444  3
    353    352    364    365     1  0.0000000  0.6508444  3
    353    352    364    366     1  0.0000000  0.6508444  3
    354    352    348    355     1  0.0000000  1.2552000  3
    354    352    364    370     1  0.0000000  0.6508444  3
    354    352    364    365     1  0.0000000  0.6508444  3
    354    352    364    366     1  0.0000000  0.6508444  3
    355    358    367    368     1  0.0000000  0.6508444  3
    355    358    367    369     1  0.0000000  0.6508444  3
    356    355    358    367     1  0.0000000  0.6508444  3
    356    355    358    359     1  0.0000000  0.6508444  3
    356    355    358    360     1  0.0000000  0.6508444  3
    357    355    358    367     1  0.0000000  0.6508444  3
    357    355    358    359     1  0.0000000  0.6508444  3
    357    355    358    360     1  0.0000000  0.6508444  3
    359    358    367    376     1  0.0000000  1.0460000  1
    359    358    367    376     1  0.0000000  0.0000000  3
    359    358    367    368     1  0.0000000  0.6508444  3
    359    358    367    369     1  0.0000000  0.6508444  3
    360    358    367    376     1  0.0000000  1.0460000  1
    360    358    367    376     1  0.0000000  0.0000000  3
    360    358    367    368     1  0.0000000  0.6508444  3
    360    358    367    369     1  0.0000000  0.6508444  3
    362    361    373    811     1  0.0000000  1.0460000  1
    362    361    373    811     1  0.0000000  0.0000000  3
    362    361    373    374     1  0.0000000  0.6508444  3
    362    361    373    375     1  0.0000000  0.6508444  3
    363    361    373    811     1  0.0000000  1.0460000  1
    363    361    373    811     1  0.0000000  0.0000000  3
    363    361    373    374     1  0.0000000  0.6508444  3
    363    361    373    375     1  0.0000000  0.6508444  3
    365    364    370    782     1  0.0000000  1.0460000  1
    365    364    370    782     1  0.0000000  0.0000000  3
    365    364    370    371     1  0.0000000  0.6508444  3
    365    364    370    372     1  0.0000000  0.6508444  3
    366    364    370    782     1  0.0000000  1.0460000  1
    366    364    370    782     1  0.0000000  0.0000000  3
    366    364    370    371     1  0.0000000  0.6508444  3
    366    364    370    372     1  0.0000000  0.6508444  3
    370    782    773    774     1  0.0000000  1.6038667  3
    370    782    773    775     1  0.0000000  1.6038667  3
    371    370    782    773     1  0.0000000  1.6038667  3
    372    370    782    773     1  0.0000000  1.6038667  3
    373    811    802    803     1  0.0000000  1.6038667  3
    373    811    802    804     1  0.0000000  1.6038667  3
    374    373    811    802     1  0.0000000  1.6038667  3
    375    373    811    802     1  0.0000000  1.6038667  3
    377    378    390    391     1  0.0000000  0.6508444  3
    377    378    390    392     1  0.0000000  0.6508444  3
    377    381    393    394     1  0.0000000  0.6508444  3
    377    381    393    395     1  0.0000000  0.6508444  3
    377    384    387    388     1  0.0000000  0.6508444  3
    377    384    387    389     1  0.0000000  0.6508444  3
    378    377    381    382     1  0.0000000  1.2552000  3
    378    377    381    383     1  0.0000000  1.2552000  3
    378    377    384    385     1  0.0000000  1.2552000  3
    378    377    384    386     1  0.0000000  1.2552000  3
    378    390    402    403     1  0.0000000  0.6508444  3
    378    390    402    404     1  0.0000000  0.6508444  3
    379    378    377    381     1  0.0000000  1.2552000  3
    379    378    377    384     1  0.0000000  1.2552000  3
    379    378    390    402     1  0.0000000  0.6508444  3
    379    378    390    391     1  0.0000000  0.6508444  3
    379    378    390    392     1  0.0000000  0.6508444  3
    380    378    377    381     1  0.0000000  1.2552000  3
    380    378    377    384     1  0.0000000  1.2552000  3
    380    378    390    402     1  0.0000000  0.6508444  3
    380    378    390    391     1  0.0000000  0.6508444  3
    380    378    390    392     1  0.0000000  0.6508444  3
    381    377    384    385     1  0.0000000  1.2552000  3
    381    377    384    386     1  0.0000000  1.2552000  3
    381    393    399    400     1  0.0000000  0.6508444  3
    381    393    399    401     1  0.0000000  0.6508444  3
    382    381    377    384     1  0.0000000  1.2552000  3
    382    381    393    399     1  0.0000000  0.6508444  3
    382    381    393    394     1  0.0000000  0.6508444  3
    382    381    393    395     1  0.0000000  0.6508444  3
    383    381    377    384     1  0.0000000  1.2552000  3
    383    381    393    399     1  0.0000000  0.6508444  3
    383    381    393    394     1  0.0000000  0.6508444  3
    383    381    393    395     1  0.0000000  0.6508444  3
    384    387    396    397     1  0.0000000  0.6508444  3
    384    387    396    398     1  0.0000000  0.6508444  3
    385    384    387    396     1  0.0000000  0.6508444  3
    385    384    387    388     1  0.0000000  0.6508444  3
    385    384    387    389     1  0.0000000  0.6508444  3
    386    384    387    396     1  0.0000000  0.6508444  3
    386    384    387    388     1  0.0000000  0.6508444  3
    386    384    387    389     1  0.0000000  0.6508444  3
    388    387    396    405     1  0.0000000  1.0460000  1
    388    387    396    405     1  0.0000000  0.0000000  3
    388    387    396    397     1  0.0000000  0.6508444  3
    388    387    396    398     1  0.0000000  0.6508444  3
    389    387    396    405     1  0.0000000  1.0460000  1
    389    387    396    405     1  0.0000000  0.0000000  3
    389    387    396    397     1  0.0000000  0.6508444  3
    389    387    396    398     1  0.0000000  0.6508444  3
    391    390    402    869     1  0.0000000  1.0460000  1
    391    390    402    869     1  0.0000000  0.0000000  3
    391    390    402    403     1  0.0000000  0.6508444  3
    391    390    402    404     1  0.0000000  0.6508444  3
    392    390    402    869     1  0.0000000  1.0460000  1
    392    390    402    869     1  0.0000000  0.0000000  3
    392    390    402    403     1  0.0000000  0.6508444  3
    392    390    402    404     1  0.0000000  0.6508444  3
    394    393    399    840     1  0.0000000  1.0460000  1
    394    393    399    840     1  0.0000000  0.0000000  3
    394    393    399    400     1  0.0000000  0.6508444  3
    394    393    399    401     1  0.0000000  0.6508444  3
    395    393    399    840     1  0.0000000  1.0460000  1
    395    393    399    840     1  0.0000000  0.0000000  3
    395    393    399    400     1  0.0000000  0.6508444  3
    395    393    399    401     1  0.0000000  0.6508444  3
    399    840    831    832     1  0.0000000  1.6038667  3
    399    840    831    833     1  0.0000000  1.6038667  3
    400    399    840    831     1  0.0000000  1.6038667  3
    401    399    840    831     1  0.0000000  1.6038667  3
    402    869    860    861     1  0.0000000  1.6038667  3
    402    869    860    862     1  0.0000000  1.6038667  3
    403    402    869    860     1  0.0000000  1.6038667  3
    404    402    869    860     1  0.0000000  1.6038667  3
    406    407    419    420     1  0.0000000  0.6508444  3
    406    407    419    421     1  0.0000000  0.6508444  3
    406    410    422    423     1  0.0000000  0.6508444  3
    406    410    422    424     1  0.0000000  0.6508444  3
    406    413    416    417     1  0.0000000  0.6508444  3
    406    413    416    418     1  0.0000000  0.6508444  3
    407    406    410    411     1  0.0000000  1.2552000  3
    407    406    410    412     1  0.0000000  1.2552000  3
    407    406    413    414     1  0.0000000  1.2552000  3
    407    406    413    415     1  0.0000000  1.2552000  3
    407    419    431    432     1  0.0000000  0.6508444  3
    407    419    431    433     1  0.0000000  0.6508444  3
    408    407    406    410     1  0.0000000  1.2552000  3
    408    407    406    413     1  0.0000000  1.2552000  3
    408    407    419    431     1  0.0000000  0.6508444  3
    408    407    419    420     1  0.0000000  0.6508444  3
    408    407    419    421     1  0.0000000  0.6508444  3
    409    407    406    410     1  0.0000000  1.2552000  3
    409    407    406    413     1  0.0000000  1.2552000  3
    409    407    419    431     1  0.0000000  0.6508444  3
    409    407    419    420     1  0.0000000  0.6508444  3
    409    407    419    421     1  0.0000000  0.6508444  3
    410    406    413    414     1  0.0000000  1.2552000  3
    410    406    413    415     1  0.0000000  1.2552000  3
    410    422    428    429     1  0.0000000  0.6508444  3
    410    422    428    430     1  0.0000000  0.6508444  3
    411    410    406    413     1  0.0000000  1.2552000  3
    411    410    422    428     1  0.0000000  0.6508444  3
    411    410    422    423     1  0.0000000  0.6508444  3
    411    410    422    424     1  0.0000000  0.6508444  3
    412    410    406    413     1  0.0000000  1.2552000  3
    412    410    422    428     1  0.0000000  0.6508444  3
    412    410    422    423     1  0.0000000  0.6508444  3
    412    410    422    424     1  0.0000000  0.6508444  3
    413    416    425    426     1  0.0000000  0.6508444  3
    413    416    425    427     1  0.0000000  0.6508444  3
    414    413    416    425     1  0.0000000  0.6508444  3
    414    413    416    417     1  0.0000000  0.6508444  3
    414    413    416    418     1  0.0000000  0.6508444  3
    415    413    416    425     1  0.0000000  0.6508444  3
    415    413    416    417     1  0.0000000  0.6508444  3
    415    413    416    418     1  0.0000000  0.6508444  3
    417    416    425    434     1  0.0000000  1.0460000  1
    417    416    425    434     1  0.0000000  0.0000000  3
    417    416    425    426     1  0.0000000  0.6508444  3
    417    416    425    427     1  0.0000000  0.6508444  3
    418    416    425    434     1  0.0000000  1.0460000  1
    418    416    425    434     1  0.0000000  0.0000000  3
    418    416    425    426     1  0.0000000  0.6508444  3
    418    416    425    427     1  0.0000000  0.6508444  3
    420    419    431    927     1  0.0000000  1.0460000  1
    420    419    431    927     1  0.0000000  0.0000000  3
    420    419    431    432     1  0.0000000  0.6508444  3
    420    419    431    433     1  0.0000000  0.6508444  3
    421    419    431    927     1  0.0000000  1.0460000  1
    421    419    431    927     1  0.0000000  0.0000000  3
    421    419    431    432     1  0.0000000  0.6508444  3
    421    419    431    433     1  0.0000000  0.6508444  3
    423    422    428    898     1  0.0000000  1.0460000  1
    423    422    428    898     1  0.0000000  0.0000000  3
    423    422    428    429     1  0.0000000  0.6508444  3
    423    422    428    430     1  0.0000000  0.6508444  3
    424    422    428    898     1  0.0000000  1.0460000  1
    424    422    428    898     1  0.0000000  0.0000000  3
    424    422    428    429     1  0.0000000  0.6508444  3
    424    422    428    430     1  0.0000000  0.6508444  3
    428    898    889    890     1  0.0000000  1.6038667  3
    428    898    889    891     1  0.0000000  1.6038667  3
    429    428    898    889     1  0.0000000  1.6038667  3
    430    428    898    889     1  0.0000000  1.6038667  3
    431    927    918    919     1  0.0000000  1.6038667  3
    431    927    918    920     1  0.0000000  1.6038667  3
    432    431    927    918     1  0.0000000  1.6038667  3
    433    431    927    918     1  0.0000000  1.6038667  3
    435    436    448    449     1  0.0000000  0.6508444  3
    435    436    448    450     1  0.0000000  0.6508444  3
    435    439    451    452     1  0.0000000  0.6508444  3
    435    439    451    453     1  0.0000000  0.6508444  3
    435    442    445    446     1  0.0000000  0.6508444  3
    435    442    445    447     1  0.0000000  0.6508444  3
    436    435    439    440     1  0.0000000  1.2552000  3
    436    435    439    441     1  0.0000000  1.2552000  3
    436    435    442    443     1  0.0000000  1.2552000  3
    436    435    442    444     1  0.0000000  1.2552000  3
    436    448    460    461     1  0.0000000  0.6508444  3
    436    448    460    462     1  0.0000000  0.6508444  3
    437    436    435    439     1  0.0000000  1.2552000  3
    437    436    435    442     1  0.0000000  1.2552000  3
    437    436    448    460     1  0.0000000  0.6508444  3
    437    436    448    449     1  0.0000000  0.6508444  3
    437    436    448    450     1  0.0000000  0.6508444  3
    438    436    435    439     1  0.0000000  1.2552000  3
    438    436    435    442     1  0.0000000  1.2552000  3
    438    436    448    460     1  0.0000000  0.6508444  3
    438    436    448    449     1  0.0000000  0.6508444  3
    438    436    448    450     1  0.0000000  0.6508444  3
    439    435    442    443     1  0.0000000  1.2552000  3
    439    435    442    444     1  0.0000000  1.2552000  3
    439    451    457    458     1  0.0000000  0.6508444  3
    439    451    457    459     1  0.0000000  0.6508444  3
    440    439    435    442     1  0.0000000  1.2552000  3
    440    439    451    457     1  0.0000000  0.6508444  3
    440    439    451    452     1  0.0000000  0.6508444  3
    440    439    451    453     1  0.0000000  0.6508444  3
    441    439    435    442     1  0.0000000  1.2552000  3
    441    439    451    457     1  0.0000000  0.6508444  3
    441    439    451    452     1  0.0000000  0.6508444  3
    441    439    451    453     1  0.0000000  0.6508444  3
    442    445    454    455     1  0.0000000  0.6508444  3
    442    445    454    456     1  0.0000000  0.6508444  3
    443    442    445    454     1  0.0000000  0.6508444  3
    443    442    445    446     1  0.0000000  0.6508444  3
    443    442    445    447     1  0.0000000  0.6508444  3
    444    442    445    454     1  0.0000000  0.6508444  3
    444    442    445    446     1  0.0000000  0.6508444  3
    444    442    445    447     1  0.0000000  0.6508444  3
    446    445    454    463     1  0.0000000  1.0460000  1
    446    445    454    463     1  0.0000000  0.0000000  3
    446    445    454    455     1  0.0000000  0.6508444  3
    446    445    454    456     1  0.0000000  0.6508444  3
    447    445    454    463     1  0.0000000  1.0460000  1
    447    445    454    463     1  0.0000000  0.0000000  3
    447    445    454    455     1  0.0000000  0.6508444  3
    447    445    454    456     1  0.0000000  0.6508444  3
    449    448    460    985     1  0.0000000  1.0460000  1
    449    448    460    985     1  0.0000000  0.0000000  3
    449    448    460    461     1  0.0000000  0.6508444  3
    449    448    460    462     1  0.0000000  0.6508444  3
    450    448    460    985     1  0.0000000  1.0460000  1
    450    448    460    985     1  0.0000000  0.0000000  3
    450    448    460    461     1  0.0000000  0.6508444  3
    450    448    460    462     1  0.0000000  0.6508444  3
    452    451    457    956     1  0.0000000  1.0460000  1
    452    451    457    956     1  0.0000000  0.0000000  3
    452    451    457    458     1  0.0000000  0.6508444  3
    452    451    457    459     1  0.0000000  0.6508444  3
    453    451    457    956     1  0.0000000  1.0460000  1
    453    451    457    956     1  0.0000000  0.0000000  3
    453    451    457    458     1  0.0000000  0.6508444  3
    453    451    457    459     1  0.0000000  0.6508444  3
    457    956    947    948     1  0.0000000  1.6038667  3
    457    956    947    949     1  0.0000000  1.6038667  3
    458    457    956    947     1  0.0000000  1.6038667  3
    459    457    956    947     1  0.0000000  1.6038667  3
    460    985    976    977     1  0.0000000  1.6038667  3
    460    985    976    978     1  0.0000000  1.6038667  3
    461    460    985    976     1  0.0000000  1.6038667  3
    462    460    985    976     1  0.0000000  1.6038667  3
    464    465    477    478     1  0.0000000  0.6508444  3
    464    465    477    479     1  0.0000000  0.6508444  3
    464    468    480    481     1  0.0000000  0.6508444  3
    464    468    480    482     1  0.0000000  0.6508444  3
    464    471    474    475     1  0.0000000  0.6508444  3
    464    471    474    476     1  0.0000000  0.6508444  3
    465    464    468    469     1  0.0000000  1.2552000  3
    465    464    468    470     1  0.0000000  1.2552000  3
    465    464    471    472     1  0.0000000  1.2552000  3
    465    464    471    473     1  0.0000000  1.2552000  3
    465    477    489    490     1  0.0000000  0.6508444  3
    465    477    489    491     1  0.0000000  0.6508444  3
    466    465    464    468     1  0.0000000  1.2552000  3
    466    465    464    471     1  0.0000000  1.2552000  3
    466    465    477    489     1  0.0000000  0.6508444  3
    466    465    477    478     1  0.0000000  0.6508444  3
    466    465    477    479     1  0.0000000  0.6508444  3
    467    465    464    468     1  0.0000000  1.2552000  3
    467    465    464    471     1  0.0000000  1.2552000  3
    467    465    477    489     1  0.0000000  0.6508444  3
    467    465    477    478     1  0.0000000  0.6508444  3
    467    465    477    479     1  0.0000000  0.6508444  3
    468    464    471    472     1  0.0000000  1.2552000  3
    468    464    471    473     1  0.0000000  1.2552000  3
    468    480    486    487     1  0.0000000  0.6508444  3
    468    480    486    488     1  0.0000000  0.6508444  3
    469    468    464    471     1  0.0000000  1.2552000  3
    469    468    480    486     1  0.0000000  0.6508444  3
    469    468    480    481     1  0.0000000  0.6508444  3
    469    468    480    482     1  0.0000000  0.6508444  3
    470    468    464    471     1  0.0000000  1.2552000  3
    470    468    480    486     1  0.0000000  0.6508444  3
    470    468    480    481     1  0.0000000  0.6508444  3
    470    468    480    482     1  0.0000000  0.6508444  3
    471    474    483    484     1  0.0000000  0.6508444  3
    471    474    483    485     1  0.0000000  0.6508444  3
    472    471    474    483     1  0.0000000  0.6508444  3
    472    471    474    475     1  0.0000000  0.6508444  3
    472    471    474    476     1  0.0000000  0.6508444  3
    473    471    474    483     1  0.0000000  0.6508444  3
    473    471    474    475     1  0.0000000  0.6508444  3
    473    471    474    476     1  0.0000000  0.6508444  3
    475    474    483    492     1  0.0000000  1.0460000  1
    475    474    483    492     1  0.0000000  0.0000000  3
    475    474    483    484     1  0.0000000  0.6508444  3
    475    474    483    485     1  0.0000000  0.6508444  3
    476    474    483    492     1  0.0000000  1.0460000  1
    476    474    483    492     1  0.0000000  0.0000000  3
    476    474    483    484     1  0.0000000  0.6508444  3
    476    474    483    485     1  0.0000000  0.6508444  3
    478    477    489   1043     1  0.0000000  1.0460000  1
    478    477    489   1043     1  0.0000000  0.0000000  3
    478    477    489    490     1  0.0000000  0.6508444  3
    478    477    489    491     1  0.0000000  0.6508444  3
    479    477    489   1043     1  0.0000000  1.0460000  1
    479    477    489   1043     1  0.0000000  0.0000000  3
    479    477    489    490     1  0.0000000  0.6508444  3
    479    477    489    491     1  0.0000000  0.6508444  3
    481    480    486   1014     1  0.0000000  1.0460000  1
    481    480    486   1014     1  0.0000000  0.0000000  3
    481    480    486    487     1  0.0000000  0.6508444  3
    481    480    486    488     1  0.0000000  0.6508444  3
    482    480    486   1014     1  0.0000000  1.0460000  1
    482    480    486   1014     1  0.0000000  0.0000000  3
    482    480    486    487     1  0.0000000  0.6508444  3
    482    480    486    488     1  0.0000000  0.6508444  3
    486   1014   1005   1006     1  0.0000000  1.6038667  3
    486   1014   1005   1007     1  0.0000000  1.6038667  3
    487    486   1014   1005     1  0.0000000  1.6038667  3
    488    486   1014   1005     1  0.0000000  1.6038667  3
    489   1043   1034   1035     1  0.0000000  1.6038667  3
    489   1043   1034   1036     1  0.0000000  1.6038667  3
    490    489   1043   1034     1  0.0000000  1.6038667  3
    491    489   1043   1034     1  0.0000000  1.6038667  3
    493    494    506    507     1  0.0000000  0.6508444  3
    493    494    506    508     1  0.0000000  0.6508444  3
    493    497    509    510     1  0.0000000  0.6508444  3
    493    497    509    511     1  0.0000000  0.6508444  3
    493    500    503    504     1  0.0000000  0.6508444  3
    493    500    503    505     1  0.0000000  0.6508444  3
    494    493    497    498     1  0.0000000  1.2552000  3
    494    493    497    499     1  0.0000000  1.2552000  3
    494    493    500    501     1  0.0000000  1.2552000  3
    494    493    500    502     1  0.0000000  1.2552000  3
    494    506    518    519     1  0.0000000  0.6508444  3
    494    506    518    520     1  0.0000000  0.6508444  3
    495    494    493    497     1  0.0000000  1.2552000  3
    495    494    493    500     1  0.0000000  1.2552000  3
    495    494    506    518     1  0.0000000  0.6508444  3
    495    494    506    507     1  0.0000000  0.6508444  3
    495    494    506    508     1  0.0000000  0.6508444  3
    496    494    493    497     1  0.0000000  1.2552000  3
    496    494    493    500     1  0.0000000  1.2552000  3
    496    494    506    518     1  0.0000000  0.6508444  3
    496    494    506    507     1  0.0000000  0.6508444  3
    496    494    506    508     1  0.0000000  0.6508444  3
    497    493    500    501     1  0.0000000  1.2552000  3
    497    493    500    502     1  0.0000000  1.2552000  3
    497    509    515    516     1  0.0000000  0.6508444  3
    497    509    515    517     1  0.0000000  0.6508444  3
    498    497    493    500     1  0.0000000  1.2552000  3
    498    497    509    515     1  0.0000000  0.6508444  3
    498    497    509    510     1  0.0000000  0.6508444  3
    498    497    509    511     1  0.0000000  0.6508444  3
    499    497    493    500     1  0.0000000  1.2552000  3
    499    497    509    515     1  0.0000000  0.6508444  3
    499    497    509    510     1  0.0000000  0.6508444  3
    499    497    509    511     1  0.0000000  0.6508444  3
    500    503    512    513     1  0.0000000  0.6508444  3
    500    503    512    514     1  0.0000000  0.6508444  3
    501    500    503    512     1  0.0000000  0.6508444  3
    501    500    503    504     1  0.0000000  0.6508444  3
    501    500    503    505     1  0.0000000  0.6508444  3
    502    500    503    512     1  0.0000000  0.6508444  3
    502    500    503    504     1  0.0000000  0.6508444  3
    502    500    503    505     1  0.0000000  0.6508444  3
    504    503    512    521     1  0.0000000  1.0460000  1
    504    503    512    521     1  0.0000000  0.0000000  3
    504    503    512    513     1  0.0000000  0.6508444  3
    504    503    512    514     1  0.0000000  0.6508444  3
    505    503    512    521     1  0.0000000  1.0460000  1
    505    503    512    521     1  0.0000000  0.0000000  3
    505    503    512    513     1  0.0000000  0.6508444  3
    505    503    512    514     1  0.0000000  0.6508444  3
    507    506    518   1101     1  0.0000000  1.0460000  1
    507    506    518   1101     1  0.0000000  0.0000000  3
    507    506    518    519     1  0.0000000  0.6508444  3
    507    506    518    520     1  0.0000000  0.6508444  3
    508    506    518   1101     1  0.0000000  1.0460000  1
    508    506    518   1101     1  0.0000000  0.0000000  3
    508    506    518    519     1  0.0000000  0.6508444  3
    508    506    518    520     1  0.0000000  0.6508444  3
    510    509    515   1072     1  0.0000000  1.0460000  1
    510    509    515   1072     1  0.0000000  0.0000000  3
    510    509    515    516     1  0.0000000  0.6508444  3
    510    509    515    517     1  0.0000000  0.6508444  3
    511    509    515   1072     1  0.0000000  1.0460000  1
    511    509    515   1072     1  0.0000000  0.0000000  3
    511    509    515    516     1  0.0000000  0.6508444  3
    511    509    515    517     1  0.0000000  0.6508444  3
    515   1072   1063   1064     1  0.0000000  1.6038667  3
    515   1072   1063   1065     1  0.0000000  1.6038667  3
    516    515   1072   1063     1  0.0000000  1.6038667  3
    517    515   1072   1063     1  0.0000000  1.6038667  3
    518   1101   1092   1093     1  0.0000000  1.6038667  3
    518   1101   1092   1094     1  0.0000000  1.6038667  3
    519    518   1101   1092     1  0.0000000  1.6038667  3
    520    518   1101   1092     1  0.0000000  1.6038667  3
    522    523    535    536     1  0.0000000  0.6508444  3
    522    523    535    537     1  0.0000000  0.6508444  3
    522    526    538    539     1  0.0000000  0.6508444  3
    522    526    538    540     1  0.0000000  0.6508444  3
    522    529    532    533     1  0.0000000  0.6508444  3
    522    529    532    534     1  0.0000000  0.6508444  3
    523    522    526    527     1  0.0000000  1.2552000  3
    523    522    526    528     1  0.0000000  1.2552000  3
    523    522    529    530     1  0.0000000  1.2552000  3
    523    522    529    531     1  0.0000000  1.2552000  3
    523    535    547    548     1  0.0000000  0.6508444  3
    523    535    547    549     1  0.0000000  0.6508444  3
    524    523    522    526     1  0.0000000  1.2552000  3
    524    523    522    529     1  0.0000000  1.2552000  3
    524    523    535    547     1  0.0000000  0.6508444  3
    524    523    535    536     1  0.0000000  0.6508444  3
    524    523    535    537     1  0.0000000  0.6508444  3
    525    523    522    526     1  0.0000000  1.2552000  3
    525    523    522    529     1  0.0000000  1.2552000  3
    525    523    535    547     1  0.0000000  0.6508444  3
    525    523    535    536     1  0.0000000  0.6508444  3
    525    523    535    537     1  0.0000000  0.6508444  3
    526    522    529    530     1  0.0000000  1.2552000  3
    526    522    529    531     1  0.0000000  1.2552000  3
    526    538    544    545     1  0.0000000  0.6508444  3
    526    538    544    546     1  0.0000000  0.6508444  3
    527    526    522    529     1  0.0000000  1.2552000  3
    527    526    538    544     1  0.0000000  0.6508444  3
    527    526    538    539     1  0.0000000  0.6508444  3
    527    526    538    540     1  0.0000000  0.6508444  3
    528    526    522    529     1  0.0000000  1.2552000  3
    528    526    538    544     1  0.0000000  0.6508444  3
    528    526    538    539     1  0.0000000  0.6508444  3
    528    526    538    540     1  0.0000000  0.6508444  3
    529    532    541    542     1  0.0000000  0.6508444  3
    529    532    541    543     1  0.0000000  0.6508444  3
    530    529    532    541     1  0.0000000  0.6508444  3
    530    529    532    533     1  0.0000000  0.6508444  3
    530    529    532    534     1  0.0000000  0.6508444  3
    531    529    532    541     1  0.0000000  0.6508444  3
    531    529    532    533     1  0.0000000  0.6508444  3
    531    529    532    534     1  0.0000000  0.6508444  3
    533    532    541    550     1  0.0000000  1.0460000  1
    533    532    541    550     1  0.0000000  0.0000000  3
    533    532    541    542     1  0.0000000  0.6508444  3
    533    532    541    543     1  0.0000000  0.6508444  3
    534    532    541    550     1  0.0000000  1.0460000  1
    534    532    541    550     1  0.0000000  0.0000000  3
    534    532    541    542     1  0.0000000  0.6508444  3
    534    532    541    543     1  0.0000000  0.6508444  3
    536    535    547   1159     1  0.0000000  1.0460000  1
    536    535    547   1159     1  0.0000000  0.0000000  3
    536    535    547    548     1  0.0000000  0.6508444  3
    536    535    547    549     1  0.0000000  0.6508444  3
    537    535    547   1159     1  0.0000000  1.0460000  1
    537    535    547   1159     1  0.0000000  0.0000000  3
    537    535    547    548     1  0.0000000  0.6508444  3
    537    535    547    549     1  0.0000000  0.6508444  3
    539    538    544   1130     1  0.0000000  1.0460000  1
    539    538    544   1130     1  0.0000000  0.0000000  3
    539    538    544    545     1  0.0000000  0.6508444  3
    539    538    544    546     1  0.0000000  0.6508444  3
    540    538    544   1130     1  0.0000000  1.0460000  1
    540    538    544   1130     1  0.0000000  0.0000000  3
    540    538    544    545     1  0.0000000  0.6508444  3
    540    538    544    546     1  0.0000000  0.6508444  3
    544   1130   1121   1122     1  0.0000000  1.6038667  3
    544   1130   1121   1123     1  0.0000000  1.6038667  3
    545    544   1130   1121     1  0.0000000  1.6038667  3
    546    544   1130   1121     1  0.0000000  1.6038667  3
    547   1159   1150   1151     1  0.0000000  1.6038667  3
    547   1159   1150   1152     1  0.0000000  1.6038667  3
    548    547   1159   1150     1  0.0000000  1.6038667  3
    549    547   1159   1150     1  0.0000000  1.6038667  3
    551    552    564    565     1  0.0000000  0.6508444  3
    551    552    564    566     1  0.0000000  0.6508444  3
    551    555    567    568     1  0.0000000  0.6508444  3
    551    555    567    569     1  0.0000000  0.6508444  3
    551    558    561    562     1  0.0000000  0.6508444  3
    551    558    561    563     1  0.0000000  0.6508444  3
    552    551    555    556     1  0.0000000  1.2552000  3
    552    551    555    557     1  0.0000000  1.2552000  3
    552    551    558    559     1  0.0000000  1.2552000  3
    552    551    558    560     1  0.0000000  1.2552000  3
    552    564    576    577     1  0.0000000  0.6508444  3
    552    564    576    578     1  0.0000000  0.6508444  3
    553    552    551    555     1  0.0000000  1.2552000  3
    553    552    551    558     1  0.0000000  1.2552000  3
    553    552    564    576     1  0.0000000  0.6508444  3
    553    552    564    565     1  0.0000000  0.6508444  3
    553    552    564    566     1  0.0000000  0.6508444  3
    554    552    551    555     1  0.0000000  1.2552000  3
    554    552    551    558     1  0.0000000  1.2552000  3
    554    552    564    576     1  0.0000000  0.6508444  3
    554    552    564    565     1  0.0000000  0.6508444  3
    554    552    564    566     1  0.0000000  0.6508444  3
    555    551    558    559     1  0.0000000  1.2552000  3
    555    551    558    560     1  0.0000000  1.2552000  3
    555    567    573    574     1  0.0000000  0.6508444  3
    555    567    573    575     1  0.0000000  0.6508444  3
    556    555    551    558     1  0.0000000  1.2552000  3
    556    555    567    573     1  0.0000000  0.6508444  3
    556    555    567    568     1  0.0000000  0.6508444  3
    556    555    567    569     1  0.0000000  0.6508444  3
    557    555    551    558     1  0.0000000  1.2552000  3
    557    555    567    573     1  0.0000000  0.6508444  3
    557    555    567    568     1  0.0000000  0.6508444  3
    557    555    567    569     1  0.0000000  0.6508444  3
    558    561    570    571     1  0.0000000  0.6508444  3
    558    561    570    572     1  0.0000000  0.6508444  3
    559    558    561    570     1  0.0000000  0.6508444  3
    559    558    561    562     1  0.0000000  0.6508444  3
    559    558    561    563     1  0.0000000  0.6508444  3
    560    558    561    570     1  0.0000000  0.6508444  3
    560    558    561    562     1  0.0000000  0.6508444  3
    560    558    561    563     1  0.0000000  0.6508444  3
    562    561    570    579     1  0.0000000  1.0460000  1
    562    561    570    579     1  0.0000000  0.0000000  3
    562    561    570    571     1  0.0000000  0.6508444  3
    562    561    570    572     1  0.0000000  0.6508444  3
    563    561    570    579     1  0.0000000  1.0460000  1
    563    561    570    579     1  0.0000000  0.0000000  3
    563    561    570    571     1  0.0000000  0.6508444  3
    563    561    570    572     1  0.0000000  0.6508444  3
    565    564    576   1217     1  0.0000000  1.0460000  1
    565    564    576   1217     1  0.0000000  0.0000000  3
    565    564    576    577     1  0.0000000  0.6508444  3
    565    564    576    578     1  0.0000000  0.6508444  3
    566    564    576   1217     1  0.0000000  1.0460000  1
    566    564    576   1217     1  0.0000000  0.0000000  3
    566    564    576    577     1  0.0000000  0.6508444  3
    566    564    576    578     1  0.0000000  0.6508444  3
    568    567    573   1188     1  0.0000000  1.0460000  1
    568    567    573   1188     1  0.0000000  0.0000000  3
    568    567    573    574     1  0.0000000  0.6508444  3
    568    567    573    575     1  0.0000000  0.6508444  3
    569    567    573   1188     1  0.0000000  1.0460000  1
    569    567    573   1188     1  0.0000000  0.0000000  3
    569    567    573    574     1  0.0000000  0.6508444  3
    569    567    573    575     1  0.0000000  0.6508444  3
    573   1188   1179   1180     1  0.0000000  1.6038667  3
    573   1188   1179   1181     1  0.0000000  1.6038667  3
    574    573   1188   1179     1  0.0000000  1.6038667  3
    575    573   1188   1179     1  0.0000000  1.6038667  3
    576   1217   1208   1209     1  0.0000000  1.6038667  3
    576   1217   1208   1210     1  0.0000000  1.6038667  3
    577    576   1217   1208     1  0.0000000  1.6038667  3
    578    576   1217   1208     1  0.0000000  1.6038667  3
    580    581    593    594     1  0.0000000  0.6508444  3
    580    581    593    595     1  0.0000000  0.6508444  3
    580    584    596    597     1  0.0000000  0.6508444  3
    580    584    596    598     1  0.0000000  0.6508444  3
    580    587    590    591     1  0.0000000  0.6508444  3
    580    587    590    592     1  0.0000000  0.6508444  3
    581    580    584    585     1  0.0000000  1.2552000  3
    581    580    584    586     1  0.0000000  1.2552000  3
    581    580    587    588     1  0.0000000  1.2552000  3
    581    580    587    589     1  0.0000000  1.2552000  3
    581    593    605    606     1  0.0000000  0.6508444  3
    581    593    605    607     1  0.0000000  0.6508444  3
    582    581    580    584     1  0.0000000  1.2552000  3
    582    581    580    587     1  0.0000000  1.2552000  3
    582    581    593    605     1  0.0000000  0.6508444  3
    582    581    593    594     1  0.0000000  0.6508444  3
    582    581    593    595     1  0.0000000  0.6508444  3
    583    581    580    584     1  0.0000000  1.2552000  3
    583    581    580    587     1  0.0000000  1.2552000  3
    583    581    593    605     1  0.0000000  0.6508444  3
    583    581    593    594     1  0.0000000  0.6508444  3
    583    581    593    595     1  0.0000000  0.6508444  3
    584    580    587    588     1  0.0000000  1.2552000  3
    584    580    587    589     1  0.0000000  1.2552000  3
    584    596    602    603     1  0.0000000  0.6508444  3
    584    596    602    604     1  0.0000000  0.6508444  3
    585    584    580    587     1  0.0000000  1.2552000  3
    585    584    596    602     1  0.0000000  0.6508444  3
    585    584    596    597     1  0.0000000  0.6508444  3
    585    584    596    598     1  0.0000000  0.6508444  3
    586    584    580    587     1  0.0000000  1.2552000  3
    586    584    596    602     1  0.0000000  0.6508444  3
    586    584    596    597     1  0.0000000  0.6508444  3
    586    584    596    598     1  0.0000000  0.6508444  3
    587    590    599    600     1  0.0000000  0.6508444  3
    587    590    599    601     1  0.0000000  0.6508444  3
    588    587    590    599     1  0.0000000  0.6508444  3
    588    587    590    591     1  0.0000000  0.6508444  3
    588    587    590    592     1  0.0000000  0.6508444  3
    589    587    590    599     1  0.0000000  0.6508444  3
    589    587    590    591     1  0.0000000  0.6508444  3
    589    587    590    592     1  0.0000000  0.6508444  3
    591    590    599    608     1  0.0000000  1.0460000  1
    591    590    599    608     1  0.0000000  0.0000000  3
    591    590    599    600     1  0.0000000  0.6508444  3
    591    590    599    601     1  0.0000000  0.6508444  3
    592    590    599    608     1  0.0000000  1.0460000  1
    592    590    599    608     1  0.0000000  0.0000000  3
    592    590    599    600     1  0.0000000  0.6508444  3
    592    590    599    601     1  0.0000000  0.6508444  3
    594    593    605   1275     1  0.0000000  1.0460000  1
    594    593    605   1275     1  0.0000000  0.0000000  3
    594    593    605    606     1  0.0000000  0.6508444  3
    594    593    605    607     1  0.0000000  0.6508444  3
    595    593    605   1275     1  0.0000000  1.0460000  1
    595    593    605   1275     1  0.0000000  0.0000000  3
    595    593    605    606     1  0.0000000  0.6508444  3
    595    593    605    607     1  0.0000000  0.6508444  3
    597    596    602   1246     1  0.0000000  1.0460000  1
    597    596    602   1246     1  0.0000000  0.0000000  3
    597    596    602    603     1  0.0000000  0.6508444  3
    597    596    602    604     1  0.0000000  0.6508444  3
    598    596    602   1246     1  0.0000000  1.0460000  1
    598    596    602   1246     1  0.0000000  0.0000000  3
    598    596    602    603     1  0.0000000  0.6508444  3
    598    596    602    604     1  0.0000000  0.6508444  3
    602   1246   1237   1238     1  0.0000000  1.6038667  3
    602   1246   1237   1239     1  0.0000000  1.6038667  3
    603    602   1246   1237     1  0.0000000  1.6038667  3
    604    602   1246   1237     1  0.0000000  1.6038667  3
    605   1275   1266   1267     1  0.0000000  1.6038667  3
    605   1275   1266   1268     1  0.0000000  1.6038667  3
    606    605   1275   1266     1  0.0000000  1.6038667  3
    607    605   1275   1266     1  0.0000000  1.6038667  3
    609    610    622    623     1  0.0000000  0.6508444  3
    609    610    622    624     1  0.0000000  0.6508444  3
    609    613    625    626     1  0.0000000  0.6508444  3
    609    613    625    627     1  0.0000000  0.6508444  3
    609    616    619    620     1  0.0000000  0.6508444  3
    609    616    619    621     1  0.0000000  0.6508444  3
    610    609    613    614     1  0.0000000  1.2552000  3
    610    609    613    615     1  0.0000000  1.2552000  3
    610    609    616    617     1  0.0000000  1.2552000  3
    610    609    616    618     1  0.0000000  1.2552000  3
    610    622    634    635     1  0.0000000  0.6508444  3
    610    622    634    636     1  0.0000000  0.6508444  3
    611    610    609    613     1  0.0000000  1.2552000  3
    611    610    609    616     1  0.0000000  1.2552000  3
    611    610    622    634     1  0.0000000  0.6508444  3
    611    610    622    623     1  0.0000000  0.6508444  3
    611    610    622    624     1  0.0000000  0.6508444  3
    612    610    609    613     1  0.0000000  1.2552000  3
    612    610    609    616     1  0.0000000  1.2552000  3
    612    610    622    634     1  0.0000000  0.6508444  3
    612    610    622    623     1  0.0000000  0.6508444  3
    612    610    622    624     1  0.0000000  0.6508444  3
    613    609    616    617     1  0.0000000  1.2552000  3
    613    609    616    618     1  0.0000000  1.2552000  3
    613    625    631    632     1  0.0000000  0.6508444  3
    613    625    631    633     1  0.0000000  0.6508444  3
    614    613    609    616     1  0.0000000  1.2552000  3
    614    613    625    631     1  0.0000000  0.6508444  3
    614    613    625    626     1  0.0000000  0.6508444  3
    614    613    625    627     1  0.0000000  0.6508444  3
    615    613    609    616     1  0.0000000  1.2552000  3
    615    613    625    631     1  0.0000000  0.6508444  3
    615    613    625    626     1  0.0000000  0.6508444  3
    615    613    625    627     1  0.0000000  0.6508444  3
    616    619    628    629     1  0.0000000  0.6508444  3
    616    619    628    630     1  0.0000000  0.6508444  3
    617    616    619    628     1  0.0000000  0.6508444  3
    617    616    619    620     1  0.0000000  0.6508444  3
    617    616    619    621     1  0.0000000  0.6508444  3
    618    616    619    628     1  0.0000000  0.6508444  3
    618    616    619    620     1  0.0000000  0.6508444  3
    618    616    619    621     1  0.0000000  0.6508444  3
    620    619    628    637     1  0.0000000  1.0460000  1
    620    619    628    637     1  0.0000000  0.0000000  3
    620    619    628    629     1  0.0000000  0.6508444  3
    620    619    628    630     1  0.0000000  0.6508444  3
    621    619    628    637     1  0.0000000  1.0460000  1
    621    619    628    637     1  0.0000000  0.0000000  3
    621    619    628    629     1  0.0000000  0.6508444  3
    621    619    628    630     1  0.0000000  0.6508444  3
    623    622    634   1333     1  0.0000000  1.0460000  1
    623    622    634   1333     1  0.0000000  0.0000000  3
    623    622    634    635     1  0.0000000  0.6508444  3
    623    622    634    636     1  0.0000000  0.6508444  3
    624    622    634   1333     1  0.0000000  1.0460000  1
    624    622    634   1333     1  0.0000000  0.0000000  3
    624    622    634    635     1  0.0000000  0.6508444  3
    624    622    634    636     1  0.0000000  0.6508444  3
    626    625    631   1304     1  0.0000000  1.0460000  1
    626    625    631   1304     1  0.0000000  0.0000000  3
    626    625    631    632     1  0.0000000  0.6508444  3
    626    625    631    633     1  0.0000000  0.6508444  3
    627    625    631   1304     1  0.0000000  1.0460000  1
    627    625    631   1304     1  0.0000000  0.0000000  3
    627    625    631    632     1  0.0000000  0.6508444  3
    627    625    631    633     1  0.0000000  0.6508444  3
    631   1304   1295   1296     1  0.0000000  1.6038667  3
    631   1304   1295   1297     1  0.0000000  1.6038667  3
    632    631   1304   1295     1  0.0000000  1.6038667  3
    633    631   1304   1295     1  0.0000000  1.6038667  3
    634   1333   1324   1325     1  0.0000000  1.6038667  3
    634   1333   1324   1326     1  0.0000000  1.6038667  3
    635    634   1333   1324     1  0.0000000  1.6038667  3
    636    634   1333   1324     1  0.0000000  1.6038667  3
    638    639    651    652     1  0.0000000  0.6508444  3
    638    639    651    653     1  0.0000000  0.6508444  3
    638    642    654    655     1  0.0000000  0.6508444  3
    638    642    654    656     1  0.0000000  0.6508444  3
    638    645    648    649     1  0.0000000  0.6508444  3
    638    645    648    650     1  0.0000000  0.6508444  3
    639    638    642    643     1  0.0000000  1.2552000  3
    639    638    642    644     1  0.0000000  1.2552000  3
    639    638    645    646     1  0.0000000  1.2552000  3
    639    638    645    647     1  0.0000000  1.2552000  3
    639    651    663    664     1  0.0000000  0.6508444  3
    639    651    663    665     1  0.0000000  0.6508444  3
    640    639    638    642     1  0.0000000  1.2552000  3
    640    639    638    645     1  0.0000000  1.2552000  3
    640    639    651    663     1  0.0000000  0.6508444  3
    640    639    651    652     1  0.0000000  0.6508444  3
    640    639    651    653     1  0.0000000  0.6508444  3
    641    639    638    642     1  0.0000000  1.2552000  3
    641    639    638    645     1  0.0000000  1.2552000  3
    641    639    651    663     1  0.0000000  0.6508444  3
    641    639    651    652     1  0.0000000  0.6508444  3
    641    639    651    653     1  0.0000000  0.6508444  3
    642    638    645    646     1  0.0000000  1.2552000  3
    642    638    645    647     1  0.0000000  1.2552000  3
    642    654    660    661     1  0.0000000  0.6508444  3
    642    654    660    662     1  0.0000000  0.6508444  3
    643    642    638    645     1  0.0000000  1.2552000  3
    643    642    654    660     1  0.0000000  0.6508444  3
    643    642    654    655     1  0.0000000  0.6508444  3
    643    642    654    656     1  0.0000000  0.6508444  3
    644    642    638    645     1  0.0000000  1.2552000  3
    644    642    654    660     1  0.0000000  0.6508444  3
    644    642    654    655     1  0.0000000  0.6508444  3
    644    642    654    656     1  0.0000000  0.6508444  3
    645    648    657    658     1  0.0000000  0.6508444  3
    645    648    657    659     1  0.0000000  0.6508444  3
    646    645    648    657     1  0.0000000  0.6508444  3
    646    645    648    649     1  0.0000000  0.6508444  3
    646    645    648    650     1  0.0000000  0.6508444  3
    647    645    648    657     1  0.0000000  0.6508444  3
    647    645    648    649     1  0.0000000  0.6508444  3
    647    645    648    650     1  0.0000000  0.6508444  3
    649    648    657    666     1  0.0000000  1.0460000  1
    649    648    657    666     1  0.0000000  0.0000000  3
    649    648    657    658     1  0.0000000  0.6508444  3
    649    648    657    659     1  0.0000000  0.6508444  3
    650    648    657    666     1  0.0000000  1.0460000  1
    650    648    657    666     1  0.0000000  0.0000000  3
    650    648    657    658     1  0.0000000  0.6508444  3
    650    648    657    659     1  0.0000000  0.6508444  3
    652    651    663   1391     1  0.0000000  1.0460000  1
    652    651    663   1391     1  0.0000000  0.0000000  3
    652    651    663    664     1  0.0000000  0.6508444  3
    652    651    663    665     1  0.0000000  0.6508444  3
    653    651    663   1391     1  0.0000000  1.0460000  1
    653    651    663   1391     1  0.0000000  0.0000000  3
    653    651    663    664     1  0.0000000  0.6508444  3
    653    651    663    665     1  0.0000000  0.6508444  3
    655    654    660   1362     1  0.0000000  1.0460000  1
    655    654    660   1362     1  0.0000000  0.0000000  3
    655    654    660    661     1  0.0000000  0.6508444  3
    655    654    660    662     1  0.0000000  0.6508444  3
    656    654    660   1362     1  0.0000000  1.0460000  1
    656    654    660   1362     1  0.0000000  0.0000000  3
    656    654    660    661     1  0.0000000  0.6508444  3
    656    654    660    662     1  0.0000000  0.6508444  3
    660   1362   1353   1354     1  0.0000000  1.6038667  3
    660   1362   1353   1355     1  0.0000000  1.6038667  3
    661    660   1362   1353     1  0.0000000  1.6038667  3
    662    660   1362   1353     1  0.0000000  1.6038667  3
    663   1391   1382   1383     1  0.0000000  1.6038667  3
    663   1391   1382   1384     1  0.0000000  1.6038667  3
    664    663   1391   1382     1  0.0000000  1.6038667  3
    665    663   1391   1382     1  0.0000000  1.6038667  3
    667    668    680    681     1  0.0000000  0.6508444  3
    667    668    680    682     1  0.0000000  0.6508444  3
    667    671    683    684     1  0.0000000  0.6508444  3
    667    671    683    685     1  0.0000000  0.6508444  3
    667    674    677    678     1  0.0000000  0.6508444  3
    667    674    677    679     1  0.0000000  0.6508444  3
    668    667    671    672     1  0.0000000  1.2552000  3
    668    667    671    673     1  0.0000000  1.2552000  3
    668    667    674    675     1  0.0000000  1.2552000  3
    668    667    674    676     1  0.0000000  1.2552000  3
    668    680    692    693     1  0.0000000  0.6508444  3
    668    680    692    694     1  0.0000000  0.6508444  3
    669    668    667    671     1  0.0000000  1.2552000  3
    669    668    667    674     1  0.0000000  1.2552000  3
    669    668    680    692     1  0.0000000  0.6508444  3
    669    668    680    681     1  0.0000000  0.6508444  3
    669    668    680    682     1  0.0000000  0.6508444  3
    670    668    667    671     1  0.0000000  1.2552000  3
    670    668    667    674     1  0.0000000  1.2552000  3
    670    668    680    692     1  0.0000000  0.6508444  3
    670    668    680    681     1  0.0000000  0.6508444  3
    670    668    680    682     1  0.0000000  0.6508444  3
    671    667    674    675     1  0.0000000  1.2552000  3
    671    667    674    676     1  0.0000000  1.2552000  3
    671    683    689    690     1  0.0000000  0.6508444  3
    671    683    689    691     1  0.0000000  0.6508444  3
    672    671    667    674     1  0.0000000  1.2552000  3
    672    671    683    689     1  0.0000000  0.6508444  3
    672    671    683    684     1  0.0000000  0.6508444  3
    672    671    683    685     1  0.0000000  0.6508444  3
    673    671    667    674     1  0.0000000  1.2552000  3
    673    671    683    689     1  0.0000000  0.6508444  3
    673    671    683    684     1  0.0000000  0.6508444  3
    673    671    683    685     1  0.0000000  0.6508444  3
    674    677    686    687     1  0.0000000  0.6508444  3
    674    677    686    688     1  0.0000000  0.6508444  3
    675    674    677    686     1  0.0000000  0.6508444  3
    675    674    677    678     1  0.0000000  0.6508444  3
    675    674    677    679     1  0.0000000  0.6508444  3
    676    674    677    686     1  0.0000000  0.6508444  3
    676    674    677    678     1  0.0000000  0.6508444  3
    676    674    677    679     1  0.0000000  0.6508444  3
    678    677    686    695     1  0.0000000  1.0460000  1
    678    677    686    695     1  0.0000000  0.0000000  3
    678    677    686    687     1  0.0000000  0.6508444  3
    678    677    686    688     1  0.0000000  0.6508444  3
    679    677    686    695     1  0.0000000  1.0460000  1
    679    677    686    695     1  0.0000000  0.0000000  3
    679    677    686    687     1  0.0000000  0.6508444  3
    679    677    686    688     1  0.0000000  0.6508444  3
    681    680    692   1449     1  0.0000000  1.0460000  1
    681    680    692   1449     1  0.0000000  0.0000000  3
    681    680    692    693     1  0.0000000  0.6508444  3
    681    680    692    694     1  0.0000000  0.6508444  3
    682    680    692   1449     1  0.0000000  1.0460000  1
    682    680    692   1449     1  0.0000000  0.0000000  3
    682    680    692    693     1  0.0000000  0.6508444  3
    682    680    692    694     1  0.0000000  0.6508444  3
    684    683    689   1420     1  0.0000000  1.0460000  1
    684    683    689   1420     1  0.0000000  0.0000000  3
    684    683    689    690     1  0.0000000  0.6508444  3
    684    683    689    691     1  0.0000000  0.6508444  3
    685    683    689   1420     1  0.0000000  1.0460000  1
    685    683    689   1420     1  0.0000000  0.0000000  3
    685    683    689    690     1  0.0000000  0.6508444  3
    685    683    689    691     1  0.0000000  0.6508444  3
    689   1420   1411   1412     1  0.0000000  1.6038667  3
    689   1420   1411   1413     1  0.0000000  1.6038667  3
    690    689   1420   1411     1  0.0000000  1.6038667  3
    691    689   1420   1411     1  0.0000000  1.6038667  3
    692   1449   1440   1441     1  0.0000000  1.6038667  3
    692   1449   1440   1442     1  0.0000000  1.6038667  3
    693    692   1449   1440     1  0.0000000  1.6038667  3
    694    692   1449   1440     1  0.0000000  1.6038667  3
    696    697    709    710     1  0.0000000  0.6508444  3
    696    697    709    711     1  0.0000000  0.6508444  3
    696    700    712    713     1  0.0000000  0.6508444  3
    696    700    712    714     1  0.0000000  0.6508444  3
    696    703    706    707     1  0.0000000  0.6508444  3
    696    703    706    708     1  0.0000000  0.6508444  3
    697    696    700    701     1  0.0000000  1.2552000  3
    697    696    700    702     1  0.0000000  1.2552000  3
    697    696    703    704     1  0.0000000  1.2552000  3
    697    696    703    705     1  0.0000000  1.2552000  3
    697    709    721    722     1  0.0000000  0.6508444  3
    697    709    721    723     1  0.0000000  0.6508444  3
    698    697    696    700     1  0.0000000  1.2552000  3
    698    697    696    703     1  0.0000000  1.2552000  3
    698    697    709    721     1  0.0000000  0.6508444  3
    698    697    709    710     1  0.0000000  0.6508444  3
    698    697    709    711     1  0.0000000  0.6508444  3
    699    697    696    700     1  0.0000000  1.2552000  3
    699    697    696    703     1  0.0000000  1.2552000  3
    699    697    709    721     1  0.0000000  0.6508444  3
    699    697    709    710     1  0.0000000  0.6508444  3
    699    697    709    711     1  0.0000000  0.6508444  3
    700    696    703    704     1  0.0000000  1.2552000  3
    700    696    703    705     1  0.0000000  1.2552000  3
    700    712    718    719     1  0.0000000  0.6508444  3
    700    712    718    720     1  0.0000000  0.6508444  3
    701    700    696    703     1  0.0000000  1.2552000  3
    701    700    712    718     1  0.0000000  0.6508444  3
    701    700    712    713     1  0.0000000  0.6508444  3
    701    700    712    714     1  0.0000000  0.6508444  3
    702    700    696    703     1  0.0000000  1.2552000  3
    702    700    712    718     1  0.0000000  0.6508444  3
    702    700    712    713     1  0.0000000  0.6508444  3
    702    700    712    714     1  0.0000000  0.6508444  3
    703    706    715    716     1  0.0000000  0.6508444  3
    703    706    715    717     1  0.0000000  0.6508444  3
    704    703    706    715     1  0.0000000  0.6508444  3
    704    703    706    707     1  0.0000000  0.6508444  3
    704    703    706    708     1  0.0000000  0.6508444  3
    705    703    706    715     1  0.0000000  0.6508444  3
    705    703    706    707     1  0.0000000  0.6508444  3
    705    703    706    708     1  0.0000000  0.6508444  3
    707    706    715    724     1  0.0000000  1.0460000  1
    707    706    715    724     1  0.0000000  0.0000000  3
    707    706    715    716     1  0.0000000  0.6508444  3
    707    706    715    717     1  0.0000000  0.6508444  3
    708    706    715    724     1  0.0000000  1.0460000  1
    708    706    715    724     1  0.0000000  0.0000000  3
    708    706    715    716     1  0.0000000  0.6508444  3
    708    706    715    717     1  0.0000000  0.6508444  3
    710    709    721   1507     1  0.0000000  1.0460000  1
    710    709    721   1507     1  0.0000000  0.0000000  3
    710    709    721    722     1  0.0000000  0.6508444  3
    710    709    721    723     1  0.0000000  0.6508444  3
    711    709    721   1507     1  0.0000000  1.0460000  1
    711    709    721   1507     1  0.0000000  0.0000000  3
    711    709    721    722     1  0.0000000  0.6508444  3
    711    709    721    723     1  0.0000000  0.6508444  3
    713    712    718   1478     1  0.0000000  1.0460000  1
    713    712    718   1478     1  0.0000000  0.0000000  3
    713    712    718    719     1  0.0000000  0.6508444  3
    713    712    718    720     1  0.0000000  0.6508444  3
    714    712    718   1478     1  0.0000000  1.0460000  1
    714    712    718   1478     1  0.0000000  0.0000000  3
    714    712    718    719     1  0.0000000  0.6508444  3
    714    712    718    720     1  0.0000000  0.6508444  3
    718   1478   1469   1470     1  0.0000000  1.6038667  3
    718   1478   1469   1471     1  0.0000000  1.6038667  3
    719    718   1478   1469     1  0.0000000  1.6038667  3
    720    718   1478   1469     1  0.0000000  1.6038667  3
    721   1507   1498   1499     1  0.0000000  1.6038667  3
    721   1507   1498   1500     1  0.0000000  1.6038667  3
    722    721   1507   1498     1  0.0000000  1.6038667  3
    723    721   1507   1498     1  0.0000000  1.6038667  3
    725    726    738    739     1  0.0000000  0.6508444  3
    725    726    738    740     1  0.0000000  0.6508444  3
    725    729    741    742     1  0.0000000  0.6508444  3
    725    729    741    743     1  0.0000000  0.6508444  3
    725    732    735    736     1  0.0000000  0.6508444  3
    725    732    735    737     1  0.0000000  0.6508444  3
    726    725    729    730     1  0.0000000  1.2552000  3
    726    725    729    731     1  0.0000000  1.2552000  3
    726    725    732    733     1  0.0000000  1.2552000  3
    726    725    732    734     1  0.0000000  1.2552000  3
    726    738    750    751     1  0.0000000  0.6508444  3
    726    738    750    752     1  0.0000000  0.6508444  3
    727    726    725    729     1  0.0000000  1.2552000  3
    727    726    725    732     1  0.0000000  1.2552000  3
    727    726    738    750     1  0.0000000  0.6508444  3
    727    726    738    739     1  0.0000000  0.6508444  3
    727    726    738    740     1  0.0000000  0.6508444  3
    728    726    725    729     1  0.0000000  1.2552000  3
    728    726    725    732     1  0.0000000  1.2552000  3
    728    726    738    750     1  0.0000000  0.6508444  3
    728    726    738    739     1  0.0000000  0.6508444  3
    728    726    738    740     1  0.0000000  0.6508444  3
    729    725    732    733     1  0.0000000  1.2552000  3
    729    725    732    734     1  0.0000000  1.2552000  3
    729    741    747    748     1  0.0000000  0.6508444  3
    729    741    747    749     1  0.0000000  0.6508444  3
    730    729    725    732     1  0.0000000  1.2552000  3
    730    729    741    747     1  0.0000000  0.6508444  3
    730    729    741    742     1  0.0000000  0.6508444  3
    730    729    741    743     1  0.0000000  0.6508444  3
    731    729    725    732     1  0.0000000  1.2552000  3
    731    729    741    747     1  0.0000000  0.6508444  3
    731    729    741    742     1  0.0000000  0.6508444  3
    731    729    741    743     1  0.0000000  0.6508444  3
    732    735    744    745     1  0.0000000  0.6508444  3
    732    735    744    746     1  0.0000000  0.6508444  3
    733    732    735    744     1  0.0000000  0.6508444  3
    733    732    735    736     1  0.0000000  0.6508444  3
    733    732    735    737     1  0.0000000  0.6508444  3
    734    732    735    744     1  0.0000000  0.6508444  3
    734    732    735    736     1  0.0000000  0.6508444  3
    734    732    735    737     1  0.0000000  0.6508444  3
    736    735    744    753     1  0.0000000  1.0460000  1
    736    735    744    753     1  0.0000000  0.0000000  3
    736    735    744    745     1  0.0000000  0.6508444  3
    736    735    744    746     1  0.0000000  0.6508444  3
    737    735    744    753     1  0.0000000  1.0460000  1
    737    735    744    753     1  0.0000000  0.0000000  3
    737    735    744    745     1  0.0000000  0.6508444  3
    737    735    744    746     1  0.0000000  0.6508444  3
    739    738    750   1565     1  0.0000000  1.0460000  1
    739    738    750   1565     1  0.0000000  0.0000000  3
    739    738    750    751     1  0.0000000  0.6508444  3
    739    738    750    752     1  0.0000000  0.6508444  3
    740    738    750   1565     1  0.0000000  1.0460000  1
    740    738    750   1565     1  0.0000000  0.0000000  3
    740    738    750    751     1  0.0000000  0.6508444  3
    740    738    750    752     1  0.0000000  0.6508444  3
    742    741    747   1536     1  0.0000000  1.0460000  1
    742    741    747   1536     1  0.0000000  0.0000000  3
    742    741    747    748     1  0.0000000  0.6508444  3
    742    741    747    749     1  0.0000000  0.6508444  3
    743    741    747   1536     1  0.0000000  1.0460000  1
    743    741    747   1536     1  0.0000000  0.0000000  3
    743    741    747    748     1  0.0000000  0.6508444  3
    743    741    747    749     1  0.0000000  0.6508444  3
    747   1536   1527   1528     1  0.0000000  1.6038667  3
    747   1536   1527   1529     1  0.0000000  1.6038667  3
    748    747   1536   1527     1  0.0000000  1.6038667  3
    749    747   1536   1527     1  0.0000000  1.6038667  3
    750   1565   1556   1557     1  0.0000000  1.6038667  3
    750   1565   1556   1558     1  0.0000000  1.6038667  3
    751    750   1565   1556     1  0.0000000  1.6038667  3
    752    750   1565   1556     1  0.0000000  1.6038667  3
    754    755    767    768     1  0.0000000  0.6508444  3
    754    755    767    769     1  0.0000000  0.6508444  3
    754    758    770    771     1  0.0000000  0.6508444  3
    754    758    770    772     1  0.0000000  0.6508444  3
    754    761    764    765     1  0.0000000  0.6508444  3
    754    761    764    766     1  0.0000000  0.6508444  3
    755    754    758    759     1  0.0000000  1.2552000  3
    755    754    758    760     1  0.0000000  1.2552000  3
    755    754    761    762     1  0.0000000  1.2552000  3
    755    754    761    763     1  0.0000000  1.2552000  3
    755    767    779    780     1  0.0000000  0.6508444  3
    755    767    779    781     1  0.0000000  0.6508444  3
    756    755    754    758     1  0.0000000  1.2552000  3
    756    755    754    761     1  0.0000000  1.2552000  3
    756    755    767    779     1  0.0000000  0.6508444  3
    756    755    767    768     1  0.0000000  0.6508444  3
    756    755    767    769     1  0.0000000  0.6508444  3
    757    755    754    758     1  0.0000000  1.2552000  3
    757    755    754    761     1  0.0000000  1.2552000  3
    757    755    767    779     1  0.0000000  0.6508444  3
    757    755    767    768     1  0.0000000  0.6508444  3
    757    755    767    769     1  0.0000000  0.6508444  3
    758    754    761    762     1  0.0000000  1.2552000  3
    758    754    761    763     1  0.0000000  1.2552000  3
    758    770    776    777     1  0.0000000  0.6508444  3
    758    770    776    778     1  0.0000000  0.6508444  3
    759    758    754    761     1  0.0000000  1.2552000  3
    759    758    770    776     1  0.0000000  0.6508444  3
    759    758    770    771     1  0.0000000  0.6508444  3
    759    758    770    772     1  0.0000000  0.6508444  3
    760    758    754    761     1  0.0000000  1.2552000  3
    760    758    770    776     1  0.0000000  0.6508444  3
    760    758    770    771     1  0.0000000  0.6508444  3
    760    758    770    772     1  0.0000000  0.6508444  3
    761    764    773    774     1  0.0000000  0.6508444  3
    761    764    773    775     1  0.0000000  0.6508444  3
    762    761    764    773     1  0.0000000  0.6508444  3
    762    761    764    765     1  0.0000000  0.6508444  3
    762    761    764    766     1  0.0000000  0.6508444  3
    763    761    764    773     1  0.0000000  0.6508444  3
    763    761    764    765     1  0.0000000  0.6508444  3
    763    761    764    766     1  0.0000000  0.6508444  3
    765    764    773    782     1  0.0000000  1.0460000  1
    765    764    773    782     1  0.0000000  0.0000000  3
    765    764    773    774     1  0.0000000  0.6508444  3
    765    764    773    775     1  0.0000000  0.6508444  3
    766    764    773    782     1  0.0000000  1.0460000  1
    766    764    773    782     1  0.0000000  0.0000000  3
    766    764    773    774     1  0.0000000  0.6508444  3
    766    764    773    775     1  0.0000000  0.6508444  3
    768    767    779   1623     1  0.0000000  1.0460000  1
    768    767    779   1623     1  0.0000000  0.0000000  3
    768    767    779    780     1  0.0000000  0.6508444  3
    768    767    779    781     1  0.0000000  0.6508444  3
    769    767    779   1623     1  0.0000000  1.0460000  1
    769    767    779   1623     1  0.0000000  0.0000000  3
    769    767    779    780     1  0.0000000  0.6508444  3
    769    767    779    781     1  0.0000000  0.6508444  3
    771    770    776   1594     1  0.0000000  1.0460000  1
    771    770    776   1594     1  0.0000000  0.0000000  3
    771    770    776    777     1  0.0000000  0.6508444  3
    771    770    776    778     1  0.0000000  0.6508444  3
    772    770    776   1594     1  0.0000000  1.0460000  1
    772    770    776   1594     1  0.0000000  0.0000000  3
    772    770    776    777     1  0.0000000  0.6508444  3
    772    770    776    778     1  0.0000000  0.6508444  3
    776   1594   1585   1586     1  0.0000000  1.6038667  3
    776   1594   1585   1587     1  0.0000000  1.6038667  3
    777    776   1594   1585     1  0.0000000  1.6038667  3
    778    776   1594   1585     1  0.0000000  1.6038667  3
    779   1623   1614   1615     1  0.0000000  1.6038667  3
    779   1623   1614   1616     1  0.0000000  1.6038667  3
    780    779   1623   1614     1  0.0000000  1.6038667  3
    781    779   1623   1614     1  0.0000000  1.6038667  3
    783    784    796    797     1  0.0000000  0.6508444  3
    783    784    796    798     1  0.0000000  0.6508444  3
    783    787    799    800     1  0.0000000  0.6508444  3
    783    787    799    801     1  0.0000000  0.6508444  3
    783    790    793    794     1  0.0000000  0.6508444  3
    783    790    793    795     1  0.0000000  0.6508444  3
    784    783    787    788     1  0.0000000  1.2552000  3
    784    783    787    789     1  0.0000000  1.2552000  3
    784    783    790    791     1  0.0000000  1.2552000  3
    784    783    790    792     1  0.0000000  1.2552000  3
    784    796    808    809     1  0.0000000  0.6508444  3
    784    796    808    810     1  0.0000000  0.6508444  3
    785    784    783    787     1  0.0000000  1.2552000  3
    785    784    783    790     1  0.0000000  1.2552000  3
    785    784    796    808     1  0.0000000  0.6508444  3
    785    784    796    797     1  0.0000000  0.6508444  3
    785    784    796    798     1  0.0000000  0.6508444  3
    786    784    783    787     1  0.0000000  1.2552000  3
    786    784    783    790     1  0.0000000  1.2552000  3
    786    784    796    808     1  0.0000000  0.6508444  3
    786    784    796    797     1  0.0000000  0.6508444  3
    786    784    796    798     1  0.0000000  0.6508444  3
    787    783    790    791     1  0.0000000  1.2552000  3
    787    783    790    792     1  0.0000000  1.2552000  3
    787    799    805    806     1  0.0000000  0.6508444  3
    787    799    805    807     1  0.0000000  0.6508444  3
    788    787    783    790     1  0.0000000  1.2552000  3
    788    787    799    805     1  0.0000000  0.6508444  3
    788    787    799    800     1  0.0000000  0.6508444  3
    788    787    799    801     1  0.0000000  0.6508444  3
    789    787    783    790     1  0.0000000  1.2552000  3
    789    787    799    805     1  0.0000000  0.6508444  3
    789    787    799    800     1  0.0000000  0.6508444  3
    789    787    799    801     1  0.0000000  0.6508444  3
    790    793    802    803     1  0.0000000  0.6508444  3
    790    793    802    804     1  0.0000000  0.6508444  3
    791    790    793    802     1  0.0000000  0.6508444  3
    791    790    793    794     1  0.0000000  0.6508444  3
    791    790    793    795     1  0.0000000  0.6508444  3
    792    790    793    802     1  0.0000000  0.6508444  3
    792    790    793    794     1  0.0000000  0.6508444  3
    792    790    793    795     1  0.0000000  0.6508444  3
    794    793    802    811     1  0.0000000  1.0460000  1
    794    793    802    811     1  0.0000000  0.0000000  3
    794    793    802    803     1  0.0000000  0.6508444  3
    794    793    802    804     1  0.0000000  0.6508444  3
    795    793    802    811     1  0.0000000  1.0460000  1
    795    793    802    811     1  0.0000000  0.0000000  3
    795    793    802    803     1  0.0000000  0.6508444  3
    795    793    802    804     1  0.0000000  0.6508444  3
    797    796    808   1681     1  0.0000000  1.0460000  1
    797    796    808   1681     1  0.0000000  0.0000000  3
    797    796    808    809     1  0.0000000  0.6508444  3
    797    796    808    810     1  0.0000000  0.6508444  3
    798    796    808   1681     1  0.0000000  1.0460000  1
    798    796    808   1681     1  0.0000000  0.0000000  3
    798    796    808    809     1  0.0000000  0.6508444  3
    798    796    808    810     1  0.0000000  0.6508444  3
    800    799    805   1652     1  0.0000000  1.0460000  1
    800    799    805   1652     1  0.0000000  0.0000000  3
    800    799    805    806     1  0.0000000  0.6508444  3
    800    799    805    807     1  0.0000000  0.6508444  3
    801    799    805   1652     1  0.0000000  1.0460000  1
    801    799    805   1652     1  0.0000000  0.0000000  3
    801    799    805    806     1  0.0000000  0.6508444  3
    801    799    805    807     1  0.0000000  0.6508444  3
    805   1652   1643   1644     1  0.0000000  1.6038667  3
    805   1652   1643   1645     1  0.0000000  1.6038667  3
    806    805   1652   1643     1  0.0000000  1.6038667  3
    807    805   1652   1643     1  0.0000000  1.6038667  3
    808   1681   1672   1673     1  0.0000000  1.6038667  3
    808   1681   1672   1674     1  0.0000000  1.6038667  3
    809    808   1681   1672     1  0.0000000  1.6038667  3
    810    808   1681   1672     1  0.0000000  1.6038667  3
    812    813    825    826     1  0.0000000  0.6508444  3
    812    813    825    827     1  0.0000000  0.6508444  3
    812    816    828    829     1  0.0000000  0.6508444  3
    812    816    828    830     1  0.0000000  0.6508444  3
    812    819    822    823     1  0.0000000  0.6508444  3
    812    819    822    824     1  0.0000000  0.6508444  3
    813    812    816    817     1  0.0000000  1.2552000  3
    813    812    816    818     1  0.0000000  1.2552000  3
    813    812    819    820     1  0.0000000  1.2552000  3
    813    812    819    821     1  0.0000000  1.2552000  3
    813    825    837    838     1  0.0000000  0.6508444  3
    813    825    837    839     1  0.0000000  0.6508444  3
    814    813    812    816     1  0.0000000  1.2552000  3
    814    813    812    819     1  0.0000000  1.2552000  3
    814    813    825    837     1  0.0000000  0.6508444  3
    814    813    825    826     1  0.0000000  0.6508444  3
    814    813    825    827     1  0.0000000  0.6508444  3
    815    813    812    816     1  0.0000000  1.2552000  3
    815    813    812    819     1  0.0000000  1.2552000  3
    815    813    825    837     1  0.0000000  0.6508444  3
    815    813    825    826     1  0.0000000  0.6508444  3
    815    813    825    827     1  0.0000000  0.6508444  3
    816    812    819    820     1  0.0000000  1.2552000  3
    816    812    819    821     1  0.0000000  1.2552000  3
    816    828    834    835     1  0.0000000  0.6508444  3
    816    828    834    836     1  0.0000000  0.6508444  3
    817    816    812    819     1  0.0000000  1.2552000  3
    817    816    828    834     1  0.0000000  0.6508444  3
    817    816    828    829     1  0.0000000  0.6508444  3
    817    816    828    830     1  0.0000000  0.6508444  3
    818    816    812    819     1  0.0000000  1.2552000  3
    818    816    828    834     1  0.0000000  0.6508444  3
    818    816    828    829     1  0.0000000  0.6508444  3
    818    816    828    830     1  0.0000000  0.6508444  3
    819    822    831    832     1  0.0000000  0.6508444  3
    819    822    831    833     1  0.0000000  0.6508444  3
    820    819    822    831     1  0.0000000  0.6508444  3
    820    819    822    823     1  0.0000000  0.6508444  3
    820    819    822    824     1  0.0000000  0.6508444  3
    821    819    822    831     1  0.0000000  0.6508444  3
    821    819    822    823     1  0.0000000  0.6508444  3
    821    819    822    824     1  0.0000000  0.6508444  3
    823    822    831    840     1  0.0000000  1.0460000  1
    823    822    831    840     1  0.0000000  0.0000000  3
    823    822    831    832     1  0.0000000  0.6508444  3
    823    822    831    833     1  0.0000000  0.6508444  3
    824    822    831    840     1  0.0000000  1.0460000  1
    824    822    831    840     1  0.0000000  0.0000000  3
    824    822    831    832     1  0.0000000  0.6508444  3
    824    822    831    833     1  0.0000000  0.6508444  3
    826    825    837   1739     1  0.0000000  1.0460000  1
    826    825    837   1739     1  0.0000000  0.0000000  3
    826    825    837    838     1  0.0000000  0.6508444  3
    826    825    837    839     1  0.0000000  0.6508444  3
    827    825    837   1739     1  0.0000000  1.0460000  1
    827    825    837   1739     1  0.0000000  0.0000000  3
    827    825    837    838     1  0.0000000  0.6508444  3
    827    825    837    839     1  0.0000000  0.6508444  3
    829    828    834   1710     1  0.0000000  1.0460000  1
    829    828    834   1710     1  0.0000000  0.0000000  3
    829    828    834    835     1  0.0000000  0.6508444  3
    829    828    834    836     1  0.0000000  0.6508444  3
    830    828    834   1710     1  0.0000000  1.0460000  1
    830    828    834   1710     1  0.0000000  0.0000000  3
    830    828    834    835     1  0.0000000  0.6508444  3
    830    828    834    836     1  0.0000000  0.6508444  3
    834   1710   1701   1702     1  0.0000000  1.6038667  3
    834   1710   1701   1703     1  0.0000000  1.6038667  3
    835    834   1710   1701     1  0.0000000  1.6038667  3
    836    834   1710   1701     1  0.0000000  1.6038667  3
    837   1739   1730   1731     1  0.0000000  1.6038667  3
    837   1739   1730   1732     1  0.0000000  1.6038667  3
    838    837   1739   1730     1  0.0000000  1.6038667  3
    839    837   1739   1730     1  0.0000000  1.6038667  3
    841    842    854    855     1  0.0000000  0.6508444  3
    841    842    854    856     1  0.0000000  0.6508444  3
    841    845    857    858     1  0.0000000  0.6508444  3
    841    845    857    859     1  0.0000000  0.6508444  3
    841    848    851    852     1  0.0000000  0.6508444  3
    841    848    851    853     1  0.0000000  0.6508444  3
    842    841    845    846     1  0.0000000  1.2552000  3
    842    841    845    847     1  0.0000000  1.2552000  3
    842    841    848    849     1  0.0000000  1.2552000  3
    842    841    848    850     1  0.0000000  1.2552000  3
    842    854    866    867     1  0.0000000  0.6508444  3
    842    854    866    868     1  0.0000000  0.6508444  3
    843    842    841    845     1  0.0000000  1.2552000  3
    843    842    841    848     1  0.0000000  1.2552000  3
    843    842    854    866     1  0.0000000  0.6508444  3
    843    842    854    855     1  0.0000000  0.6508444  3
    843    842    854    856     1  0.0000000  0.6508444  3
    844    842    841    845     1  0.0000000  1.2552000  3
    844    842    841    848     1  0.0000000  1.2552000  3
    844    842    854    866     1  0.0000000  0.6508444  3
    844    842    854    855     1  0.0000000  0.6508444  3
    844    842    854    856     1  0.0000000  0.6508444  3
    845    841    848    849     1  0.0000000  1.2552000  3
    845    841    848    850     1  0.0000000  1.2552000  3
    845    857    863    864     1  0.0000000  0.6508444  3
    845    857    863    865     1  0.0000000  0.6508444  3
    846    845    841    848     1  0.0000000  1.2552000  3
    846    845    857    863     1  0.0000000  0.6508444  3
    846    845    857    858     1  0.0000000  0.6508444  3
    846    845    857    859     1  0.0000000  0.6508444  3
    847    845    841    848     1  0.0000000  1.2552000  3
    847    845    857    863     1  0.0000000  0.6508444  3
    847    845    857    858     1  0.0000000  0.6508444  3
    847    845    857    859     1  0.0000000  0.6508444  3
    848    851    860    861     1  0.0000000  0.6508444  3
    848    851    860    862     1  0.0000000  0.6508444  3
    849    848    851    860     1  0.0000000  0.6508444  3
    849    848    851    852     1  0.0000000  0.6508444  3
    849    848    851    853     1  0.0000000  0.6508444  3
    850    848    851    860     1  0.0000000  0.6508444  3
    850    848    851    852     1  0.0000000  0.6508444  3
    850    848    851    853     1  0.0000000  0.6508444  3
    852    851    860    869     1  0.0000000  1.0460000  1
    852    851    860    869     1  0.0000000  0.0000000  3
    852    851    860    861     1  0.0000000  0.6508444  3
    852    851    860    862     1  0.0000000  0.6508444  3
    853    851    860    869     1  0.0000000  1.0460000  1
    853    851    860    869     1  0.0000000  0.0000000  3
    853    851    860    861     1  0.0000000  0.6508444  3
    853    851    860    862     1  0.0000000  0.6508444  3
    855    854    866   1797     1  0.0000000  1.0460000  1
    855    854    866   1797     1  0.0000000  0.0000000  3
    855    854    866    867     1  0.0000000  0.6508444  3
    855    854    866    868     1  0.0000000  0.6508444  3
    856    854    866   1797     1  0.0000000  1.0460000  1
    856    854    866   1797     1  0.0000000  0.0000000  3
    856    854    866    867     1  0.0000000  0.6508444  3
    856    854    866    868     1  0.0000000  0.6508444  3
    858    857    863   1768     1  0.0000000  1.0460000  1
    858    857    863   1768     1  0.0000000  0.0000000  3
    858    857    863    864     1  0.0000000  0.6508444  3
    858    857    863    865     1  0.0000000  0.6508444  3
    859    857    863   1768     1  0.0000000  1.0460000  1
    859    857    863   1768     1  0.0000000  0.0000000  3
    859    857    863    864     1  0.0000000  0.6508444  3
    859    857    863    865     1  0.0000000  0.6508444  3
    863   1768   1759   1760     1  0.0000000  1.6038667  3
    863   1768   1759   1761     1  0.0000000  1.6038667  3
    864    863   1768   1759     1  0.0000000  1.6038667  3
    865    863   1768   1759     1  0.0000000  1.6038667  3
    866   1797   1788   1789     1  0.0000000  1.6038667  3
    866   1797   1788   1790     1  0.0000000  1.6038667  3
    867    866   1797   1788     1  0.0000000  1.6038667  3
    868    866   1797   1788     1  0.0000000  1.6038667  3
    870    871    883    884     1  0.0000000  0.6508444  3
    870    871    883    885     1  0.0000000  0.6508444  3
    870    874    886    887     1  0.0000000  0.6508444  3
    870    874    886    888     1  0.0000000  0.6508444  3
    870    877    880    881     1  0.0000000  0.6508444  3
    870    877    880    882     1  0.0000000  0.6508444  3
    871    870    874    875     1  0.0000000  1.2552000  3
    871    870    874    876     1  0.0000000  1.2552000  3
    871    870    877    878     1  0.0000000  1.2552000  3
    871    870    877    879     1  0.0000000  1.2552000  3
    871    883    895    896     1  0.0000000  0.6508444  3
    871    883    895    897     1  0.0000000  0.6508444  3
    872    871    870    874     1  0.0000000  1.2552000  3
    872    871    870    877     1  0.0000000  1.2552000  3
    872    871    883    895     1  0.0000000  0.6508444  3
    872    871    883    884     1  0.0000000  0.6508444  3
    872    871    883    885     1  0.0000000  0.6508444  3
    873    871    870    874     1  0.0000000  1.2552000  3
    873    871    870    877     1  0.0000000  1.2552000  3
    873    871    883    895     1  0.0000000  0.6508444  3
    873    871    883    884     1  0.0000000  0.6508444  3
    873    871    883    885     1  0.0000000  0.6508444  3
    874    870    877    878     1  0.0000000  1.2552000  3
    874    870    877    879     1  0.0000000  1.2552000  3
    874    886    892    893     1  0.0000000  0.6508444  3
    874    886    892    894     1  0.0000000  0.6508444  3
    875    874    870    877     1  0.0000000  1.2552000  3
    875    874    886    892     1  0.0000000  0.6508444  3
    875    874    886    887     1  0.0000000  0.6508444  3
    875    874    886    888     1  0.0000000  0.6508444  3
    876    874    870    877     1  0.0000000  1.2552000  3
    876    874    886    892     1  0.0000000  0.6508444  3
    876    874    886    887     1  0.0000000  0.6508444  3
    876    874    886    888     1  0.0000000  0.6508444  3
    877    880    889    890     1  0.0000000  0.6508444  3
    877    880    889    891     1  0.0000000  0.6508444  3
    878    877    880    889     1  0.0000000  0.6508444  3
    878    877    880    881     1  0.0000000  0.6508444  3
    878    877    880    882     1  0.0000000  0.6508444  3
    879    877    880    889     1  0.0000000  0.6508444  3
    879    877    880    881     1  0.0000000  0.6508444  3
    879    877    880    882     1  0.0000000  0.6508444  3
    881    880    889    898     1  0.0000000  1.0460000  1
    881    880    889    898     1  0.0000000  0.0000000  3
    881    880    889    890     1  0.0000000  0.6508444  3
    881    880    889    891     1  0.0000000  0.6508444  3
    882    880    889    898     1  0.0000000  1.0460000  1
    882    880    889    898     1  0.0000000  0.0000000  3
    882    880    889    890     1  0.0000000  0.6508444  3
    882    880    889    891     1  0.0000000  0.6508444  3
    884    883    895   1855     1  0.0000000  1.0460000  1
    884    883    895   1855     1  0.0000000  0.0000000  3
    884    883    895    896     1  0.0000000  0.6508444  3
    884    883    895    897     1  0.0000000  0.6508444  3
    885    883    895   1855     1  0.0000000  1.0460000  1
    885    883    895   1855     1  0.0000000  0.0000000  3
    885    883    895    896     1  0.0000000  0.6508444  3
    885    883    895    897     1  0.0000000  0.6508444  3
    887    886    892   1826     1  0.0000000  1.0460000  1
    887    886    892   1826     1  0.0000000  0.0000000  3
    887    886    892    893     1  0.0000000  0.6508444  3
    887    886    892    894     1  0.0000000  0.6508444  3
    888    886    892   1826     1  0.0000000  1.0460000  1
    888    886    892   1826     1  0.0000000  0.0000000  3
    888    886    892    893     1  0.0000000  0.6508444  3
    888    886    892    894     1  0.0000000  0.6508444  3
    892   1826   1817   1818     1  0.0000000  1.6038667  3
    892   1826   1817   1819     1  0.0000000  1.6038667  3
    893    892   1826   1817     1  0.0000000  1.6038667  3
    894    892   1826   1817     1  0.0000000  1.6038667  3
    895   1855   1846   1847     1  0.0000000  1.6038667  3
    895   1855   1846   1848     1  0.0000000  1.6038667  3
    896    895   1855   1846     1  0.0000000  1.6038667  3
    897    895   1855   1846     1  0.0000000  1.6038667  3
    899    900    912    913     1  0.0000000  0.6508444  3
    899    900    912    914     1  0.0000000  0.6508444  3
    899    903    915    916     1  0.0000000  0.6508444  3
    899    903    915    917     1  0.0000000  0.6508444  3
    899    906    909    910     1  0.0000000  0.6508444  3
    899    906    909    911     1  0.0000000  0.6508444  3
    900    899    903    904     1  0.0000000  1.2552000  3
    900    899    903    905     1  0.0000000  1.2552000  3
    900    899    906    907     1  0.0000000  1.2552000  3
    900    899    906    908     1  0.0000000  1.2552000  3
    900    912    924    925     1  0.0000000  0.6508444  3
    900    912    924    926     1  0.0000000  0.6508444  3
    901    900    899    903     1  0.0000000  1.2552000  3
    901    900    899    906     1  0.0000000  1.2552000  3
    901    900    912    924     1  0.0000000  0.6508444  3
    901    900    912    913     1  0.0000000  0.6508444  3
    901    900    912    914     1  0.0000000  0.6508444  3
    902    900    899    903     1  0.0000000  1.2552000  3
    902    900    899    906     1  0.0000000  1.2552000  3
    902    900    912    924     1  0.0000000  0.6508444  3
    902    900    912    913     1  0.0000000  0.6508444  3
    902    900    912    914     1  0.0000000  0.6508444  3
    903    899    906    907     1  0.0000000  1.2552000  3
    903    899    906    908     1  0.0000000  1.2552000  3
    903    915    921    922     1  0.0000000  0.6508444  3
    903    915    921    923     1  0.0000000  0.6508444  3
    904    903    899    906     1  0.0000000  1.2552000  3
    904    903    915    921     1  0.0000000  0.6508444  3
    904    903    915    916     1  0.0000000  0.6508444  3
    904    903    915    917     1  0.0000000  0.6508444  3
    905    903    899    906     1  0.0000000  1.2552000  3
    905    903    915    921     1  0.0000000  0.6508444  3
    905    903    915    916     1  0.0000000  0.6508444  3
    905    903    915    917     1  0.0000000  0.6508444  3
    906    909    918    919     1  0.0000000  0.6508444  3
    906    909    918    920     1  0.0000000  0.6508444  3
    907    906    909    918     1  0.0000000  0.6508444  3
    907    906    909    910     1  0.0000000  0.6508444  3
    907    906    909    911     1  0.0000000  0.6508444  3
    908    906    909    918     1  0.0000000  0.6508444  3
    908    906    909    910     1  0.0000000  0.6508444  3
    908    906    909    911     1  0.0000000  0.6508444  3
    910    909    918    927     1  0.0000000  1.0460000  1
    910    909    918    927     1  0.0000000  0.0000000  3
    910    909    918    919     1  0.0000000  0.6508444  3
    910    909    918    920     1  0.0000000  0.6508444  3
    911    909    918    927     1  0.0000000  1.0460000  1
    911    909    918    927     1  0.0000000  0.0000000  3
    911    909    918    919     1  0.0000000  0.6508444  3
    911    909    918    920     1  0.0000000  0.6508444  3
    913    912    924   1913     1  0.0000000  1.0460000  1
    913    912    924   1913     1  0.0000000  0.0000000  3
    913    912    924    925     1  0.0000000  0.6508444  3
    913    912    924    926     1  0.0000000  0.6508444  3
    914    912    924   1913     1  0.0000000  1.0460000  1
    914    912    924   1913     1  0.0000000  0.0000000  3
    914    912    924    925     1  0.0000000  0.6508444  3
    914    912    924    926     1  0.0000000  0.6508444  3
    916    915    921   1884     1  0.0000000  1.0460000  1
    916    915    921   1884     1  0.0000000  0.0000000  3
    916    915    921    922     1  0.0000000  0.6508444  3
    916    915    921    923     1  0.0000000  0.6508444  3
    917    915    921   1884     1  0.0000000  1.0460000  1
    917    915    921   1884     1  0.0000000  0.0000000  3
    917    915    921    922     1  0.0000000  0.6508444  3
    917    915    921    923     1  0.0000000  0.6508444  3
    921   1884   1875   1876     1  0.0000000  1.6038667  3
    921   1884   1875   1877     1  0.0000000  1.6038667  3
    922    921   1884   1875     1  0.0000000  1.6038667  3
    923    921   1884   1875     1  0.0000000  1.6038667  3
    924   1913   1904   1905     1  0.0000000  1.6038667  3
    924   1913   1904   1906     1  0.0000000  1.6038667  3
    925    924   1913   1904     1  0.0000000  1.6038667  3
    926    924   1913   1904     1  0.0000000  1.6038667  3
    928    929    941    942     1  0.0000000  0.6508444  3
    928    929    941    943     1  0.0000000  0.6508444  3
    928    932    944    945     1  0.0000000  0.6508444  3
    928    932    944    946     1  0.0000000  0.6508444  3
    928    935    938    939     1  0.0000000  0.6508444  3
    928    935    938    940     1  0.0000000  0.6508444  3
    929    928    932    933     1  0.0000000  1.2552000  3
    929    928    932    934     1  0.0000000  1.2552000  3
    929    928    935    936     1  0.0000000  1.2552000  3
    929    928    935    937     1  0.0000000  1.2552000  3
    929    941    953    954     1  0.0000000  0.6508444  3
    929    941    953    955     1  0.0000000  0.6508444  3
    930    929    928    932     1  0.0000000  1.2552000  3
    930    929    928    935     1  0.0000000  1.2552000  3
    930    929    941    953     1  0.0000000  0.6508444  3
    930    929    941    942     1  0.0000000  0.6508444  3
    930    929    941    943     1  0.0000000  0.6508444  3
    931    929    928    932     1  0.0000000  1.2552000  3
    931    929    928    935     1  0.0000000  1.2552000  3
    931    929    941    953     1  0.0000000  0.6508444  3
    931    929    941    942     1  0.0000000  0.6508444  3
    931    929    941    943     1  0.0000000  0.6508444  3
    932    928    935    936     1  0.0000000  1.2552000  3
    932    928    935    937     1  0.0000000  1.2552000  3
    932    944    950    951     1  0.0000000  0.6508444  3
    932    944    950    952     1  0.0000000  0.6508444  3
    933    932    928    935     1  0.0000000  1.2552000  3
    933    932    944    950     1  0.0000000  0.6508444  3
    933    932    944    945     1  0.0000000  0.6508444  3
    933    932    944    946     1  0.0000000  0.6508444  3
    934    932    928    935     1  0.0000000  1.2552000  3
    934    932    944    950     1  0.0000000  0.6508444  3
    934    932    944    945     1  0.0000000  0.6508444  3
    934    932    944    946     1  0.0000000  0.6508444  3
    935    938    947    948     1  0.0000000  0.6508444  3
    935    938    947    949     1  0.0000000  0.6508444  3
    936    935    938    947     1  0.0000000  0.6508444  3
    936    935    938    939     1  0.0000000  0.6508444  3
    936    935    938    940     1  0.0000000  0.6508444  3
    937    935    938    947     1  0.0000000  0.6508444  3
    937    935    938    939     1  0.0000000  0.6508444  3
    937    935    938    940     1  0.0000000  0.6508444  3
    939    938    947    956     1  0.0000000  1.0460000  1
    939    938    947    956     1  0.0000000  0.0000000  3
    939    938    947    948     1  0.0000000  0.6508444  3
    939    938    947    949     1  0.0000000  0.6508444  3
    940    938    947    956     1  0.0000000  1.0460000  1
    940    938    947    956     1  0.0000000  0.0000000  3
    940    938    947    948     1  0.0000000  0.6508444  3
    940    938    947    949     1  0.0000000  0.6508444  3
    942    941    953   1971     1  0.0000000  1.0460000  1
    942    941    953   1971     1  0.0000000  0.0000000  3
    942    941    953    954     1  0.0000000  0.6508444  3
    942    941    953    955     1  0.0000000  0.6508444  3
    943    941    953   1971     1  0.0000000  1.0460000  1
    943    941    953   1971     1  0.0000000  0.0000000  3
    943    941    953    954     1  0.0000000  0.6508444  3
    943    941    953    955     1  0.0000000  0.6508444  3
    945    944    950   1942     1  0.0000000  1.0460000  1
    945    944    950   1942     1  0.0000000  0.0000000  3
    945    944    950    951     1  0.0000000  0.6508444  3
    945    944    950    952     1  0.0000000  0.6508444  3
    946    944    950   1942     1  0.0000000  1.0460000  1
    946    944    950   1942     1  0.0000000  0.0000000  3
    946    944    950    951     1  0.0000000  0.6508444  3
    946    944    950    952     1  0.0000000  0.6508444  3
    950   1942   1933   1934     1  0.0000000  1.6038667  3
    950   1942   1933   1935     1  0.0000000  1.6038667  3
    951    950   1942   1933     1  0.0000000  1.6038667  3
    952    950   1942   1933     1  0.0000000  1.6038667  3
    953   1971   1962   1963     1  0.0000000  1.6038667  3
    953   1971   1962   1964     1  0.0000000  1.6038667  3
    954    953   1971   1962     1  0.0000000  1.6038667  3
    955    953   1971   1962     1  0.0000000  1.6038667  3
    957    958    970    971     1  0.0000000  0.6508444  3
    957    958    970    972     1  0.0000000  0.6508444  3
    957    961    973    974     1  0.0000000  0.6508444  3
    957    961    973    975     1  0.0000000  0.6508444  3
    957    964    967    968     1  0.0000000  0.6508444  3
    957    964    967    969     1  0.0000000  0.6508444  3
    958    957    961    962     1  0.0000000  1.2552000  3
    958    957    961    963     1  0.0000000  1.2552000  3
    958    957    964    965     1  0.0000000  1.2552000  3
    958    957    964    966     1  0.0000000  1.2552000  3
    958    970    982    983     1  0.0000000  0.6508444  3
    958    970    982    984     1  0.0000000  0.6508444  3
    959    958    957    961     1  0.0000000  1.2552000  3
    959    958    957    964     1  0.0000000  1.2552000  3
    959    958    970    982     1  0.0000000  0.6508444  3
    959    958    970    971     1  0.0000000  0.6508444  3
    959    958    970    972     1  0.0000000  0.6508444  3
    960    958    957    961     1  0.0000000  1.2552000  3
    960    958    957    964     1  0.0000000  1.2552000  3
    960    958    970    982     1  0.0000000  0.6508444  3
    960    958    970    971     1  0.0000000  0.6508444  3
    960    958    970    972     1  0.0000000  0.6508444  3
    961    957    964    965     1  0.0000000  1.2552000  3
    961    957    964    966     1  0.0000000  1.2552000  3
    961    973    979    980     1  0.0000000  0.6508444  3
    961    973    979    981     1  0.0000000  0.6508444  3
    962    961    957    964     1  0.0000000  1.2552000  3
    962    961    973    979     1  0.0000000  0.6508444  3
    962    961    973    974     1  0.0000000  0.6508444  3
    962    961    973    975     1  0.0000000  0.6508444  3
    963    961    957    964     1  0.0000000  1.2552000  3
    963    961    973    979     1  0.0000000  0.6508444  3
    963    961    973    974     1  0.0000000  0.6508444  3
    963    961    973    975     1  0.0000000  0.6508444  3
    964    967    976    977     1  0.0000000  0.6508444  3
    964    967    976    978     1  0.0000000  0.6508444  3
    965    964    967    976     1  0.0000000  0.6508444  3
    965    964    967    968     1  0.0000000  0.6508444  3
    965    964    967    969     1  0.0000000  0.6508444  3
    966    964    967    976     1  0.0000000  0.6508444  3
    966    964    967    968     1  0.0000000  0.6508444  3
    966    964    967    969     1  0.0000000  0.6508444  3
    968    967    976    985     1  0.0000000  1.0460000  1
    968    967    976    985     1  0.0000000  0.0000000  3
    968    967    976    977     1  0.0000000  0.6508444  3
    968    967    976    978     1  0.0000000  0.6508444  3
    969    967    976    985     1  0.0000000  1.0460000  1
    969    967    976    985     1  0.0000000  0.0000000  3
    969    967    976    977     1  0.0000000  0.6508444  3
    969    967    976    978     1  0.0000000  0.6508444  3
    971    970    982   2029     1  0.0000000  1.0460000  1
    971    970    982   2029     1  0.0000000  0.0000000  3
    971    970    982    983     1  0.0000000  0.6508444  3
    971    970    982    984     1  0.0000000  0.6508444  3
    972    970    982   2029     1  0.0000000  1.0460000  1
    972    970    982   2029     1  0.0000000  0.0000000  3
    972    970    982    983     1  0.0000000  0.6508444  3
    972    970    982    984     1  0.0000000  0.6508444  3
    974    973    979   2000     1  0.0000000  1.0460000  1
    974    973    979   2000     1  0.0000000  0.0000000  3
    974    973    979    980     1  0.0000000  0.6508444  3
    974    973    979    981     1  0.0000000  0.6508444  3
    975    973    979   2000     1  0.0000000  1.0460000  1
    975    973    979   2000     1  0.0000000  0.0000000  3
    975    973    979    980     1  0.0000000  0.6508444  3
    975    973    979    981     1  0.0000000  0.6508444  3
    979   2000   1991   1992     1  0.0000000  1.6038667  3
    979   2000   1991   1993     1  0.0000000  1.6038667  3
    980    979   2000   1991     1  0.0000000  1.6038667  3
    981    979   2000   1991     1  0.0000000  1.6038667  3
    982   2029   2020   2021     1  0.0000000  1.6038667  3
    982   2029   2020   2022     1  0.0000000  1.6038667  3
    983    982   2029   2020     1  0.0000000  1.6038667  3
    984    982   2029   2020     1  0.0000000  1.6038667  3
    986    987    999   1000     1  0.0000000  0.6508444  3
    986    987    999   1001     1  0.0000000  0.6508444  3
    986    990   1002   1003     1  0.0000000  0.6508444  3
    986    990   1002   1004     1  0.0000000  0.6508444  3
    986    993    996    997     1  0.0000000  0.6508444  3
    986    993    996    998     1  0.0000000  0.6508444  3
    987    986    990    991     1  0.0000000  1.2552000  3
    987    986    990    992     1  0.0000000  1.2552000  3
    987    986    993    994     1  0.0000000  1.2552000  3
    987    986    993    995     1  0.0000000  1.2552000  3
    987    999   1011   1012     1  0.0000000  0.6508444  3
    987    999   1011   1013     1  0.0000000  0.6508444  3
    988    987    986    990     1  0.0000000  1.2552000  3
    988    987    986    993     1  0.0000000  1.2552000  3
    988    987    999   1011     1  0.0000000  0.6508444  3
    988    987    999   1000     1  0.0000000  0.6508444  3
    988    987    999   1001     1  0.0000000  0.6508444  3
    989    987    986    990     1  0.0000000  1.2552000  3
    989    987    986    993     1  0.0000000  1.2552000  3
    989    987    999   1011     1  0.0000000  0.6508444  3
    989    987    999   1000     1  0.0000000  0.6508444  3
    989    987    999   1001     1  0.0000000  0.6508444  3
    990    986    993    994     1  0.0000000  1.2552000  3
    990    986    993    995     1  0.0000000  1.2552000  3
    990   1002   1008   1009     1  0.0000000  0.6508444  3
    990   1002   1008   1010     1  0.0000000  0.6508444  3
    991    990    986    993     1  0.0000000  1.2552000  3
    991    990   1002   1008     1  0.0000000  0.6508444  3
    991    990   1002   1003     1  0.0000000  0.6508444  3
    991    990   1002   1004     1  0.0000000  0.6508444  3
    992    990    986    993     1  0.0000000  1.2552000  3
    992    990   1002   1008     1  0.0000000  0.6508444  3
    992    990   1002   1003     1  0.0000000  0.6508444  3
    992    990   1002   1004     1  0.0000000  0.6508444  3
    993    996   1005   1006     1  0.0000000  0.6508444  3
    993    996   1005   1007     1  0.0000000  0.6508444  3
    994    993    996   1005     1  0.0000000  0.6508444  3
    994    993    996    997     1  0.0000000  0.6508444  3
    994    993    996    998     1  0.0000000  0.6508444  3
    995    993    996   1005     1  0.0000000  0.6508444  3
    995    993    996    997     1  0.0000000  0.6508444  3
    995    993    996    998     1  0.0000000  0.6508444  3
    997    996   1005   1014     1  0.0000000  1.0460000  1
    997    996   1005   1014     1  0.0000000  0.0000000  3
    997    996   1005   1006     1  0.0000000  0.6508444  3
    997    996   1005   1007     1  0.0000000  0.6508444  3
    998    996   1005   1014     1  0.0000000  1.0460000  1
    998    996   1005   1014     1  0.0000000  0.0000000  3
    998    996   1005   1006     1  0.0000000  0.6508444  3
    998    996   1005   1007     1  0.0000000  0.6508444  3
   1000    999   1011   2087     1  0.0000000  1.0460000  1
   1000    999   1011   2087     1  0.0000000  0.0000000  3
   1000    999   1011   1012     1  0.0000000  0.6508444  3
   1000    999   1011   1013     1  0.0000000  0.6508444  3
   1001    999   1011   2087     1  0.0000000  1.0460000  1
   1001    999   1011   2087     1  0.0000000  0.0000000  3
   1001    999   1011   1012     1  0.0000000  0.6508444  3
   1001    999   1011   1013     1  0.0000000  0.6508444  3
   1003   1002   1008   2058     1  0.0000000  1.0460000  1
   1003   1002   1008   2058     1  0.0000000  0.0000000  3
   1003   1002   1008   1009     1  0.0000000  0.6508444  3
   1003   1002   1008   1010     1  0.0000000  0.6508444  3
   1004   1002   1008   2058     1  0.0000000  1.0460000  1
   1004   1002   1008   2058     1  0.0000000  0.0000000  3
   1004   1002   1008   1009     1  0.0000000  0.6508444  3
   1004   1002   1008   1010     1  0.0000000  0.6508444  3
   1008   2058   2049   2050     1  0.0000000  1.6038667  3
   1008   2058   2049   2051     1  0.0000000  1.6038667  3
   1009   1008   2058   2049     1  0.0000000  1.6038667  3
   1010   1008   2058   2049     1  0.0000000  1.6038667  3
   1011   2087   2078   2079     1  0.0000000  1.6038667  3
   1011   2087   2078   2080     1  0.0000000  1.6038667  3
   1012   1011   2087   2078     1  0.0000000  1.6038667  3
   1013   1011   2087   2078     1  0.0000000  1.6038667  3
   1015   1016   1028   1029     1  0.0000000  0.6508444  3
   1015   1016   1028   1030     1  0.0000000  0.6508444  3
   1015   1019   1031   1032     1  0.0000000  0.6508444  3
   1015   1019   1031   1033     1  0.0000000  0.6508444  3
   1015   1022   1025   1026     1  0.0000000  0.6508444  3
   1015   1022   1025   1027     1  0.0000000  0.6508444  3
   1016   1015   1019   1020     1  0.0000000  1.2552000  3
   1016   1015   1019   1021     1  0.0000000  1.2552000  3
   1016   1015   1022   1023     1  0.0000000  1.2552000  3
   1016   1015   1022   1024     1  0.0000000  1.2552000  3
   1016   1028   1040   1041     1  0.0000000  0.6508444  3
   1016   1028   1040   1042     1  0.0000000  0.6508444  3
   1017   1016   1015   1019     1  0.0000000  1.2552000  3
   1017   1016   1015   1022     1  0.0000000  1.2552000  3
   1017   1016   1028   1040     1  0.0000000  0.6508444  3
   1017   1016   1028   1029     1  0.0000000  0.6508444  3
   1017   1016   1028   1030     1  0.0000000  0.6508444  3
   1018   1016   1015   1019     1  0.0000000  1.2552000  3
   1018   1016   1015   1022     1  0.0000000  1.2552000  3
   1018   1016   1028   1040     1  0.0000000  0.6508444  3
   1018   1016   1028   1029     1  0.0000000  0.6508444  3
   1018   1016   1028   1030     1  0.0000000  0.6508444  3
   1019   1015   1022   1023     1  0.0000000  1.2552000  3
   1019   1015   1022   1024     1  0.0000000  1.2552000  3
   1019   1031   1037   1038     1  0.0000000  0.6508444  3
   1019   1031   1037   1039     1  0.0000000  0.6508444  3
   1020   1019   1015   1022     1  0.0000000  1.2552000  3
   1020   1019   1031   1037     1  0.0000000  0.6508444  3
   1020   1019   1031   1032     1  0.0000000  0.6508444  3
   1020   1019   1031   1033     1  0.0000000  0.6508444  3
   1021   1019   1015   1022     1  0.0000000  1.2552000  3
   1021   1019   1031   1037     1  0.0000000  0.6508444  3
   1021   1019   1031   1032     1  0.0000000  0.6508444  3
   1021   1019   1031   1033     1  0.0000000  0.6508444  3
   1022   1025   1034   1035     1  0.0000000  0.6508444  3
   1022   1025   1034   1036     1  0.0000000  0.6508444  3
   1023   1022   1025   1034     1  0.0000000  0.6508444  3
   1023   1022   1025   1026     1  0.0000000  0.6508444  3
   1023   1022   1025   1027     1  0.0000000  0.6508444  3
   1024   1022   1025   1034     1  0.0000000  0.6508444  3
   1024   1022   1025   1026     1  0.0000000  0.6508444  3
   1024   1022   1025   1027     1  0.0000000  0.6508444  3
   1026   1025   1034   1043     1  0.0000000  1.0460000  1
   1026   1025   1034   1043     1  0.0000000  0.0000000  3
   1026   1025   1034   1035     1  0.0000000  0.6508444  3
   1026   1025   1034   1036     1  0.0000000  0.6508444  3
   1027   1025   1034   1043     1  0.0000000  1.0460000  1
   1027   1025   1034   1043     1  0.0000000  0.0000000  3
   1027   1025   1034   1035     1  0.0000000  0.6508444  3
   1027   1025   1034   1036     1  0.0000000  0.6508444  3
   1029   1028   1040   2145     1  0.0000000  1.0460000  1
   1029   1028   1040   2145     1  0.0000000  0.0000000  3
   1029   1028   1040   1041     1  0.0000000  0.6508444  3
   1029   1028   1040   1042     1  0.0000000  0.6508444  3
   1030   1028   1040   2145     1  0.0000000  1.0460000  1
   1030   1028   1040   2145     1  0.0000000  0.0000000  3
   1030   1028   1040   1041     1  0.0000000  0.6508444  3
   1030   1028   1040   1042     1  0.0000000  0.6508444  3
   1032   1031   1037   2116     1  0.0000000  1.0460000  1
   1032   1031   1037   2116     1  0.0000000  0.0000000  3
   1032   1031   1037   1038     1  0.0000000  0.6508444  3
   1032   1031   1037   1039     1  0.0000000  0.6508444  3
   1033   1031   1037   2116     1  0.0000000  1.0460000  1
   1033   1031   1037   2116     1  0.0000000  0.0000000  3
   1033   1031   1037   1038     1  0.0000000  0.6508444  3
   1033   1031   1037   1039     1  0.0000000  0.6508444  3
   1037   2116   2107   2108     1  0.0000000  1.6038667  3
   1037   2116   2107   2109     1  0.0000000  1.6038667  3
   1038   1037   2116   2107     1  0.0000000  1.6038667  3
   1039   1037   2116   2107     1  0.0000000  1.6038667  3
   1040   2145   2136   2137     1  0.0000000  1.6038667  3
   1040   2145   2136   2138     1  0.0000000  1.6038667  3
   1041   1040   2145   2136     1  0.0000000  1.6038667  3
   1042   1040   2145   2136     1  0.0000000  1.6038667  3
   1044   1045   1057   1058     1  0.0000000  0.6508444  3
   1044   1045   1057   1059     1  0.0000000  0.6508444  3
   1044   1048   1060   1061     1  0.0000000  0.6508444  3
   1044   1048   1060   1062     1  0.0000000  0.6508444  3
   1044   1051   1054   1055     1  0.0000000  0.6508444  3
   1044   1051   1054   1056     1  0.0000000  0.6508444  3
   1045   1044   1048   1049     1  0.0000000  1.2552000  3
   1045   1044   1048   1050     1  0.0000000  1.2552000  3
   1045   1044   1051   1052     1  0.0000000  1.2552000  3
   1045   1044   1051   1053     1  0.0000000  1.2552000  3
   1045   1057   1069   1070     1  0.0000000  0.6508444  3
   1045   1057   1069   1071     1  0.0000000  0.6508444  3
   1046   1045   1044   1048     1  0.0000000  1.2552000  3
   1046   1045   1044   1051     1  0.0000000  1.2552000  3
   1046   1045   1057   1069     1  0.0000000  0.6508444  3
   1046   1045   1057   1058     1  0.0000000  0.6508444  3
   1046   1045   1057   1059     1  0.0000000  0.6508444  3
   1047   1045   1044   1048     1  0.0000000  1.2552000  3
   1047   1045   1044   1051     1  0.0000000  1.2552000  3
   1047   1045   1057   1069     1  0.0000000  0.6508444  3
   1047   1045   1057   1058     1  0.0000000  0.6508444  3
   1047   1045   1057   1059     1  0.0000000  0.6508444  3
   1048   1044   1051   1052     1  0.0000000  1.2552000  3
   1048   1044   1051   1053     1  0.0000000  1.2552000  3
   1048   1060   1066   1067     1  0.0000000  0.6508444  3
   1048   1060   1066   1068     1  0.0000000  0.6508444  3
   1049   1048   1044   1051     1  0.0000000  1.2552000  3
   1049   1048   1060   1066     1  0.0000000  0.6508444  3
   1049   1048   1060   1061     1  0.0000000  0.6508444  3
   1049   1048   1060   1062     1  0.0000000  0.6508444  3
   1050   1048   1044   1051     1  0.0000000  1.2552000  3
   1050   1048   1060   1066     1  0.0000000  0.6508444  3
   1050   1048   1060   1061     1  0.0000000  0.6508444  3
   1050   1048   1060   1062     1  0.0000000  0.6508444  3
   1051   1054   1063   1064     1  0.0000000  0.6508444  3
   1051   1054   1063   1065     1  0.0000000  0.6508444  3
   1052   1051   1054   1063     1  0.0000000  0.6508444  3
   1052   1051   1054   1055     1  0.0000000  0.6508444  3
   1052   1051   1054   1056     1  0.0000000  0.6508444  3
   1053   1051   1054   1063     1  0.0000000  0.6508444  3
   1053   1051   1054   1055     1  0.0000000  0.6508444  3
   1053   1051   1054   1056     1  0.0000000  0.6508444  3
   1055   1054   1063   1072     1  0.0000000  1.0460000  1
   1055   1054   1063   1072     1  0.0000000  0.0000000  3
   1055   1054   1063   1064     1  0.0000000  0.6508444  3
   1055   1054   1063   1065     1  0.0000000  0.6508444  3
   1056   1054   1063   1072     1  0.0000000  1.0460000  1
   1056   1054   1063   1072     1  0.0000000  0.0000000  3
   1056   1054   1063   1064     1  0.0000000  0.6508444  3
   1056   1054   1063   1065     1  0.0000000  0.6508444  3
   1058   1057   1069   2203     1  0.0000000  1.0460000  1
   1058   1057   1069   2203     1  0.0000000  0.0000000  3
   1058   1057   1069   1070     1  0.0000000  0.6508444  3
   1058   1057   1069   1071     1  0.0000000  0.6508444  3
   1059   1057   1069   2203     1  0.0000000  1.0460000  1
   1059   1057   1069   2203     1  0.0000000  0.0000000  3
   1059   1057   1069   1070     1  0.0000000  0.6508444  3
   1059   1057   1069   1071     1  0.0000000  0.6508444  3
   1061   1060   1066   2174     1  0.0000000  1.0460000  1
   1061   1060   1066   2174     1  0.0000000  0.0000000  3
   1061   1060   1066   1067     1  0.0000000  0.6508444  3
   1061   1060   1066   1068     1  0.0000000  0.6508444  3
   1062   1060   1066   2174     1  0.0000000  1.0460000  1
   1062   1060   1066   2174     1  0.0000000  0.0000000  3
   1062   1060   1066   1067     1  0.0000000  0.6508444  3
   1062   1060   1066   1068     1  0.0000000  0.6508444  3
   1066   2174   2165   2166     1  0.0000000  1.6038667  3
   1066   2174   2165   2167     1  0.0000000  1.6038667  3
   1067   1066   2174   2165     1  0.0000000  1.6038667  3
   1068   1066   2174   2165     1  0.0000000  1.6038667  3
   1069   2203   2194   2195     1  0.0000000  1.6038667  3
   1069   2203   2194   2196     1  0.0000000  1.6038667  3
   1070   1069   2203   2194     1  0.0000000  1.6038667  3
   1071   1069   2203   2194     1  0.0000000  1.6038667  3
   1073   1074   1086   1087     1  0.0000000  0.6508444  3
   1073   1074   1086   1088     1  0.0000000  0.6508444  3
   1073   1077   1089   1090     1  0.0000000  0.6508444  3
   1073   1077   1089   1091     1  0.0000000  0.6508444  3
   1073   1080   1083   1084     1  0.0000000  0.6508444  3
   1073   1080   1083   1085     1  0.0000000  0.6508444  3
   1074   1073   1077   1078     1  0.0000000  1.2552000  3
   1074   1073   1077   1079     1  0.0000000  1.2552000  3
   1074   1073   1080   1081     1  0.0000000  1.2552000  3
   1074   1073   1080   1082     1  0.0000000  1.2552000  3
   1074   1086   1098   1099     1  0.0000000  0.6508444  3
   1074   1086   1098   1100     1  0.0000000  0.6508444  3
   1075   1074   1073   1077     1  0.0000000  1.2552000  3
   1075   1074   1073   1080     1  0.0000000  1.2552000  3
   1075   1074   1086   1098     1  0.0000000  0.6508444  3
   1075   1074   1086   1087     1  0.0000000  0.6508444  3
   1075   1074   1086   1088     1  0.0000000  0.6508444  3
   1076   1074   1073   1077     1  0.0000000  1.2552000  3
   1076   1074   1073   1080     1  0.0000000  1.2552000  3
   1076   1074   1086   1098     1  0.0000000  0.6508444  3
   1076   1074   1086   1087     1  0.0000000  0.6508444  3
   1076   1074   1086   1088     1  0.0000000  0.6508444  3
   1077   1073   1080   1081     1  0.0000000  1.2552000  3
   1077   1073   1080   1082     1  0.0000000  1.2552000  3
   1077   1089   1095   1096     1  0.0000000  0.6508444  3
   1077   1089   1095   1097     1  0.0000000  0.6508444  3
   1078   1077   1073   1080     1  0.0000000  1.2552000  3
   1078   1077   1089   1095     1  0.0000000  0.6508444  3
   1078   1077   1089   1090     1  0.0000000  0.6508444  3
   1078   1077   1089   1091     1  0.0000000  0.6508444  3
   1079   1077   1073   1080     1  0.0000000  1.2552000  3
   1079   1077   1089   1095     1  0.0000000  0.6508444  3
   1079   1077   1089   1090     1  0.0000000  0.6508444  3
   1079   1077   1089   1091     1  0.0000000  0.6508444  3
   1080   1083   1092   1093     1  0.0000000  0.6508444  3
   1080   1083   1092   1094     1  0.0000000  0.6508444  3
   1081   1080   1083   1092     1  0.0000000  0.6508444  3
   1081   1080   1083   1084     1  0.0000000  0.6508444  3
   1081   1080   1083   1085     1  0.0000000  0.6508444  3
   1082   1080   1083   1092     1  0.0000000  0.6508444  3
   1082   1080   1083   1084     1  0.0000000  0.6508444  3
   1082   1080   1083   1085     1  0.0000000  0.6508444  3
   1084   1083   1092   1101     1  0.0000000  1.0460000  1
   1084   1083   1092   1101     1  0.0000000  0.0000000  3
   1084   1083   1092   1093     1  0.0000000  0.6508444  3
   1084   1083   1092   1094     1  0.0000000  0.6508444  3
   1085   1083   1092   1101     1  0.0000000  1.0460000  1
   1085   1083   1092   1101     1  0.0000000  0.0000000  3
   1085   1083   1092   1093     1  0.0000000  0.6508444  3
   1085   1083   1092   1094     1  0.0000000  0.6508444  3
   1087   1086   1098   2261     1  0.0000000  1.0460000  1
   1087   1086   1098   2261     1  0.0000000  0.0000000  3
   1087   1086   1098   1099     1  0.0000000  0.6508444  3
   1087   1086   1098   1100     1  0.0000000  0.6508444  3
   1088   1086   1098   2261     1  0.0000000  1.0460000  1
   1088   1086   1098   2261     1  0.0000000  0.0000000  3
   1088   1086   1098   1099     1  0.0000000  0.6508444  3
   1088   1086   1098   1100     1  0.0000000  0.6508444  3
   1090   1089   1095   2232     1  0.0000000  1.0460000  1
   1090   1089   1095   2232     1  0.0000000  0.0000000  3
   1090   1089   1095   1096     1  0.0000000  0.6508444  3
   1090   1089   1095   1097     1  0.0000000  0.6508444  3
   1091   1089   1095   2232     1  0.0000000  1.0460000  1
   1091   1089   1095   2232     1  0.0000000  0.0000000  3
   1091   1089   1095   1096     1  0.0000000  0.6508444  3
   1091   1089   1095   1097     1  0.0000000  0.6508444  3
   1095   2232   2223   2224     1  0.0000000  1.6038667  3
   1095   2232   2223   2225     1  0.0000000  1.6038667  3
   1096   1095   2232   2223     1  0.0000000  1.6038667  3
   1097   1095   2232   2223     1  0.0000000  1.6038667  3
   1098   2261   2252   2253     1  0.0000000  1.6038667  3
   1098   2261   2252   2254     1  0.0000000  1.6038667  3
   1099   1098   2261   2252     1  0.0000000  1.6038667  3
   1100   1098   2261   2252     1  0.0000000  1.6038667  3
   1102   1103   1115   1116     1  0.0000000  0.6508444  3
   1102   1103   1115   1117     1  0.0000000  0.6508444  3
   1102   1106   1118   1119     1  0.0000000  0.6508444  3
   1102   1106   1118   1120     1  0.0000000  0.6508444  3
   1102   1109   1112   1113     1  0.0000000  0.6508444  3
   1102   1109   1112   1114     1  0.0000000  0.6508444  3
   1103   1102   1106   1107     1  0.0000000  1.2552000  3
   1103   1102   1106   1108     1  0.0000000  1.2552000  3
   1103   1102   1109   1110     1  0.0000000  1.2552000  3
   1103   1102   1109   1111     1  0.0000000  1.2552000  3
   1103   1115   1127   1128     1  0.0000000  0.6508444  3
   1103   1115   1127   1129     1  0.0000000  0.6508444  3
   1104   1103   1102   1106     1  0.0000000  1.2552000  3
   1104   1103   1102   1109     1  0.0000000  1.2552000  3
   1104   1103   1115   1127     1  0.0000000  0.6508444  3
   1104   1103   1115   1116     1  0.0000000  0.6508444  3
   1104   1103   1115   1117     1  0.0000000  0.6508444  3
   1105   1103   1102   1106     1  0.0000000  1.2552000  3
   1105   1103   1102   1109     1  0.0000000  1.2552000  3
   1105   1103   1115   1127     1  0.0000000  0.6508444  3
   1105   1103   1115   1116     1  0.0000000  0.6508444  3
   1105   1103   1115   1117     1  0.0000000  0.6508444  3
   1106   1102   1109   1110     1  0.0000000  1.2552000  3
   1106   1102   1109   1111     1  0.0000000  1.2552000  3
   1106   1118   1124   1125     1  0.0000000  0.6508444  3
   1106   1118   1124   1126     1  0.0000000  0.6508444  3
   1107   1106   1102   1109     1  0.0000000  1.2552000  3
   1107   1106   1118   1124     1  0.0000000  0.6508444  3
   1107   1106   1118   1119     1  0.0000000  0.6508444  3
   1107   1106   1118   1120     1  0.0000000  0.6508444  3
   1108   1106   1102   1109     1  0.0000000  1.2552000  3
   1108   1106   1118   1124     1  0.0000000  0.6508444  3
   1108   1106   1118   1119     1  0.0000000  0.6508444  3
   1108   1106   1118   1120     1  0.0000000  0.6508444  3
   1109   1112   1121   1122     1  0.0000000  0.6508444  3
   1109   1112   1121   1123     1  0.0000000  0.6508444  3
   1110   1109   1112   1121     1  0.0000000  0.6508444  3
   1110   1109   1112   1113     1  0.0000000  0.6508444  3
   1110   1109   1112   1114     1  0.0000000  0.6508444  3
   1111   1109   1112   1121     1  0.0000000  0.6508444  3
   1111   1109   1112   1113     1  0.0000000  0.6508444  3
   1111   1109   1112   1114     1  0.0000000  0.6508444  3
   1113   1112   1121   1130     1  0.0000000  1.0460000  1
   1113   1112   1121   1130     1  0.0000000  0.0000000  3
   1113   1112   1121   1122     1  0.0000000  0.6508444  3
   1113   1112   1121   1123     1  0.0000000  0.6508444  3
   1114   1112   1121   1130     1  0.0000000  1.0460000  1
   1114   1112   1121   1130     1  0.0000000  0.0000000  3
   1114   1112   1121   1122     1  0.0000000  0.6508444  3
   1114   1112   1121   1123     1  0.0000000  0.6508444  3
   1116   1115   1127   2319     1  0.0000000  1.0460000  1
   1116   1115   1127   2319     1  0.0000000  0.0000000  3
   1116   1115   1127   1128     1  0.0000000  0.6508444  3
   1116   1115   1127   1129     1  0.0000000  0.6508444  3
   1117   1115   1127   2319     1  0.0000000  1.0460000  1
   1117   1115   1127   2319     1  0.0000000  0.0000000  3
   1117   1115   1127   1128     1  0.0000000  0.6508444  3
   1117   1115   1127   1129     1  0.0000000  0.6508444  3
   1119   1118   1124   2290     1  0.0000000  1.0460000  1
   1119   1118   1124   2290     1  0.0000000  0.0000000  3
   1119   1118   1124   1125     1  0.0000000  0.6508444  3
   1119   1118   1124   1126     1  0.0000000  0.6508444  3
   1120   1118   1124   2290     1  0.0000000  1.0460000  1
   1120   1118   1124   2290     1  0.0000000  0.0000000  3
   1120   1118   1124   1125     1  0.0000000  0.6508444  3
   1120   1118   1124   1126     1  0.0000000  0.6508444  3
   1124   2290   2281   2282     1  0.0000000  1.6038667  3
   1124   2290   2281   2283     1  0.0000000  1.6038667  3
   1125   1124   2290   2281     1  0.0000000  1.6038667  3
   1126   1124   2290   2281     1  0.0000000  1.6038667  3
   1127   2319   2310   2311     1  0.0000000  1.6038667  3
   1127   2319   2310   2312     1  0.0000000  1.6038667  3
   1128   1127   2319   2310     1  0.0000000  1.6038667  3
   1129   1127   2319   2310     1  0.0000000  1.6038667  3
   1131   1132   1144   1145     1  0.0000000  0.6508444  3
   1131   1132   1144   1146     1  0.0000000  0.6508444  3
   1131   1135   1147   1148     1  0.0000000  0.6508444  3
   1131   1135   1147   1149     1  0.0000000  0.6508444  3
   1131   1138   1141   1142     1  0.0000000  0.6508444  3
   1131   1138   1141   1143     1  0.0000000  0.6508444  3
   1132   1131   1135   1136     1  0.0000000  1.2552000  3
   1132   1131   1135   1137     1  0.0000000  1.2552000  3
   1132   1131   1138   1139     1  0.0000000  1.2552000  3
   1132   1131   1138   1140     1  0.0000000  1.2552000  3
   1132   1144   1156   1157     1  0.0000000  0.6508444  3
   1132   1144   1156   1158     1  0.0000000  0.6508444  3
   1133   1132   1131   1135     1  0.0000000  1.2552000  3
   1133   1132   1131   1138     1  0.0000000  1.2552000  3
   1133   1132   1144   1156     1  0.0000000  0.6508444  3
   1133   1132   1144   1145     1  0.0000000  0.6508444  3
   1133   1132   1144   1146     1  0.0000000  0.6508444  3
   1134   1132   1131   1135     1  0.0000000  1.2552000  3
   1134   1132   1131   1138     1  0.0000000  1.2552000  3
   1134   1132   1144   1156     1  0.0000000  0.6508444  3
   1134   1132   1144   1145     1  0.0000000  0.6508444  3
   1134   1132   1144   1146     1  0.0000000  0.6508444  3
   1135   1131   1138   1139     1  0.0000000  1.2552000  3
   1135   1131   1138   1140     1  0.0000000  1.2552000  3
   1135   1147   1153   1154     1  0.0000000  0.6508444  3
   1135   1147   1153   1155     1  0.0000000  0.6508444  3
   1136   1135   1131   1138     1  0.0000000  1.2552000  3
   1136   1135   1147   1153     1  0.0000000  0.6508444  3
   1136   1135   1147   1148     1  0.0000000  0.6508444  3
   1136   1135   1147   1149     1  0.0000000  0.6508444  3
   1137   1135   1131   1138     1  0.0000000  1.2552000  3
   1137   1135   1147   1153     1  0.0000000  0.6508444  3
   1137   1135   1147   1148     1  0.0000000  0.6508444  3
   1137   1135   1147   1149     1  0.0000000  0.6508444  3
   1138   1141   1150   1151     1  0.0000000  0.6508444  3
   1138   1141   1150   1152     1  0.0000000  0.6508444  3
   1139   1138   1141   1150     1  0.0000000  0.6508444  3
   1139   1138   1141   1142     1  0.0000000  0.6508444  3
   1139   1138   1141   1143     1  0.0000000  0.6508444  3
   1140   1138   1141   1150     1  0.0000000  0.6508444  3
   1140   1138   1141   1142     1  0.0000000  0.6508444  3
   1140   1138   1141   1143     1  0.0000000  0.6508444  3
   1142   1141   1150   1159     1  0.0000000  1.0460000  1
   1142   1141   1150   1159     1  0.0000000  0.0000000  3
   1142   1141   1150   1151     1  0.0000000  0.6508444  3
   1142   1141   1150   1152     1  0.0000000  0.6508444  3
   1143   1141   1150   1159     1  0.0000000  1.0460000  1
   1143   1141   1150   1159     1  0.0000000  0.0000000  3
   1143   1141   1150   1151     1  0.0000000  0.6508444  3
   1143   1141   1150   1152     1  0.0000000  0.6508444  3
   1145   1144   1156   2377     1  0.0000000  1.0460000  1
   1145   1144   1156   2377     1  0.0000000  0.0000000  3
   1145   1144   1156   1157     1  0.0000000  0.6508444  3
   1145   1144   1156   1158     1  0.0000000  0.6508444  3
   1146   1144   1156   2377     1  0.0000000  1.0460000  1
   1146   1144   1156   2377     1  0.0000000  0.0000000  3
   1146   1144   1156   1157     1  0.0000000  0.6508444  3
   1146   1144   1156   1158     1  0.0000000  0.6508444  3
   1148   1147   1153   2348     1  0.0000000  1.0460000  1
   1148   1147   1153   2348     1  0.0000000  0.0000000  3
   1148   1147   1153   1154     1  0.0000000  0.6508444  3
   1148   1147   1153   1155     1  0.0000000  0.6508444  3
   1149   1147   1153   2348     1  0.0000000  1.0460000  1
   1149   1147   1153   2348     1  0.0000000  0.0000000  3
   1149   1147   1153   1154     1  0.0000000  0.6508444  3
   1149   1147   1153   1155     1  0.0000000  0.6508444  3
   1153   2348   2339   2340     1  0.0000000  1.6038667  3
   1153   2348   2339   2341     1  0.0000000  1.6038667  3
   1154   1153   2348   2339     1  0.0000000  1.6038667  3
   1155   1153   2348   2339     1  0.0000000  1.6038667  3
   1156   2377   2368   2369     1  0.0000000  1.6038667  3
   1156   2377   2368   2370     1  0.0000000  1.6038667  3
   1157   1156   2377   2368     1  0.0000000  1.6038667  3
   1158   1156   2377   2368     1  0.0000000  1.6038667  3
   1160   1161   1173   1174     1  0.0000000  0.6508444  3
   1160   1161   1173   1175     1  0.0000000  0.6508444  3
   1160   1164   1176   1177     1  0.0000000  0.6508444  3
   1160   1164   1176   1178     1  0.0000000  0.6508444  3
   1160   1167   1170   1171     1  0.0000000  0.6508444  3
   1160   1167   1170   1172     1  0.0000000  0.6508444  3
   1161   1160   1164   1165     1  0.0000000  1.2552000  3
   1161   1160   1164   1166     1  0.0000000  1.2552000  3
   1161   1160   1167   1168     1  0.0000000  1.2552000  3
   1161   1160   1167   1169     1  0.0000000  1.2552000  3
   1161   1173   1185   1186     1  0.0000000  0.6508444  3
   1161   1173   1185   1187     1  0.0000000  0.6508444  3
   1162   1161   1160   1164     1  0.0000000  1.2552000  3
   1162   1161   1160   1167     1  0.0000000  1.2552000  3
   1162   1161   1173   1185     1  0.0000000  0.6508444  3
   1162   1161   1173   1174     1  0.0000000  0.6508444  3
   1162   1161   1173   1175     1  0.0000000  0.6508444  3
   1163   1161   1160   1164     1  0.0000000  1.2552000  3
   1163   1161   1160   1167     1  0.0000000  1.2552000  3
   1163   1161   1173   1185     1  0.0000000  0.6508444  3
   1163   1161   1173   1174     1  0.0000000  0.6508444  3
   1163   1161   1173   1175     1  0.0000000  0.6508444  3
   1164   1160   1167   1168     1  0.0000000  1.2552000  3
   1164   1160   1167   1169     1  0.0000000  1.2552000  3
   1164   1176   1182   1183     1  0.0000000  0.6508444  3
   1164   1176   1182   1184     1  0.0000000  0.6508444  3
   1165   1164   1160   1167     1  0.0000000  1.2552000  3
   1165   1164   1176   1182     1  0.0000000  0.6508444  3
   1165   1164   1176   1177     1  0.0000000  0.6508444  3
   1165   1164   1176   1178     1  0.0000000  0.6508444  3
   1166   1164   1160   1167     1  0.0000000  1.2552000  3
   1166   1164   1176   1182     1  0.0000000  0.6508444  3
   1166   1164   1176   1177     1  0.0000000  0.6508444  3
   1166   1164   1176   1178     1  0.0000000  0.6508444  3
   1167   1170   1179   1180     1  0.0000000  0.6508444  3
   1167   1170   1179   1181     1  0.0000000  0.6508444  3
   1168   1167   1170   1179     1  0.0000000  0.6508444  3
   1168   1167   1170   1171     1  0.0000000  0.6508444  3
   1168   1167   1170   1172     1  0.0000000  0.6508444  3
   1169   1167   1170   1179     1  0.0000000  0.6508444  3
   1169   1167   1170   1171     1  0.0000000  0.6508444  3
   1169   1167   1170   1172     1  0.0000000  0.6508444  3
   1171   1170   1179   1188     1  0.0000000  1.0460000  1
   1171   1170   1179   1188     1  0.0000000  0.0000000  3
   1171   1170   1179   1180     1  0.0000000  0.6508444  3
   1171   1170   1179   1181     1  0.0000000  0.6508444  3
   1172   1170   1179   1188     1  0.0000000  1.0460000  1
   1172   1170   1179   1188     1  0.0000000  0.0000000  3
   1172   1170   1179   1180     1  0.0000000  0.6508444  3
   1172   1170   1179   1181     1  0.0000000  0.6508444  3
   1174   1173   1185   2435     1  0.0000000  1.0460000  1
   1174   1173   1185   2435     1  0.0000000  0.0000000  3
   1174   1173   1185   1186     1  0.0000000  0.6508444  3
   1174   1173   1185   1187     1  0.0000000  0.6508444  3
   1175   1173   1185   2435     1  0.0000000  1.0460000  1
   1175   1173   1185   2435     1  0.0000000  0.0000000  3
   1175   1173   1185   1186     1  0.0000000  0.6508444  3
   1175   1173   1185   1187     1  0.0000000  0.6508444  3
   1177   1176   1182   2406     1  0.0000000  1.0460000  1
   1177   1176   1182   2406     1  0.0000000  0.0000000  3
   1177   1176   1182   1183     1  0.0000000  0.6508444  3
   1177   1176   1182   1184     1  0.0000000  0.6508444  3
   1178   1176   1182   2406     1  0.0000000  1.0460000  1
   1178   1176   1182   2406     1  0.0000000  0.0000000  3
   1178   1176   1182   1183     1  0.0000000  0.6508444  3
   1178   1176   1182   1184     1  0.0000000  0.6508444  3
   1182   2406   2397   2398     1  0.0000000  1.6038667  3
   1182   2406   2397   2399     1  0.0000000  1.6038667  3
   1183   1182   2406   2397     1  0.0000000  1.6038667  3
   1184   1182   2406   2397     1  0.0000000  1.6038667  3
   1185   2435   2426   2427     1  0.0000000  1.6038667  3
   1185   2435   2426   2428     1  0.0000000  1.6038667  3
   1186   1185   2435   2426     1  0.0000000  1.6038667  3
   1187   1185   2435   2426     1  0.0000000  1.6038667  3
   1189   1190   1202   1203     1  0.0000000  0.6508444  3
   1189   1190   1202   1204     1  0.0000000  0.6508444  3
   1189   1193   1205   1206     1  0.0000000  0.6508444  3
   1189   1193   1205   1207     1  0.0000000  0.6508444  3
   1189   1196   1199   1200     1  0.0000000  0.6508444  3
   1189   1196   1199   1201     1  0.0000000  0.6508444  3
   1190   1189   1193   1194     1  0.0000000  1.2552000  3
   1190   1189   1193   1195     1  0.0000000  1.2552000  3
   1190   1189   1196   1197     1  0.0000000  1.2552000  3
   1190   1189   1196   1198     1  0.0000000  1.2552000  3
   1190   1202   1214   1215     1  0.0000000  0.6508444  3
   1190   1202   1214   1216     1  0.0000000  0.6508444  3
   1191   1190   1189   1193     1  0.0000000  1.2552000  3
   1191   1190   1189   1196     1  0.0000000  1.2552000  3
   1191   1190   1202   1214     1  0.0000000  0.6508444  3
   1191   1190   1202   1203     1  0.0000000  0.6508444  3
   1191   1190   1202   1204     1  0.0000000  0.6508444  3
   1192   1190   1189   1193     1  0.0000000  1.2552000  3
   1192   1190   1189   1196     1  0.0000000  1.2552000  3
   1192   1190   1202   1214     1  0.0000000  0.6508444  3
   1192   1190   1202   1203     1  0.0000000  0.6508444  3
   1192   1190   1202   1204     1  0.0000000  0.6508444  3
   1193   1189   1196   1197     1  0.0000000  1.2552000  3
   1193   1189   1196   1198     1  0.0000000  1.2552000  3
   1193   1205   1211   1212     1  0.0000000  0.6508444  3
   1193   1205   1211   1213     1  0.0000000  0.6508444  3
   1194   1193   1189   1196     1  0.0000000  1.2552000  3
   1194   1193   1205   1211     1  0.0000000  0.6508444  3
   1194   1193   1205   1206     1  0.0000000  0.6508444  3
   1194   1193   1205   1207     1  0.0000000  0.6508444  3
   1195   1193   1189   1196     1  0.0000000  1.2552000  3
   1195   1193   1205   1211     1  0.0000000  0.6508444  3
   1195   1193   1205   1206     1  0.0000000  0.6508444  3
   1195   1193   1205   1207     1  0.0000000  0.6508444  3
   1196   1199   1208   1209     1  0.0000000  0.6508444  3
   1196   1199   1208   1210     1  0.0000000  0.6508444  3
   1197   1196   1199   1208     1  0.0000000  0.6508444  3
   1197   1196   1199   1200     1  0.0000000  0.6508444  3
   1197   1196   1199   1201     1  0.0000000  0.6508444  3
   1198   1196   1199   1208     1  0.0000000  0.6508444  3
   1198   1196   1199   1200     1  0.0000000  0.6508444  3
   1198   1196   1199   1201     1  0.0000000  0.6508444  3
   1200   1199   1208   1217     1  0.0000000  1.0460000  1
   1200   1199   1208   1217     1  0.0000000  0.0000000  3
   1200   1199   1208   1209     1  0.0000000  0.6508444  3
   1200   1199   1208   1210     1  0.0000000  0.6508444  3
   1201   1199   1208   1217     1  0.0000000  1.0460000  1
   1201   1199   1208   1217     1  0.0000000  0.0000000  3
   1201   1199   1208   1209     1  0.0000000  0.6508444  3
   1201   1199   1208   1210     1  0.0000000  0.6508444  3
   1203   1202   1214   2493     1  0.0000000  1.0460000  1
   1203   1202   1214   2493     1  0.0000000  0.0000000  3
   1203   1202   1214   1215     1  0.0000000  0.6508444  3
   1203   1202   1214   1216     1  0.0000000  0.6508444  3
   1204   1202   1214   2493     1  0.0000000  1.0460000  1
   1204   1202   1214   2493     1  0.0000000  0.0000000  3
   1204   1202   1214   1215     1  0.0000000  0.6508444  3
   1204   1202   1214   1216     1  0.0000000  0.6508444  3
   1206   1205   1211   2464     1  0.0000000  1.0460000  1
   1206   1205   1211   2464     1  0.0000000  0.0000000  3
   1206   1205   1211   1212     1  0.0000000  0.6508444  3
   1206   1205   1211   1213     1  0.0000000  0.6508444  3
   1207   1205   1211   2464     1  0.0000000  1.0460000  1
   1207   1205   1211   2464     1  0.0000000  0.0000000  3
   1207   1205   1211   1212     1  0.0000000  0.6508444  3
   1207   1205   1211   1213     1  0.0000000  0.6508444  3
   1211   2464   2455   2456     1  0.0000000  1.6038667  3
   1211   2464   2455   2457     1  0.0000000  1.6038667  3
   1212   1211   2464   2455     1  0.0000000  1.6038667  3
   1213   1211   2464   2455     1  0.0000000  1.6038667  3
   1214   2493   2484   2485     1  0.0000000  1.6038667  3
   1214   2493   2484   2486     1  0.0000000  1.6038667  3
   1215   1214   2493   2484     1  0.0000000  1.6038667  3
   1216   1214   2493   2484     1  0.0000000  1.6038667  3
   1218   1219   1231   1232     1  0.0000000  0.6508444  3
   1218   1219   1231   1233     1  0.0000000  0.6508444  3
   1218   1222   1234   1235     1  0.0000000  0.6508444  3
   1218   1222   1234   1236     1  0.0000000  0.6508444  3
   1218   1225   1228   1229     1  0.0000000  0.6508444  3
   1218   1225   1228   1230     1  0.0000000  0.6508444  3
   1219   1218   1222   1223     1  0.0000000  1.2552000  3
   1219   1218   1222   1224     1  0.0000000  1.2552000  3
   1219   1218   1225   1226     1  0.0000000  1.2552000  3
   1219   1218   1225   1227     1  0.0000000  1.2552000  3
   1219   1231   1243   1244     1  0.0000000  0.6508444  3
   1219   1231   1243   1245     1  0.0000000  0.6508444  3
   1220   1219   1218   1222     1  0.0000000  1.2552000  3
   1220   1219   1218   1225     1  0.0000000  1.2552000  3
   1220   1219   1231   1243     1  0.0000000  0.6508444  3
   1220   1219   1231   1232     1  0.0000000  0.6508444  3
   1220   1219   1231   1233     1  0.0000000  0.6508444  3
   1221   1219   1218   1222     1  0.0000000  1.2552000  3
   1221   1219   1218   1225     1  0.0000000  1.2552000  3
   1221   1219   1231   1243     1  0.0000000  0.6508444  3
   1221   1219   1231   1232     1  0.0000000  0.6508444  3
   1221   1219   1231   1233     1  0.0000000  0.6508444  3
   1222   1218   1225   1226     1  0.0000000  1.2552000  3
   1222   1218   1225   1227     1  0.0000000  1.2552000  3
   1222   1234   1240   1241     1  0.0000000  0.6508444  3
   1222   1234   1240   1242     1  0.0000000  0.6508444  3
   1223   1222   1218   1225     1  0.0000000  1.2552000  3
   1223   1222   1234   1240     1  0.0000000  0.6508444  3
   1223   1222   1234   1235     1  0.0000000  0.6508444  3
   1223   1222   1234   1236     1  0.0000000  0.6508444  3
   1224   1222   1218   1225     1  0.0000000  1.2552000  3
   1224   1222   1234   1240     1  0.0000000  0.6508444  3
   1224   1222   1234   1235     1  0.0000000  0.6508444  3
   1224   1222   1234   1236     1  0.0000000  0.6508444  3
   1225   1228   1237   1238     1  0.0000000  0.6508444  3
   1225   1228   1237   1239     1  0.0000000  0.6508444  3
   1226   1225   1228   1237     1  0.0000000  0.6508444  3
   1226   1225   1228   1229     1  0.0000000  0.6508444  3
   1226   1225   1228   1230     1  0.0000000  0.6508444  3
   1227   1225   1228   1237     1  0.0000000  0.6508444  3
   1227   1225   1228   1229     1  0.0000000  0.6508444  3
   1227   1225   1228   1230     1  0.0000000  0.6508444  3
   1229   1228   1237   1246     1  0.0000000  1.0460000  1
   1229   1228   1237   1246     1  0.0000000  0.0000000  3
   1229   1228   1237   1238     1  0.0000000  0.6508444  3
   1229   1228   1237   1239     1  0.0000000  0.6508444  3
   1230   1228   1237   1246     1  0.0000000  1.0460000  1
   1230   1228   1237   1246     1  0.0000000  0.0000000  3
   1230   1228   1237   1238     1  0.0000000  0.6508444  3
   1230   1228   1237   1239     1  0.0000000  0.6508444  3
   1232   1231   1243   2551     1  0.0000000  1.0460000  1
   1232   1231   1243   2551     1  0.0000000  0.0000000  3
   1232   1231   1243   1244     1  0.0000000  0.6508444  3
   1232   1231   1243   1245     1  0.0000000  0.6508444  3
   1233   1231   1243   2551     1  0.0000000  1.0460000  1
   1233   1231   1243   2551     1  0.0000000  0.0000000  3
   1233   1231   1243   1244     1  0.0000000  0.6508444  3
   1233   1231   1243   1245     1  0.0000000  0.6508444  3
   1235   1234   1240   2522     1  0.0000000  1.0460000  1
   1235   1234   1240   2522     1  0.0000000  0.0000000  3
   1235   1234   1240   1241     1  0.0000000  0.6508444  3
   1235   1234   1240   1242     1  0.0000000  0.6508444  3
   1236   1234   1240   2522     1  0.0000000  1.0460000  1
   1236   1234   1240   2522     1  0.0000000  0.0000000  3
   1236   1234   1240   1241     1  0.0000000  0.6508444  3
   1236   1234   1240   1242     1  0.0000000  0.6508444  3
   1240   2522   2513   2514     1  0.0000000  1.6038667  3
   1240   2522   2513   2515     1  0.0000000  1.6038667  3
   1241   1240   2522   2513     1  0.0000000  1.6038667  3
   1242   1240   2522   2513     1  0.0000000  1.6038667  3
   1243   2551   2542   2543     1  0.0000000  1.6038667  3
   1243   2551   2542   2544     1  0.0000000  1.6038667  3
   1244   1243   2551   2542     1  0.0000000  1.6038667  3
   1245   1243   2551   2542     1  0.0000000  1.6038667  3
   1247   1248   1260   1261     1  0.0000000  0.6508444  3
   1247   1248   1260   1262     1  0.0000000  0.6508444  3
   1247   1251   1263   1264     1  0.0000000  0.6508444  3
   1247   1251   1263   1265     1  0.0000000  0.6508444  3
   1247   1254   1257   1258     1  0.0000000  0.6508444  3
   1247   1254   1257   1259     1  0.0000000  0.6508444  3
   1248   1247   1251   1252     1  0.0000000  1.2552000  3
   1248   1247   1251   1253     1  0.0000000  1.2552000  3
   1248   1247   1254   1255     1  0.0000000  1.2552000  3
   1248   1247   1254   1256     1  0.0000000  1.2552000  3
   1248   1260   1272   1273     1  0.0000000  0.6508444  3
   1248   1260   1272   1274     1  0.0000000  0.6508444  3
   1249   1248   1247   1251     1  0.0000000  1.2552000  3
   1249   1248   1247   1254     1  0.0000000  1.2552000  3
   1249   1248   1260   1272     1  0.0000000  0.6508444  3
   1249   1248   1260   1261     1  0.0000000  0.6508444  3
   1249   1248   1260   1262     1  0.0000000  0.6508444  3
   1250   1248   1247   1251     1  0.0000000  1.2552000  3
   1250   1248   1247   1254     1  0.0000000  1.2552000  3
   1250   1248   1260   1272     1  0.0000000  0.6508444  3
   1250   1248   1260   1261     1  0.0000000  0.6508444  3
   1250   1248   1260   1262     1  0.0000000  0.6508444  3
   1251   1247   1254   1255     1  0.0000000  1.2552000  3
   1251   1247   1254   1256     1  0.0000000  1.2552000  3
   1251   1263   1269   1270     1  0.0000000  0.6508444  3
   1251   1263   1269   1271     1  0.0000000  0.6508444  3
   1252   1251   1247   1254     1  0.0000000  1.2552000  3
   1252   1251   1263   1269     1  0.0000000  0.6508444  3
   1252   1251   1263   1264     1  0.0000000  0.6508444  3
   1252   1251   1263   1265     1  0.0000000  0.6508444  3
   1253   1251   1247   1254     1  0.0000000  1.2552000  3
   1253   1251   1263   1269     1  0.0000000  0.6508444  3
   1253   1251   1263   1264     1  0.0000000  0.6508444  3
   1253   1251   1263   1265     1  0.0000000  0.6508444  3
   1254   1257   1266   1267     1  0.0000000  0.6508444  3
   1254   1257   1266   1268     1  0.0000000  0.6508444  3
   1255   1254   1257   1266     1  0.0000000  0.6508444  3
   1255   1254   1257   1258     1  0.0000000  0.6508444  3
   1255   1254   1257   1259     1  0.0000000  0.6508444  3
   1256   1254   1257   1266     1  0.0000000  0.6508444  3
   1256   1254   1257   1258     1  0.0000000  0.6508444  3
   1256   1254   1257   1259     1  0.0000000  0.6508444  3
   1258   1257   1266   1275     1  0.0000000  1.0460000  1
   1258   1257   1266   1275     1  0.0000000  0.0000000  3
   1258   1257   1266   1267     1  0.0000000  0.6508444  3
   1258   1257   1266   1268     1  0.0000000  0.6508444  3
   1259   1257   1266   1275     1  0.0000000  1.0460000  1
   1259   1257   1266   1275     1  0.0000000  0.0000000  3
   1259   1257   1266   1267     1  0.0000000  0.6508444  3
   1259   1257   1266   1268     1  0.0000000  0.6508444  3
   1261   1260   1272   2609     1  0.0000000  1.0460000  1
   1261   1260   1272   2609     1  0.0000000  0.0000000  3
   1261   1260   1272   1273     1  0.0000000  0.6508444  3
   1261   1260   1272   1274     1  0.0000000  0.6508444  3
   1262   1260   1272   2609     1  0.0000000  1.0460000  1
   1262   1260   1272   2609     1  0.0000000  0.0000000  3
   1262   1260   1272   1273     1  0.0000000  0.6508444  3
   1262   1260   1272   1274     1  0.0000000  0.6508444  3
   1264   1263   1269   2580     1  0.0000000  1.0460000  1
   1264   1263   1269   2580     1  0.0000000  0.0000000  3
   1264   1263   1269   1270     1  0.0000000  0.6508444  3
   1264   1263   1269   1271     1  0.0000000  0.6508444  3
   1265   1263   1269   2580     1  0.0000000  1.0460000  1
   1265   1263   1269   2580     1  0.0000000  0.0000000  3
   1265   1263   1269   1270     1  0.0000000  0.6508444  3
   1265   1263   1269   1271     1  0.0000000  0.6508444  3
   1269   2580   2571   2572     1  0.0000000  1.6038667  3
   1269   2580   2571   2573     1  0.0000000  1.6038667  3
   1270   1269   2580   2571     1  0.0000000  1.6038667  3
   1271   1269   2580   2571     1  0.0000000  1.6038667  3
   1272   2609   2600   2601     1  0.0000000  1.6038667  3
   1272   2609   2600   2602     1  0.0000000  1.6038667  3
   1273   1272   2609   2600     1  0.0000000  1.6038667  3
   1274   1272   2609   2600     1  0.0000000  1.6038667  3
   1276   1277   1289   1290     1  0.0000000  0.6508444  3
   1276   1277   1289   1291     1  0.0000000  0.6508444  3
   1276   1280   1292   1293     1  0.0000000  0.6508444  3
   1276   1280   1292   1294     1  0.0000000  0.6508444  3
   1276   1283   1286   1287     1  0.0000000  0.6508444  3
   1276   1283   1286   1288     1  0.0000000  0.6508444  3
   1277   1276   1280   1281     1  0.0000000  1.2552000  3
   1277   1276   1280   1282     1  0.0000000  1.2552000  3
   1277   1276   1283   1284     1  0.0000000  1.2552000  3
   1277   1276   1283   1285     1  0.0000000  1.2552000  3
   1277   1289   1301   1302     1  0.0000000  0.6508444  3
   1277   1289   1301   1303     1  0.0000000  0.6508444  3
   1278   1277   1276   1280     1  0.0000000  1.2552000  3
   1278   1277   1276   1283     1  0.0000000  1.2552000  3
   1278   1277   1289   1301     1  0.0000000  0.6508444  3
   1278   1277   1289   1290     1  0.0000000  0.6508444  3
   1278   1277   1289   1291     1  0.0000000  0.6508444  3
   1279   1277   1276   1280     1  0.0000000  1.2552000  3
   1279   1277   1276   1283     1  0.0000000  1.2552000  3
   1279   1277   1289   1301     1  0.0000000  0.6508444  3
   1279   1277   1289   1290     1  0.0000000  0.6508444  3
   1279   1277   1289   1291     1  0.0000000  0.6508444  3
   1280   1276   1283   1284     1  0.0000000  1.2552000  3
   1280   1276   1283   1285     1  0.0000000  1.2552000  3
   1280   1292   1298   1299     1  0.0000000  0.6508444  3
   1280   1292   1298   1300     1  0.0000000  0.6508444  3
   1281   1280   1276   1283     1  0.0000000  1.2552000  3
   1281   1280   1292   1298     1  0.0000000  0.6508444  3
   1281   1280   1292   1293     1  0.0000000  0.6508444  3
   1281   1280   1292   1294     1  0.0000000  0.6508444  3
   1282   1280   1276   1283     1  0.0000000  1.2552000  3
   1282   1280   1292   1298     1  0.0000000  0.6508444  3
   1282   1280   1292   1293     1  0.0000000  0.6508444  3
   1282   1280   1292   1294     1  0.0000000  0.6508444  3
   1283   1286   1295   1296     1  0.0000000  0.6508444  3
   1283   1286   1295   1297     1  0.0000000  0.6508444  3
   1284   1283   1286   1295     1  0.0000000  0.6508444  3
   1284   1283   1286   1287     1  0.0000000  0.6508444  3
   1284   1283   1286   1288     1  0.0000000  0.6508444  3
   1285   1283   1286   1295     1  0.0000000  0.6508444  3
   1285   1283   1286   1287     1  0.0000000  0.6508444  3
   1285   1283   1286   1288     1  0.0000000  0.6508444  3
   1287   1286   1295   1304     1  0.0000000  1.0460000  1
   1287   1286   1295   1304     1  0.0000000  0.0000000  3
   1287   1286   1295   1296     1  0.0000000  0.6508444  3
   1287   1286   1295   1297     1  0.0000000  0.6508444  3
   1288   1286   1295   1304     1  0.0000000  1.0460000  1
   1288   1286   1295   1304     1  0.0000000  0.0000000  3
   1288   1286   1295   1296     1  0.0000000  0.6508444  3
   1288   1286   1295   1297     1  0.0000000  0.6508444  3
   1290   1289   1301   2667     1  0.0000000  1.0460000  1
   1290   1289   1301   2667     1  0.0000000  0.0000000  3
   1290   1289   1301   1302     1  0.0000000  0.6508444  3
   1290   1289   1301   1303     1  0.0000000  0.6508444  3
   1291   1289   1301   2667     1  0.0000000  1.0460000  1
   1291   1289   1301   2667     1  0.0000000  0.0000000  3
   1291   1289   1301   1302     1  0.0000000  0.6508444  3
   1291   1289   1301   1303     1  0.0000000  0.6508444  3
   1293   1292   1298   2638     1  0.0000000  1.0460000  1
   1293   1292   1298   2638     1  0.0000000  0.0000000  3
   1293   1292   1298   1299     1  0.0000000  0.6508444  3
   1293   1292   1298   1300     1  0.0000000  0.6508444  3
   1294   1292   1298   2638     1  0.0000000  1.0460000  1
   1294   1292   1298   2638     1  0.0000000  0.0000000  3
   1294   1292   1298   1299     1  0.0000000  0.6508444  3
   1294   1292   1298   1300     1  0.0000000  0.6508444  3
   1298   2638   2629   2630     1  0.0000000  1.6038667  3
   1298   2638   2629   2631     1  0.0000000  1.6038667  3
   1299   1298   2638   2629     1  0.0000000  1.6038667  3
   1300   1298   2638   2629     1  0.0000000  1.6038667  3
   1301   2667   2658   2659     1  0.0000000  1.6038667  3
   1301   2667   2658   2660     1  0.0000000  1.6038667  3
   1302   1301   2667   2658     1  0.0000000  1.6038667  3
   1303   1301   2667   2658     1  0.0000000  1.6038667  3
   1305   1306   1318   1319     1  0.0000000  0.6508444  3
   1305   1306   1318   1320     1  0.0000000  0.6508444  3
   1305   1309   1321   1322     1  0.0000000  0.6508444  3
   1305   1309   1321   1323     1  0.0000000  0.6508444  3
   1305   1312   1315   1316     1  0.0000000  0.6508444  3
   1305   1312   1315   1317     1  0.0000000  0.6508444  3
   1306   1305   1309   1310     1  0.0000000  1.2552000  3
   1306   1305   1309   1311     1  0.0000000  1.2552000  3
   1306   1305   1312   1313     1  0.0000000  1.2552000  3
   1306   1305   1312   1314     1  0.0000000  1.2552000  3
   1306   1318   1330   1331     1  0.0000000  0.6508444  3
   1306   1318   1330   1332     1  0.0000000  0.6508444  3
   1307   1306   1305   1309     1  0.0000000  1.2552000  3
   1307   1306   1305   1312     1  0.0000000  1.2552000  3
   1307   1306   1318   1330     1  0.0000000  0.6508444  3
   1307   1306   1318   1319     1  0.0000000  0.6508444  3
   1307   1306   1318   1320     1  0.0000000  0.6508444  3
   1308   1306   1305   1309     1  0.0000000  1.2552000  3
   1308   1306   1305   1312     1  0.0000000  1.2552000  3
   1308   1306   1318   1330     1  0.0000000  0.6508444  3
   1308   1306   1318   1319     1  0.0000000  0.6508444  3
   1308   1306   1318   1320     1  0.0000000  0.6508444  3
   1309   1305   1312   1313     1  0.0000000  1.2552000  3
   1309   1305   1312   1314     1  0.0000000  1.2552000  3
   1309   1321   1327   1328     1  0.0000000  0.6508444  3
   1309   1321   1327   1329     1  0.0000000  0.6508444  3
   1310   1309   1305   1312     1  0.0000000  1.2552000  3
   1310   1309   1321   1327     1  0.0000000  0.6508444  3
   1310   1309   1321   1322     1  0.0000000  0.6508444  3
   1310   1309   1321   1323     1  0.0000000  0.6508444  3
   1311   1309   1305   1312     1  0.0000000  1.2552000  3
   1311   1309   1321   1327     1  0.0000000  0.6508444  3
   1311   1309   1321   1322     1  0.0000000  0.6508444  3
   1311   1309   1321   1323     1  0.0000000  0.6508444  3
   1312   1315   1324   1325     1  0.0000000  0.6508444  3
   1312   1315   1324   1326     1  0.0000000  0.6508444  3
   1313   1312   1315   1324     1  0.0000000  0.6508444  3
   1313   1312   1315   1316     1  0.0000000  0.6508444  3
   1313   1312   1315   1317     1  0.0000000  0.6508444  3
   1314   1312   1315   1324     1  0.0000000  0.6508444  3
   1314   1312   1315   1316     1  0.0000000  0.6508444  3
   1314   1312   1315   1317     1  0.0000000  0.6508444  3
   1316   1315   1324   1333     1  0.0000000  1.0460000  1
   1316   1315   1324   1333     1  0.0000000  0.0000000  3
   1316   1315   1324   1325     1  0.0000000  0.6508444  3
   1316   1315   1324   1326     1  0.0000000  0.6508444  3
   1317   1315   1324   1333     1  0.0000000  1.0460000  1
   1317   1315   1324   1333     1  0.0000000  0.0000000  3
   1317   1315   1324   1325     1  0.0000000  0.6508444  3
   1317   1315   1324   1326     1  0.0000000  0.6508444  3
   1319   1318   1330   2725     1  0.0000000  1.0460000  1
   1319   1318   1330   2725     1  0.0000000  0.0000000  3
   1319   1318   1330   1331     1  0.0000000  0.6508444  3
   1319   1318   1330   1332     1  0.0000000  0.6508444  3
   1320   1318   1330   2725     1  0.0000000  1.0460000  1
   1320   1318   1330   2725     1  0.0000000  0.0000000  3
   1320   1318   1330   1331     1  0.0000000  0.6508444  3
   1320   1318   1330   1332     1  0.0000000  0.6508444  3
   1322   1321   1327   2696     1  0.0000000  1.0460000  1
   1322   1321   1327   2696     1  0.0000000  0.0000000  3
   1322   1321   1327   1328     1  0.0000000  0.6508444  3
   1322   1321   1327   1329     1  0.0000000  0.6508444  3
   1323   1321   1327   2696     1  0.0000000  1.0460000  1
   1323   1321   1327   2696     1  0.0000000  0.0000000  3
   1323   1321   1327   1328     1  0.0000000  0.6508444  3
   1323   1321   1327   1329     1  0.0000000  0.6508444  3
   1327   2696   2687   2688     1  0.0000000  1.6038667  3
   1327   2696   2687   2689     1  0.0000000  1.6038667  3
   1328   1327   2696   2687     1  0.0000000  1.6038667  3
   1329   1327   2696   2687     1  0.0000000  1.6038667  3
   1330   2725   2716   2717     1  0.0000000  1.6038667  3
   1330   2725   2716   2718     1  0.0000000  1.6038667  3
   1331   1330   2725   2716     1  0.0000000  1.6038667  3
   1332   1330   2725   2716     1  0.0000000  1.6038667  3
   1334   1335   1347   1348     1  0.0000000  0.6508444  3
   1334   1335   1347   1349     1  0.0000000  0.6508444  3
   1334   1338   1350   1351     1  0.0000000  0.6508444  3
   1334   1338   1350   1352     1  0.0000000  0.6508444  3
   1334   1341   1344   1345     1  0.0000000  0.6508444  3
   1334   1341   1344   1346     1  0.0000000  0.6508444  3
   1335   1334   1338   1339     1  0.0000000  1.2552000  3
   1335   1334   1338   1340     1  0.0000000  1.2552000  3
   1335   1334   1341   1342     1  0.0000000  1.2552000  3
   1335   1334   1341   1343     1  0.0000000  1.2552000  3
   1335   1347   1359   1360     1  0.0000000  0.6508444  3
   1335   1347   1359   1361     1  0.0000000  0.6508444  3
   1336   1335   1334   1338     1  0.0000000  1.2552000  3
   1336   1335   1334   1341     1  0.0000000  1.2552000  3
   1336   1335   1347   1359     1  0.0000000  0.6508444  3
   1336   1335   1347   1348     1  0.0000000  0.6508444  3
   1336   1335   1347   1349     1  0.0000000  0.6508444  3
   1337   1335   1334   1338     1  0.0000000  1.2552000  3
   1337   1335   1334   1341     1  0.0000000  1.2552000  3
   1337   1335   1347   1359     1  0.0000000  0.6508444  3
   1337   1335   1347   1348     1  0.0000000  0.6508444  3
   1337   1335   1347   1349     1  0.0000000  0.6508444  3
   1338   1334   1341   1342     1  0.0000000  1.2552000  3
   1338   1334   1341   1343     1  0.0000000  1.2552000  3
   1338   1350   1356   1357     1  0.0000000  0.6508444  3
   1338   1350   1356   1358     1  0.0000000  0.6508444  3
   1339   1338   1334   1341     1  0.0000000  1.2552000  3
   1339   1338   1350   1356     1  0.0000000  0.6508444  3
   1339   1338   1350   1351     1  0.0000000  0.6508444  3
   1339   1338   1350   1352     1  0.0000000  0.6508444  3
   1340   1338   1334   1341     1  0.0000000  1.2552000  3
   1340   1338   1350   1356     1  0.0000000  0.6508444  3
   1340   1338   1350   1351     1  0.0000000  0.6508444  3
   1340   1338   1350   1352     1  0.0000000  0.6508444  3
   1341   1344   1353   1354     1  0.0000000  0.6508444  3
   1341   1344   1353   1355     1  0.0000000  0.6508444  3
   1342   1341   1344   1353     1  0.0000000  0.6508444  3
   1342   1341   1344   1345     1  0.0000000  0.6508444  3
   1342   1341   1344   1346     1  0.0000000  0.6508444  3
   1343   1341   1344   1353     1  0.0000000  0.6508444  3
   1343   1341   1344   1345     1  0.0000000  0.6508444  3
   1343   1341   1344   1346     1  0.0000000  0.6508444  3
   1345   1344   1353   1362     1  0.0000000  1.0460000  1
   1345   1344   1353   1362     1  0.0000000  0.0000000  3
   1345   1344   1353   1354     1  0.0000000  0.6508444  3
   1345   1344   1353   1355     1  0.0000000  0.6508444  3
   1346   1344   1353   1362     1  0.0000000  1.0460000  1
   1346   1344   1353   1362     1  0.0000000  0.0000000  3
   1346   1344   1353   1354     1  0.0000000  0.6508444  3
   1346   1344   1353   1355     1  0.0000000  0.6508444  3
   1348   1347   1359   2759     1  0.0000000  1.0460000  1
   1348   1347   1359   2759     1  0.0000000  0.0000000  3
   1348   1347   1359   1360     1  0.0000000  0.6508444  3
   1348   1347   1359   1361     1  0.0000000  0.6508444  3
   1349   1347   1359   2759     1  0.0000000  1.0460000  1
   1349   1347   1359   2759     1  0.0000000  0.0000000  3
   1349   1347   1359   1360     1  0.0000000  0.6508444  3
   1349   1347   1359   1361     1  0.0000000  0.6508444  3
   1351   1350   1356   2736     1  0.0000000  1.0460000  1
   1351   1350   1356   2736     1  0.0000000  0.0000000  3
   1351   1350   1356   1357     1  0.0000000  0.6508444  3
   1351   1350   1356   1358     1  0.0000000  0.6508444  3
   1352   1350   1356   2736     1  0.0000000  1.0460000  1
   1352   1350   1356   2736     1  0.0000000  0.0000000  3
   1352   1350   1356   1357     1  0.0000000  0.6508444  3
   1352   1350   1356   1358     1  0.0000000  0.6508444  3
   1356   2736   2732   2735     1  0.0000000  1.6038667  3
   1357   1356   2736   2732     1  0.0000000  1.6038667  3
   1358   1356   2736   2732     1  0.0000000  1.6038667  3
   1359   2759   2755   2758     1  0.0000000  1.6038667  3
   1360   1359   2759   2755     1  0.0000000  1.6038667  3
   1361   1359   2759   2755     1  0.0000000  1.6038667  3
   1363   1364   1376   1377     1  0.0000000  0.6508444  3
   1363   1364   1376   1378     1  0.0000000  0.6508444  3
   1363   1367   1379   1380     1  0.0000000  0.6508444  3
   1363   1367   1379   1381     1  0.0000000  0.6508444  3
   1363   1370   1373   1374     1  0.0000000  0.6508444  3
   1363   1370   1373   1375     1  0.0000000  0.6508444  3
   1364   1363   1367   1368     1  0.0000000  1.2552000  3
   1364   1363   1367   1369     1  0.0000000  1.2552000  3
   1364   1363   1370   1371     1  0.0000000  1.2552000  3
   1364   1363   1370   1372     1  0.0000000  1.2552000  3
   1364   1376   1388   1389     1  0.0000000  0.6508444  3
   1364   1376   1388   1390     1  0.0000000  0.6508444  3
   1365   1364   1363   1367     1  0.0000000  1.2552000  3
   1365   1364   1363   1370     1  0.0000000  1.2552000  3
   1365   1364   1376   1388     1  0.0000000  0.6508444  3
   1365   1364   1376   1377     1  0.0000000  0.6508444  3
   1365   1364   1376   1378     1  0.0000000  0.6508444  3
   1366   1364   1363   1367     1  0.0000000  1.2552000  3
   1366   1364   1363   1370     1  0.0000000  1.2552000  3
   1366   1364   1376   1388     1  0.0000000  0.6508444  3
   1366   1364   1376   1377     1  0.0000000  0.6508444  3
   1366   1364   1376   1378     1  0.0000000  0.6508444  3
   1367   1363   1370   1371     1  0.0000000  1.2552000  3
   1367   1363   1370   1372     1  0.0000000  1.2552000  3
   1367   1379   1385   1386     1  0.0000000  0.6508444  3
   1367   1379   1385   1387     1  0.0000000  0.6508444  3
   1368   1367   1363   1370     1  0.0000000  1.2552000  3
   1368   1367   1379   1385     1  0.0000000  0.6508444  3
   1368   1367   1379   1380     1  0.0000000  0.6508444  3
   1368   1367   1379   1381     1  0.0000000  0.6508444  3
   1369   1367   1363   1370     1  0.0000000  1.2552000  3
   1369   1367   1379   1385     1  0.0000000  0.6508444  3
   1369   1367   1379   1380     1  0.0000000  0.6508444  3
   1369   1367   1379   1381     1  0.0000000  0.6508444  3
   1370   1373   1382   1383     1  0.0000000  0.6508444  3
   1370   1373   1382   1384     1  0.0000000  0.6508444  3
   1371   1370   1373   1382     1  0.0000000  0.6508444  3
   1371   1370   1373   1374     1  0.0000000  0.6508444  3
   1371   1370   1373   1375     1  0.0000000  0.6508444  3
   1372   1370   1373   1382     1  0.0000000  0.6508444  3
   1372   1370   1373   1374     1  0.0000000  0.6508444  3
   1372   1370   1373   1375     1  0.0000000  0.6508444  3
   1374   1373   1382   1391     1  0.0000000  1.0460000  1
   1374   1373   1382   1391     1  0.0000000  0.0000000  3
   1374   1373   1382   1383     1  0.0000000  0.6508444  3
   1374   1373   1382   1384     1  0.0000000  0.6508444  3
   1375   1373   1382   1391     1  0.0000000  1.0460000  1
   1375   1373   1382   1391     1  0.0000000  0.0000000  3
   1375   1373   1382   1383     1  0.0000000  0.6508444  3
   1375   1373   1382   1384     1  0.0000000  0.6508444  3
   1377   1376   1388   2805     1  0.0000000  1.0460000  1
   1377   1376   1388   2805     1  0.0000000  0.0000000  3
   1377   1376   1388   1389     1  0.0000000  0.6508444  3
   1377   1376   1388   1390     1  0.0000000  0.6508444  3
   1378   1376   1388   2805     1  0.0000000  1.0460000  1
   1378   1376   1388   2805     1  0.0000000  0.0000000  3
   1378   1376   1388   1389     1  0.0000000  0.6508444  3
   1378   1376   1388   1390     1  0.0000000  0.6508444  3
   1380   1379   1385   2782     1  0.0000000  1.0460000  1
   1380   1379   1385   2782     1  0.0000000  0.0000000  3
   1380   1379   1385   1386     1  0.0000000  0.6508444  3
   1380   1379   1385   1387     1  0.0000000  0.6508444  3
   1381   1379   1385   2782     1  0.0000000  1.0460000  1
   1381   1379   1385   2782     1  0.0000000  0.0000000  3
   1381   1379   1385   1386     1  0.0000000  0.6508444  3
   1381   1379   1385   1387     1  0.0000000  0.6508444  3
   1385   2782   2778   2781     1  0.0000000  1.6038667  3
   1386   1385   2782   2778     1  0.0000000  1.6038667  3
   1387   1385   2782   2778     1  0.0000000  1.6038667  3
   1388   2805   2801   2804     1  0.0000000  1.6038667  3
   1389   1388   2805   2801     1  0.0000000  1.6038667  3
   1390   1388   2805   2801     1  0.0000000  1.6038667  3
   1392   1393   1405   1406     1  0.0000000  0.6508444  3
   1392   1393   1405   1407     1  0.0000000  0.6508444  3
   1392   1396   1408   1409     1  0.0000000  0.6508444  3
   1392   1396   1408   1410     1  0.0000000  0.6508444  3
   1392   1399   1402   1403     1  0.0000000  0.6508444  3
   1392   1399   1402   1404     1  0.0000000  0.6508444  3
   1393   1392   1396   1397     1  0.0000000  1.2552000  3
   1393   1392   1396   1398     1  0.0000000  1.2552000  3
   1393   1392   1399   1400     1  0.0000000  1.2552000  3
   1393   1392   1399   1401     1  0.0000000  1.2552000  3
   1393   1405   1417   1418     1  0.0000000  0.6508444  3
   1393   1405   1417   1419     1  0.0000000  0.6508444  3
   1394   1393   1392   1396     1  0.0000000  1.2552000  3
   1394   1393   1392   1399     1  0.0000000  1.2552000  3
   1394   1393   1405   1417     1  0.0000000  0.6508444  3
   1394   1393   1405   1406     1  0.0000000  0.6508444  3
   1394   1393   1405   1407     1  0.0000000  0.6508444  3
   1395   1393   1392   1396     1  0.0000000  1.2552000  3
   1395   1393   1392   1399     1  0.0000000  1.2552000  3
   1395   1393   1405   1417     1  0.0000000  0.6508444  3
   1395   1393   1405   1406     1  0.0000000  0.6508444  3
   1395   1393   1405   1407     1  0.0000000  0.6508444  3
   1396   1392   1399   1400     1  0.0000000  1.2552000  3
   1396   1392   1399   1401     1  0.0000000  1.2552000  3
   1396   1408   1414   1415     1  0.0000000  0.6508444  3
   1396   1408   1414   1416     1  0.0000000  0.6508444  3
   1397   1396   1392   1399     1  0.0000000  1.2552000  3
   1397   1396   1408   1414     1  0.0000000  0.6508444  3
   1397   1396   1408   1409     1  0.0000000  0.6508444  3
   1397   1396   1408   1410     1  0.0000000  0.6508444  3
   1398   1396   1392   1399     1  0.0000000  1.2552000  3
   1398   1396   1408   1414     1  0.0000000  0.6508444  3
   1398   1396   1408   1409     1  0.0000000  0.6508444  3
   1398   1396   1408   1410     1  0.0000000  0.6508444  3
   1399   1402   1411   1412     1  0.0000000  0.6508444  3
   1399   1402   1411   1413     1  0.0000000  0.6508444  3
   1400   1399   1402   1411     1  0.0000000  0.6508444  3
   1400   1399   1402   1403     1  0.0000000  0.6508444  3
   1400   1399   1402   1404     1  0.0000000  0.6508444  3
   1401   1399   1402   1411     1  0.0000000  0.6508444  3
   1401   1399   1402   1403     1  0.0000000  0.6508444  3
   1401   1399   1402   1404     1  0.0000000  0.6508444  3
   1403   1402   1411   1420     1  0.0000000  1.0460000  1
   1403   1402   1411   1420     1  0.0000000  0.0000000  3
   1403   1402   1411   1412     1  0.0000000  0.6508444  3
   1403   1402   1411   1413     1  0.0000000  0.6508444  3
   1404   1402   1411   1420     1  0.0000000  1.0460000  1
   1404   1402   1411   1420     1  0.0000000  0.0000000  3
   1404   1402   1411   1412     1  0.0000000  0.6508444  3
   1404   1402   1411   1413     1  0.0000000  0.6508444  3
   1406   1405   1417   2851     1  0.0000000  1.0460000  1
   1406   1405   1417   2851     1  0.0000000  0.0000000  3
   1406   1405   1417   1418     1  0.0000000  0.6508444  3
   1406   1405   1417   1419     1  0.0000000  0.6508444  3
   1407   1405   1417   2851     1  0.0000000  1.0460000  1
   1407   1405   1417   2851     1  0.0000000  0.0000000  3
   1407   1405   1417   1418     1  0.0000000  0.6508444  3
   1407   1405   1417   1419     1  0.0000000  0.6508444  3
   1409   1408   1414   2828     1  0.0000000  1.0460000  1
   1409   1408   1414   2828     1  0.0000000  0.0000000  3
   1409   1408   1414   1415     1  0.0000000  0.6508444  3
   1409   1408   1414   1416     1  0.0000000  0.6508444  3
   1410   1408   1414   2828     1  0.0000000  1.0460000  1
   1410   1408   1414   2828     1  0.0000000  0.0000000  3
   1410   1408   1414   1415     1  0.0000000  0.6508444  3
   1410   1408   1414   1416     1  0.0000000  0.6508444  3
   1414   2828   2824   2827     1  0.0000000  1.6038667  3
   1415   1414   2828   2824     1  0.0000000  1.6038667  3
   1416   1414   2828   2824     1  0.0000000  1.6038667  3
   1417   2851   2847   2850     1  0.0000000  1.6038667  3
   1418   1417   2851   2847     1  0.0000000  1.6038667  3
   1419   1417   2851   2847     1  0.0000000  1.6038667  3
   1421   1422   1434   1435     1  0.0000000  0.6508444  3
   1421   1422   1434   1436     1  0.0000000  0.6508444  3
   1421   1425   1437   1438     1  0.0000000  0.6508444  3
   1421   1425   1437   1439     1  0.0000000  0.6508444  3
   1421   1428   1431   1432     1  0.0000000  0.6508444  3
   1421   1428   1431   1433     1  0.0000000  0.6508444  3
   1422   1421   1425   1426     1  0.0000000  1.2552000  3
   1422   1421   1425   1427     1  0.0000000  1.2552000  3
   1422   1421   1428   1429     1  0.0000000  1.2552000  3
   1422   1421   1428   1430     1  0.0000000  1.2552000  3
   1422   1434   1446   1447     1  0.0000000  0.6508444  3
   1422   1434   1446   1448     1  0.0000000  0.6508444  3
   1423   1422   1421   1425     1  0.0000000  1.2552000  3
   1423   1422   1421   1428     1  0.0000000  1.2552000  3
   1423   1422   1434   1446     1  0.0000000  0.6508444  3
   1423   1422   1434   1435     1  0.0000000  0.6508444  3
   1423   1422   1434   1436     1  0.0000000  0.6508444  3
   1424   1422   1421   1425     1  0.0000000  1.2552000  3
   1424   1422   1421   1428     1  0.0000000  1.2552000  3
   1424   1422   1434   1446     1  0.0000000  0.6508444  3
   1424   1422   1434   1435     1  0.0000000  0.6508444  3
   1424   1422   1434   1436     1  0.0000000  0.6508444  3
   1425   1421   1428   1429     1  0.0000000  1.2552000  3
   1425   1421   1428   1430     1  0.0000000  1.2552000  3
   1425   1437   1443   1444     1  0.0000000  0.6508444  3
   1425   1437   1443   1445     1  0.0000000  0.6508444  3
   1426   1425   1421   1428     1  0.0000000  1.2552000  3
   1426   1425   1437   1443     1  0.0000000  0.6508444  3
   1426   1425   1437   1438     1  0.0000000  0.6508444  3
   1426   1425   1437   1439     1  0.0000000  0.6508444  3
   1427   1425   1421   1428     1  0.0000000  1.2552000  3
   1427   1425   1437   1443     1  0.0000000  0.6508444  3
   1427   1425   1437   1438     1  0.0000000  0.6508444  3
   1427   1425   1437   1439     1  0.0000000  0.6508444  3
   1428   1431   1440   1441     1  0.0000000  0.6508444  3
   1428   1431   1440   1442     1  0.0000000  0.6508444  3
   1429   1428   1431   1440     1  0.0000000  0.6508444  3
   1429   1428   1431   1432     1  0.0000000  0.6508444  3
   1429   1428   1431   1433     1  0.0000000  0.6508444  3
   1430   1428   1431   1440     1  0.0000000  0.6508444  3
   1430   1428   1431   1432     1  0.0000000  0.6508444  3
   1430   1428   1431   1433     1  0.0000000  0.6508444  3
   1432   1431   1440   1449     1  0.0000000  1.0460000  1
   1432   1431   1440   1449     1  0.0000000  0.0000000  3
   1432   1431   1440   1441     1  0.0000000  0.6508444  3
   1432   1431   1440   1442     1  0.0000000  0.6508444  3
   1433   1431   1440   1449     1  0.0000000  1.0460000  1
   1433   1431   1440   1449     1  0.0000000  0.0000000  3
   1433   1431   1440   1441     1  0.0000000  0.6508444  3
   1433   1431   1440   1442     1  0.0000000  0.6508444  3
   1435   1434   1446   2897     1  0.0000000  1.0460000  1
   1435   1434   1446   2897     1  0.0000000  0.0000000  3
   1435   1434   1446   1447     1  0.0000000  0.6508444  3
   1435   1434   1446   1448     1  0.0000000  0.6508444  3
   1436   1434   1446   2897     1  0.0000000  1.0460000  1
   1436   1434   1446   2897     1  0.0000000  0.0000000  3
   1436   1434   1446   1447     1  0.0000000  0.6508444  3
   1436   1434   1446   1448     1  0.0000000  0.6508444  3
   1438   1437   1443   2874     1  0.0000000  1.0460000  1
   1438   1437   1443   2874     1  0.0000000  0.0000000  3
   1438   1437   1443   1444     1  0.0000000  0.6508444  3
   1438   1437   1443   1445     1  0.0000000  0.6508444  3
   1439   1437   1443   2874     1  0.0000000  1.0460000  1
   1439   1437   1443   2874     1  0.0000000  0.0000000  3
   1439   1437   1443   1444     1  0.0000000  0.6508444  3
   1439   1437   1443   1445     1  0.0000000  0.6508444  3
   1443   2874   2870   2873     1  0.0000000  1.6038667  3
   1444   1443   2874   2870     1  0.0000000  1.6038667  3
   1445   1443   2874   2870     1  0.0000000  1.6038667  3
   1446   2897   2893   2896     1  0.0000000  1.6038667  3
   1447   1446   2897   2893     1  0.0000000  1.6038667  3
   1448   1446   2897   2893     1  0.0000000  1.6038667  3
   1450   1451   1463   1464     1  0.0000000  0.6508444  3
   1450   1451   1463   1465     1  0.0000000  0.6508444  3
   1450   1454   1466   1467     1  0.0000000  0.6508444  3
   1450   1454   1466   1468     1  0.0000000  0.6508444  3
   1450   1457   1460   1461     1  0.0000000  0.6508444  3
   1450   1457   1460   1462     1  0.0000000  0.6508444  3
   1451   1450   1454   1455     1  0.0000000  1.2552000  3
   1451   1450   1454   1456     1  0.0000000  1.2552000  3
   1451   1450   1457   1458     1  0.0000000  1.2552000  3
   1451   1450   1457   1459     1  0.0000000  1.2552000  3
   1451   1463   1475   1476     1  0.0000000  0.6508444  3
   1451   1463   1475   1477     1  0.0000000  0.6508444  3
   1452   1451   1450   1454     1  0.0000000  1.2552000  3
   1452   1451   1450   1457     1  0.0000000  1.2552000  3
   1452   1451   1463   1475     1  0.0000000  0.6508444  3
   1452   1451   1463   1464     1  0.0000000  0.6508444  3
   1452   1451   1463   1465     1  0.0000000  0.6508444  3
   1453   1451   1450   1454     1  0.0000000  1.2552000  3
   1453   1451   1450   1457     1  0.0000000  1.2552000  3
   1453   1451   1463   1475     1  0.0000000  0.6508444  3
   1453   1451   1463   1464     1  0.0000000  0.6508444  3
   1453   1451   1463   1465     1  0.0000000  0.6508444  3
   1454   1450   1457   1458     1  0.0000000  1.2552000  3
   1454   1450   1457   1459     1  0.0000000  1.2552000  3
   1454   1466   1472   1473     1  0.0000000  0.6508444  3
   1454   1466   1472   1474     1  0.0000000  0.6508444  3
   1455   1454   1450   1457     1  0.0000000  1.2552000  3
   1455   1454   1466   1472     1  0.0000000  0.6508444  3
   1455   1454   1466   1467     1  0.0000000  0.6508444  3
   1455   1454   1466   1468     1  0.0000000  0.6508444  3
   1456   1454   1450   1457     1  0.0000000  1.2552000  3
   1456   1454   1466   1472     1  0.0000000  0.6508444  3
   1456   1454   1466   1467     1  0.0000000  0.6508444  3
   1456   1454   1466   1468     1  0.0000000  0.6508444  3
   1457   1460   1469   1470     1  0.0000000  0.6508444  3
   1457   1460   1469   1471     1  0.0000000  0.6508444  3
   1458   1457   1460   1469     1  0.0000000  0.6508444  3
   1458   1457   1460   1461     1  0.0000000  0.6508444  3
   1458   1457   1460   1462     1  0.0000000  0.6508444  3
   1459   1457   1460   1469     1  0.0000000  0.6508444  3
   1459   1457   1460   1461     1  0.0000000  0.6508444  3
   1459   1457   1460   1462     1  0.0000000  0.6508444  3
   1461   1460   1469   1478     1  0.0000000  1.0460000  1
   1461   1460   1469   1478     1  0.0000000  0.0000000  3
   1461   1460   1469   1470     1  0.0000000  0.6508444  3
   1461   1460   1469   1471     1  0.0000000  0.6508444  3
   1462   1460   1469   1478     1  0.0000000  1.0460000  1
   1462   1460   1469   1478     1  0.0000000  0.0000000  3
   1462   1460   1469   1470     1  0.0000000  0.6508444  3
   1462   1460   1469   1471     1  0.0000000  0.6508444  3
   1464   1463   1475   2943     1  0.0000000  1.0460000  1
   1464   1463   1475   2943     1  0.0000000  0.0000000  3
   1464   1463   1475   1476     1  0.0000000  0.6508444  3
   1464   1463   1475   1477     1  0.0000000  0.6508444  3
   1465   1463   1475   2943     1  0.0000000  1.0460000  1
   1465   1463   1475   2943     1  0.0000000  0.0000000  3
   1465   1463   1475   1476     1  0.0000000  0.6508444  3
   1465   1463   1475   1477     1  0.0000000  0.6508444  3
   1467   1466   1472   2920     1  0.0000000  1.0460000  1
   1467   1466   1472   2920     1  0.0000000  0.0000000  3
   1467   1466   1472   1473     1  0.0000000  0.6508444  3
   1467   1466   1472   1474     1  0.0000000  0.6508444  3
   1468   1466   1472   2920     1  0.0000000  1.0460000  1
   1468   1466   1472   2920     1  0.0000000  0.0000000  3
   1468   1466   1472   1473     1  0.0000000  0.6508444  3
   1468   1466   1472   1474     1  0.0000000  0.6508444  3
   1472   2920   2916   2919     1  0.0000000  1.6038667  3
   1473   1472   2920   2916     1  0.0000000  1.6038667  3
   1474   1472   2920   2916     1  0.0000000  1.6038667  3
   1475   2943   2939   2942     1  0.0000000  1.6038667  3
   1476   1475   2943   2939     1  0.0000000  1.6038667  3
   1477   1475   2943   2939     1  0.0000000  1.6038667  3
   1479   1480   1492   1493     1  0.0000000  0.6508444  3
   1479   1480   1492   1494     1  0.0000000  0.6508444  3
   1479   1483   1495   1496     1  0.0000000  0.6508444  3
   1479   1483   1495   1497     1  0.0000000  0.6508444  3
   1479   1486   1489   1490     1  0.0000000  0.6508444  3
   1479   1486   1489   1491     1  0.0000000  0.6508444  3
   1480   1479   1483   1484     1  0.0000000  1.2552000  3
   1480   1479   1483   1485     1  0.0000000  1.2552000  3
   1480   1479   1486   1487     1  0.0000000  1.2552000  3
   1480   1479   1486   1488     1  0.0000000  1.2552000  3
   1480   1492   1504   1505     1  0.0000000  0.6508444  3
   1480   1492   1504   1506     1  0.0000000  0.6508444  3
   1481   1480   1479   1483     1  0.0000000  1.2552000  3
   1481   1480   1479   1486     1  0.0000000  1.2552000  3
   1481   1480   1492   1504     1  0.0000000  0.6508444  3
   1481   1480   1492   1493     1  0.0000000  0.6508444  3
   1481   1480   1492   1494     1  0.0000000  0.6508444  3
   1482   1480   1479   1483     1  0.0000000  1.2552000  3
   1482   1480   1479   1486     1  0.0000000  1.2552000  3
   1482   1480   1492   1504     1  0.0000000  0.6508444  3
   1482   1480   1492   1493     1  0.0000000  0.6508444  3
   1482   1480   1492   1494     1  0.0000000  0.6508444  3
   1483   1479   1486   1487     1  0.0000000  1.2552000  3
   1483   1479   1486   1488     1  0.0000000  1.2552000  3
   1483   1495   1501   1502     1  0.0000000  0.6508444  3
   1483   1495   1501   1503     1  0.0000000  0.6508444  3
   1484   1483   1479   1486     1  0.0000000  1.2552000  3
   1484   1483   1495   1501     1  0.0000000  0.6508444  3
   1484   1483   1495   1496     1  0.0000000  0.6508444  3
   1484   1483   1495   1497     1  0.0000000  0.6508444  3
   1485   1483   1479   1486     1  0.0000000  1.2552000  3
   1485   1483   1495   1501     1  0.0000000  0.6508444  3
   1485   1483   1495   1496     1  0.0000000  0.6508444  3
   1485   1483   1495   1497     1  0.0000000  0.6508444  3
   1486   1489   1498   1499     1  0.0000000  0.6508444  3
   1486   1489   1498   1500     1  0.0000000  0.6508444  3
   1487   1486   1489   1498     1  0.0000000  0.6508444  3
   1487   1486   1489   1490     1  0.0000000  0.6508444  3
   1487   1486   1489   1491     1  0.0000000  0.6508444  3
   1488   1486   1489   1498     1  0.0000000  0.6508444  3
   1488   1486   1489   1490     1  0.0000000  0.6508444  3
   1488   1486   1489   1491     1  0.0000000  0.6508444  3
   1490   1489   1498   1507     1  0.0000000  1.0460000  1
   1490   1489   1498   1507     1  0.0000000  0.0000000  3
   1490   1489   1498   1499     1  0.0000000  0.6508444  3
   1490   1489   1498   1500     1  0.0000000  0.6508444  3
   1491   1489   1498   1507     1  0.0000000  1.0460000  1
   1491   1489   1498   1507     1  0.0000000  0.0000000  3
   1491   1489   1498   1499     1  0.0000000  0.6508444  3
   1491   1489   1498   1500     1  0.0000000  0.6508444  3
   1493   1492   1504   2989     1  0.0000000  1.0460000  1
   1493   1492   1504   2989     1  0.0000000  0.0000000  3
   1493   1492   1504   1505     1  0.0000000  0.6508444  3
   1493   1492   1504   1506     1  0.0000000  0.6508444  3
   1494   1492   1504   2989     1  0.0000000  1.0460000  1
   1494   1492   1504   2989     1  0.0000000  0.0000000  3
   1494   1492   1504   1505     1  0.0000000  0.6508444  3
   1494   1492   1504   1506     1  0.0000000  0.6508444  3
   1496   1495   1501   2966     1  0.0000000  1.0460000  1
   1496   1495   1501   2966     1  0.0000000  0.0000000  3
   1496   1495   1501   1502     1  0.0000000  0.6508444  3
   1496   1495   1501   1503     1  0.0000000  0.6508444  3
   1497   1495   1501   2966     1  0.0000000  1.0460000  1
   1497   1495   1501   2966     1  0.0000000  0.0000000  3
   1497   1495   1501   1502     1  0.0000000  0.6508444  3
   1497   1495   1501   1503     1  0.0000000  0.6508444  3
   1501   2966   2962   2965     1  0.0000000  1.6038667  3
   1502   1501   2966   2962     1  0.0000000  1.6038667  3
   1503   1501   2966   2962     1  0.0000000  1.6038667  3
   1504   2989   2985   2988     1  0.0000000  1.6038667  3
   1505   1504   2989   2985     1  0.0000000  1.6038667  3
   1506   1504   2989   2985     1  0.0000000  1.6038667  3
   1508   1509   1521   1522     1  0.0000000  0.6508444  3
   1508   1509   1521   1523     1  0.0000000  0.6508444  3
   1508   1512   1524   1525     1  0.0000000  0.6508444  3
   1508   1512   1524   1526     1  0.0000000  0.6508444  3
   1508   1515   1518   1519     1  0.0000000  0.6508444  3
   1508   1515   1518   1520     1  0.0000000  0.6508444  3
   1509   1508   1512   1513     1  0.0000000  1.2552000  3
   1509   1508   1512   1514     1  0.0000000  1.2552000  3
   1509   1508   1515   1516     1  0.0000000  1.2552000  3
   1509   1508   1515   1517     1  0.0000000  1.2552000  3
   1509   1521   1533   1534     1  0.0000000  0.6508444  3
   1509   1521   1533   1535     1  0.0000000  0.6508444  3
   1510   1509   1508   1512     1  0.0000000  1.2552000  3
   1510   1509   1508   1515     1  0.0000000  1.2552000  3
   1510   1509   1521   1533     1  0.0000000  0.6508444  3
   1510   1509   1521   1522     1  0.0000000  0.6508444  3
   1510   1509   1521   1523     1  0.0000000  0.6508444  3
   1511   1509   1508   1512     1  0.0000000  1.2552000  3
   1511   1509   1508   1515     1  0.0000000  1.2552000  3
   1511   1509   1521   1533     1  0.0000000  0.6508444  3
   1511   1509   1521   1522     1  0.0000000  0.6508444  3
   1511   1509   1521   1523     1  0.0000000  0.6508444  3
   1512   1508   1515   1516     1  0.0000000  1.2552000  3
   1512   1508   1515   1517     1  0.0000000  1.2552000  3
   1512   1524   1530   1531     1  0.0000000  0.6508444  3
   1512   1524   1530   1532     1  0.0000000  0.6508444  3
   1513   1512   1508   1515     1  0.0000000  1.2552000  3
   1513   1512   1524   1530     1  0.0000000  0.6508444  3
   1513   1512   1524   1525     1  0.0000000  0.6508444  3
   1513   1512   1524   1526     1  0.0000000  0.6508444  3
   1514   1512   1508   1515     1  0.0000000  1.2552000  3
   1514   1512   1524   1530     1  0.0000000  0.6508444  3
   1514   1512   1524   1525     1  0.0000000  0.6508444  3
   1514   1512   1524   1526     1  0.0000000  0.6508444  3
   1515   1518   1527   1528     1  0.0000000  0.6508444  3
   1515   1518   1527   1529     1  0.0000000  0.6508444  3
   1516   1515   1518   1527     1  0.0000000  0.6508444  3
   1516   1515   1518   1519     1  0.0000000  0.6508444  3
   1516   1515   1518   1520     1  0.0000000  0.6508444  3
   1517   1515   1518   1527     1  0.0000000  0.6508444  3
   1517   1515   1518   1519     1  0.0000000  0.6508444  3
   1517   1515   1518   1520     1  0.0000000  0.6508444  3
   1519   1518   1527   1536     1  0.0000000  1.0460000  1
   1519   1518   1527   1536     1  0.0000000  0.0000000  3
   1519   1518   1527   1528     1  0.0000000  0.6508444  3
   1519   1518   1527   1529     1  0.0000000  0.6508444  3
   1520   1518   1527   1536     1  0.0000000  1.0460000  1
   1520   1518   1527   1536     1  0.0000000  0.0000000  3
   1520   1518   1527   1528     1  0.0000000  0.6508444  3
   1520   1518   1527   1529     1  0.0000000  0.6508444  3
   1522   1521   1533   3035     1  0.0000000  1.0460000  1
   1522   1521   1533   3035     1  0.0000000  0.0000000  3
   1522   1521   1533   1534     1  0.0000000  0.6508444  3
   1522   1521   1533   1535     1  0.0000000  0.6508444  3
   1523   1521   1533   3035     1  0.0000000  1.0460000  1
   1523   1521   1533   3035     1  0.0000000  0.0000000  3
   1523   1521   1533   1534     1  0.0000000  0.6508444  3
   1523   1521   1533   1535     1  0.0000000  0.6508444  3
   1525   1524   1530   3012     1  0.0000000  1.0460000  1
   1525   1524   1530   3012     1  0.0000000  0.0000000  3
   1525   1524   1530   1531     1  0.0000000  0.6508444  3
   1525   1524   1530   1532     1  0.0000000  0.6508444  3
   1526   1524   1530   3012     1  0.0000000  1.0460000  1
   1526   1524   1530   3012     1  0.0000000  0.0000000  3
   1526   1524   1530   1531     1  0.0000000  0.6508444  3
   1526   1524   1530   1532     1  0.0000000  0.6508444  3
   1530   3012   3008   3011     1  0.0000000  1.6038667  3
   1531   1530   3012   3008     1  0.0000000  1.6038667  3
   1532   1530   3012   3008     1  0.0000000  1.6038667  3
   1533   3035   3031   3034     1  0.0000000  1.6038667  3
   1534   1533   3035   3031     1  0.0000000  1.6038667  3
   1535   1533   3035   3031     1  0.0000000  1.6038667  3
   1537   1538   1550   1551     1  0.0000000  0.6508444  3
   1537   1538   1550   1552     1  0.0000000  0.6508444  3
   1537   1541   1553   1554     1  0.0000000  0.6508444  3
   1537   1541   1553   1555     1  0.0000000  0.6508444  3
   1537   1544   1547   1548     1  0.0000000  0.6508444  3
   1537   1544   1547   1549     1  0.0000000  0.6508444  3
   1538   1537   1541   1542     1  0.0000000  1.2552000  3
   1538   1537   1541   1543     1  0.0000000  1.2552000  3
   1538   1537   1544   1545     1  0.0000000  1.2552000  3
   1538   1537   1544   1546     1  0.0000000  1.2552000  3
   1538   1550   1562   1563     1  0.0000000  0.6508444  3
   1538   1550   1562   1564     1  0.0000000  0.6508444  3
   1539   1538   1537   1541     1  0.0000000  1.2552000  3
   1539   1538   1537   1544     1  0.0000000  1.2552000  3
   1539   1538   1550   1562     1  0.0000000  0.6508444  3
   1539   1538   1550   1551     1  0.0000000  0.6508444  3
   1539   1538   1550   1552     1  0.0000000  0.6508444  3
   1540   1538   1537   1541     1  0.0000000  1.2552000  3
   1540   1538   1537   1544     1  0.0000000  1.2552000  3
   1540   1538   1550   1562     1  0.0000000  0.6508444  3
   1540   1538   1550   1551     1  0.0000000  0.6508444  3
   1540   1538   1550   1552     1  0.0000000  0.6508444  3
   1541   1537   1544   1545     1  0.0000000  1.2552000  3
   1541   1537   1544   1546     1  0.0000000  1.2552000  3
   1541   1553   1559   1560     1  0.0000000  0.6508444  3
   1541   1553   1559   1561     1  0.0000000  0.6508444  3
   1542   1541   1537   1544     1  0.0000000  1.2552000  3
   1542   1541   1553   1559     1  0.0000000  0.6508444  3
   1542   1541   1553   1554     1  0.0000000  0.6508444  3
   1542   1541   1553   1555     1  0.0000000  0.6508444  3
   1543   1541   1537   1544     1  0.0000000  1.2552000  3
   1543   1541   1553   1559     1  0.0000000  0.6508444  3
   1543   1541   1553   1554     1  0.0000000  0.6508444  3
   1543   1541   1553   1555     1  0.0000000  0.6508444  3
   1544   1547   1556   1557     1  0.0000000  0.6508444  3
   1544   1547   1556   1558     1  0.0000000  0.6508444  3
   1545   1544   1547   1556     1  0.0000000  0.6508444  3
   1545   1544   1547   1548     1  0.0000000  0.6508444  3
   1545   1544   1547   1549     1  0.0000000  0.6508444  3
   1546   1544   1547   1556     1  0.0000000  0.6508444  3
   1546   1544   1547   1548     1  0.0000000  0.6508444  3
   1546   1544   1547   1549     1  0.0000000  0.6508444  3
   1548   1547   1556   1565     1  0.0000000  1.0460000  1
   1548   1547   1556   1565     1  0.0000000  0.0000000  3
   1548   1547   1556   1557     1  0.0000000  0.6508444  3
   1548   1547   1556   1558     1  0.0000000  0.6508444  3
   1549   1547   1556   1565     1  0.0000000  1.0460000  1
   1549   1547   1556   1565     1  0.0000000  0.0000000  3
   1549   1547   1556   1557     1  0.0000000  0.6508444  3
   1549   1547   1556   1558     1  0.0000000  0.6508444  3
   1551   1550   1562   3081     1  0.0000000  1.0460000  1
   1551   1550   1562   3081     1  0.0000000  0.0000000  3
   1551   1550   1562   1563     1  0.0000000  0.6508444  3
   1551   1550   1562   1564     1  0.0000000  0.6508444  3
   1552   1550   1562   3081     1  0.0000000  1.0460000  1
   1552   1550   1562   3081     1  0.0000000  0.0000000  3
   1552   1550   1562   1563     1  0.0000000  0.6508444  3
   1552   1550   1562   1564     1  0.0000000  0.6508444  3
   1554   1553   1559   3058     1  0.0000000  1.0460000  1
   1554   1553   1559   3058     1  0.0000000  0.0000000  3
   1554   1553   1559   1560     1  0.0000000  0.6508444  3
   1554   1553   1559   1561     1  0.0000000  0.6508444  3
   1555   1553   1559   3058     1  0.0000000  1.0460000  1
   1555   1553   1559   3058     1  0.0000000  0.0000000  3
   1555   1553   1559   1560     1  0.0000000  0.6508444  3
   1555   1553   1559   1561     1  0.0000000  0.6508444  3
   1559   3058   3054   3057     1  0.0000000  1.6038667  3
   1560   1559   3058   3054     1  0.0000000  1.6038667  3
   1561   1559   3058   3054     1  0.0000000  1.6038667  3
   1562   3081   3077   3080     1  0.0000000  1.6038667  3
   1563   1562   3081   3077     1  0.0000000  1.6038667  3
   1564   1562   3081   3077     1  0.0000000  1.6038667  3
   1566   1567   1579   1580     1  0.0000000  0.6508444  3
   1566   1567   1579   1581     1  0.0000000  0.6508444  3
   1566   1570   1582   1583     1  0.0000000  0.6508444  3
   1566   1570   1582   1584     1  0.0000000  0.6508444  3
   1566   1573   1576   1577     1  0.0000000  0.6508444  3
   1566   1573   1576   1578     1  0.0000000  0.6508444  3
   1567   1566   1570   1571     1  0.0000000  1.2552000  3
   1567   1566   1570   1572     1  0.0000000  1.2552000  3
   1567   1566   1573   1574     1  0.0000000  1.2552000  3
   1567   1566   1573   1575     1  0.0000000  1.2552000  3
   1567   1579   1591   1592     1  0.0000000  0.6508444  3
   1567   1579   1591   1593     1  0.0000000  0.6508444  3
   1568   1567   1566   1570     1  0.0000000  1.2552000  3
   1568   1567   1566   1573     1  0.0000000  1.2552000  3
   1568   1567   1579   1591     1  0.0000000  0.6508444  3
   1568   1567   1579   1580     1  0.0000000  0.6508444  3
   1568   1567   1579   1581     1  0.0000000  0.6508444  3
   1569   1567   1566   1570     1  0.0000000  1.2552000  3
   1569   1567   1566   1573     1  0.0000000  1.2552000  3
   1569   1567   1579   1591     1  0.0000000  0.6508444  3
   1569   1567   1579   1580     1  0.0000000  0.6508444  3
   1569   1567   1579   1581     1  0.0000000  0.6508444  3
   1570   1566   1573   1574     1  0.0000000  1.2552000  3
   1570   1566   1573   1575     1  0.0000000  1.2552000  3
   1570   1582   1588   1589     1  0.0000000  0.6508444  3
   1570   1582   1588   1590     1  0.0000000  0.6508444  3
   1571   1570   1566   1573     1  0.0000000  1.2552000  3
   1571   1570   1582   1588     1  0.0000000  0.6508444  3
   1571   1570   1582   1583     1  0.0000000  0.6508444  3
   1571   1570   1582   1584     1  0.0000000  0.6508444  3
   1572   1570   1566   1573     1  0.0000000  1.2552000  3
   1572   1570   1582   1588     1  0.0000000  0.6508444  3
   1572   1570   1582   1583     1  0.0000000  0.6508444  3
   1572   1570   1582   1584     1  0.0000000  0.6508444  3
   1573   1576   1585   1586     1  0.0000000  0.6508444  3
   1573   1576   1585   1587     1  0.0000000  0.6508444  3
   1574   1573   1576   1585     1  0.0000000  0.6508444  3
   1574   1573   1576   1577     1  0.0000000  0.6508444  3
   1574   1573   1576   1578     1  0.0000000  0.6508444  3
   1575   1573   1576   1585     1  0.0000000  0.6508444  3
   1575   1573   1576   1577     1  0.0000000  0.6508444  3
   1575   1573   1576   1578     1  0.0000000  0.6508444  3
   1577   1576   1585   1594     1  0.0000000  1.0460000  1
   1577   1576   1585   1594     1  0.0000000  0.0000000  3
   1577   1576   1585   1586     1  0.0000000  0.6508444  3
   1577   1576   1585   1587     1  0.0000000  0.6508444  3
   1578   1576   1585   1594     1  0.0000000  1.0460000  1
   1578   1576   1585   1594     1  0.0000000  0.0000000  3
   1578   1576   1585   1586     1  0.0000000  0.6508444  3
   1578   1576   1585   1587     1  0.0000000  0.6508444  3
   1580   1579   1591   3127     1  0.0000000  1.0460000  1
   1580   1579   1591   3127     1  0.0000000  0.0000000  3
   1580   1579   1591   1592     1  0.0000000  0.6508444  3
   1580   1579   1591   1593     1  0.0000000  0.6508444  3
   1581   1579   1591   3127     1  0.0000000  1.0460000  1
   1581   1579   1591   3127     1  0.0000000  0.0000000  3
   1581   1579   1591   1592     1  0.0000000  0.6508444  3
   1581   1579   1591   1593     1  0.0000000  0.6508444  3
   1583   1582   1588   3104     1  0.0000000  1.0460000  1
   1583   1582   1588   3104     1  0.0000000  0.0000000  3
   1583   1582   1588   1589     1  0.0000000  0.6508444  3
   1583   1582   1588   1590     1  0.0000000  0.6508444  3
   1584   1582   1588   3104     1  0.0000000  1.0460000  1
   1584   1582   1588   3104     1  0.0000000  0.0000000  3
   1584   1582   1588   1589     1  0.0000000  0.6508444  3
   1584   1582   1588   1590     1  0.0000000  0.6508444  3
   1588   3104   3100   3103     1  0.0000000  1.6038667  3
   1589   1588   3104   3100     1  0.0000000  1.6038667  3
   1590   1588   3104   3100     1  0.0000000  1.6038667  3
   1591   3127   3123   3126     1  0.0000000  1.6038667  3
   1592   1591   3127   3123     1  0.0000000  1.6038667  3
   1593   1591   3127   3123     1  0.0000000  1.6038667  3
   1595   1596   1608   1609     1  0.0000000  0.6508444  3
   1595   1596   1608   1610     1  0.0000000  0.6508444  3
   1595   1599   1611   1612     1  0.0000000  0.6508444  3
   1595   1599   1611   1613     1  0.0000000  0.6508444  3
   1595   1602   1605   1606     1  0.0000000  0.6508444  3
   1595   1602   1605   1607     1  0.0000000  0.6508444  3
   1596   1595   1599   1600     1  0.0000000  1.2552000  3
   1596   1595   1599   1601     1  0.0000000  1.2552000  3
   1596   1595   1602   1603     1  0.0000000  1.2552000  3
   1596   1595   1602   1604     1  0.0000000  1.2552000  3
   1596   1608   1620   1621     1  0.0000000  0.6508444  3
   1596   1608   1620   1622     1  0.0000000  0.6508444  3
   1597   1596   1595   1599     1  0.0000000  1.2552000  3
   1597   1596   1595   1602     1  0.0000000  1.2552000  3
   1597   1596   1608   1620     1  0.0000000  0.6508444  3
   1597   1596   1608   1609     1  0.0000000  0.6508444  3
   1597   1596   1608   1610     1  0.0000000  0.6508444  3
   1598   1596   1595   1599     1  0.0000000  1.2552000  3
   1598   1596   1595   1602     1  0.0000000  1.2552000  3
   1598   1596   1608   1620     1  0.0000000  0.6508444  3
   1598   1596   1608   1609     1  0.0000000  0.6508444  3
   1598   1596   1608   1610     1  0.0000000  0.6508444  3
   1599   1595   1602   1603     1  0.0000000  1.2552000  3
   1599   1595   1602   1604     1  0.0000000  1.2552000  3
   1599   1611   1617   1618     1  0.0000000  0.6508444  3
   1599   1611   1617   1619     1  0.0000000  0.6508444  3
   1600   1599   1595   1602     1  0.0000000  1.2552000  3
   1600   1599   1611   1617     1  0.0000000  0.6508444  3
   1600   1599   1611   1612     1  0.0000000  0.6508444  3
   1600   1599   1611   1613     1  0.0000000  0.6508444  3
   1601   1599   1595   1602     1  0.0000000  1.2552000  3
   1601   1599   1611   1617     1  0.0000000  0.6508444  3
   1601   1599   1611   1612     1  0.0000000  0.6508444  3
   1601   1599   1611   1613     1  0.0000000  0.6508444  3
   1602   1605   1614   1615     1  0.0000000  0.6508444  3
   1602   1605   1614   1616     1  0.0000000  0.6508444  3
   1603   1602   1605   1614     1  0.0000000  0.6508444  3
   1603   1602   1605   1606     1  0.0000000  0.6508444  3
   1603   1602   1605   1607     1  0.0000000  0.6508444  3
   1604   1602   1605   1614     1  0.0000000  0.6508444  3
   1604   1602   1605   1606     1  0.0000000  0.6508444  3
   1604   1602   1605   1607     1  0.0000000  0.6508444  3
   1606   1605   1614   1623     1  0.0000000  1.0460000  1
   1606   1605   1614   1623     1  0.0000000  0.0000000  3
   1606   1605   1614   1615     1  0.0000000  0.6508444  3
   1606   1605   1614   1616     1  0.0000000  0.6508444  3
   1607   1605   1614   1623     1  0.0000000  1.0460000  1
   1607   1605   1614   1623     1  0.0000000  0.0000000  3
   1607   1605   1614   1615     1  0.0000000  0.6508444  3
   1607   1605   1614   1616     1  0.0000000  0.6508444  3
   1609   1608   1620   3173     1  0.0000000  1.0460000  1
   1609   1608   1620   3173     1  0.0000000  0.0000000  3
   1609   1608   1620   1621     1  0.0000000  0.6508444  3
   1609   1608   1620   1622     1  0.0000000  0.6508444  3
   1610   1608   1620   3173     1  0.0000000  1.0460000  1
   1610   1608   1620   3173     1  0.0000000  0.0000000  3
   1610   1608   1620   1621     1  0.0000000  0.6508444  3
   1610   1608   1620   1622     1  0.0000000  0.6508444  3
   1612   1611   1617   3150     1  0.0000000  1.0460000  1
   1612   1611   1617   3150     1  0.0000000  0.0000000  3
   1612   1611   1617   1618     1  0.0000000  0.6508444  3
   1612   1611   1617   1619     1  0.0000000  0.6508444  3
   1613   1611   1617   3150     1  0.0000000  1.0460000  1
   1613   1611   1617   3150     1  0.0000000  0.0000000  3
   1613   1611   1617   1618     1  0.0000000  0.6508444  3
   1613   1611   1617   1619     1  0.0000000  0.6508444  3
   1617   3150   3146   3149     1  0.0000000  1.6038667  3
   1618   1617   3150   3146     1  0.0000000  1.6038667  3
   1619   1617   3150   3146     1  0.0000000  1.6038667  3
   1620   3173   3169   3172     1  0.0000000  1.6038667  3
   1621   1620   3173   3169     1  0.0000000  1.6038667  3
   1622   1620   3173   3169     1  0.0000000  1.6038667  3
   1624   1625   1637   1638     1  0.0000000  0.6508444  3
   1624   1625   1637   1639     1  0.0000000  0.6508444  3
   1624   1628   1640   1641     1  0.0000000  0.6508444  3
   1624   1628   1640   1642     1  0.0000000  0.6508444  3
   1624   1631   1634   1635     1  0.0000000  0.6508444  3
   1624   1631   1634   1636     1  0.0000000  0.6508444  3
   1625   1624   1628   1629     1  0.0000000  1.2552000  3
   1625   1624   1628   1630     1  0.0000000  1.2552000  3
   1625   1624   1631   1632     1  0.0000000  1.2552000  3
   1625   1624   1631   1633     1  0.0000000  1.2552000  3
   1625   1637   1649   1650     1  0.0000000  0.6508444  3
   1625   1637   1649   1651     1  0.0000000  0.6508444  3
   1626   1625   1624   1628     1  0.0000000  1.2552000  3
   1626   1625   1624   1631     1  0.0000000  1.2552000  3
   1626   1625   1637   1649     1  0.0000000  0.6508444  3
   1626   1625   1637   1638     1  0.0000000  0.6508444  3
   1626   1625   1637   1639     1  0.0000000  0.6508444  3
   1627   1625   1624   1628     1  0.0000000  1.2552000  3
   1627   1625   1624   1631     1  0.0000000  1.2552000  3
   1627   1625   1637   1649     1  0.0000000  0.6508444  3
   1627   1625   1637   1638     1  0.0000000  0.6508444  3
   1627   1625   1637   1639     1  0.0000000  0.6508444  3
   1628   1624   1631   1632     1  0.0000000  1.2552000  3
   1628   1624   1631   1633     1  0.0000000  1.2552000  3
   1628   1640   1646   1647     1  0.0000000  0.6508444  3
   1628   1640   1646   1648     1  0.0000000  0.6508444  3
   1629   1628   1624   1631     1  0.0000000  1.2552000  3
   1629   1628   1640   1646     1  0.0000000  0.6508444  3
   1629   1628   1640   1641     1  0.0000000  0.6508444  3
   1629   1628   1640   1642     1  0.0000000  0.6508444  3
   1630   1628   1624   1631     1  0.0000000  1.2552000  3
   1630   1628   1640   1646     1  0.0000000  0.6508444  3
   1630   1628   1640   1641     1  0.0000000  0.6508444  3
   1630   1628   1640   1642     1  0.0000000  0.6508444  3
   1631   1634   1643   1644     1  0.0000000  0.6508444  3
   1631   1634   1643   1645     1  0.0000000  0.6508444  3
   1632   1631   1634   1643     1  0.0000000  0.6508444  3
   1632   1631   1634   1635     1  0.0000000  0.6508444  3
   1632   1631   1634   1636     1  0.0000000  0.6508444  3
   1633   1631   1634   1643     1  0.0000000  0.6508444  3
   1633   1631   1634   1635     1  0.0000000  0.6508444  3
   1633   1631   1634   1636     1  0.0000000  0.6508444  3
   1635   1634   1643   1652     1  0.0000000  1.0460000  1
   1635   1634   1643   1652     1  0.0000000  0.0000000  3
   1635   1634   1643   1644     1  0.0000000  0.6508444  3
   1635   1634   1643   1645     1  0.0000000  0.6508444  3
   1636   1634   1643   1652     1  0.0000000  1.0460000  1
   1636   1634   1643   1652     1  0.0000000  0.0000000  3
   1636   1634   1643   1644     1  0.0000000  0.6508444  3
   1636   1634   1643   1645     1  0.0000000  0.6508444  3
   1638   1637   1649   3219     1  0.0000000  1.0460000  1
   1638   1637   1649   3219     1  0.0000000  0.0000000  3
   1638   1637   1649   1650     1  0.0000000  0.6508444  3
   1638   1637   1649   1651     1  0.0000000  0.6508444  3
   1639   1637   1649   3219     1  0.0000000  1.0460000  1
   1639   1637   1649   3219     1  0.0000000  0.0000000  3
   1639   1637   1649   1650     1  0.0000000  0.6508444  3
   1639   1637   1649   1651     1  0.0000000  0.6508444  3
   1641   1640   1646   3196     1  0.0000000  1.0460000  1
   1641   1640   1646   3196     1  0.0000000  0.0000000  3
   1641   1640   1646   1647     1  0.0000000  0.6508444  3
   1641   1640   1646   1648     1  0.0000000  0.6508444  3
   1642   1640   1646   3196     1  0.0000000  1.0460000  1
   1642   1640   1646   3196     1  0.0000000  0.0000000  3
   1642   1640   1646   1647     1  0.0000000  0.6508444  3
   1642   1640   1646   1648     1  0.0000000  0.6508444  3
   1646   3196   3192   3195     1  0.0000000  1.6038667  3
   1647   1646   3196   3192     1  0.0000000  1.6038667  3
   1648   1646   3196   3192     1  0.0000000  1.6038667  3
   1649   3219   3215   3218     1  0.0000000  1.6038667  3
   1650   1649   3219   3215     1  0.0000000  1.6038667  3
   1651   1649   3219   3215     1  0.0000000  1.6038667  3
   1653   1654   1666   1667     1  0.0000000  0.6508444  3
   1653   1654   1666   1668     1  0.0000000  0.6508444  3
   1653   1657   1669   1670     1  0.0000000  0.6508444  3
   1653   1657   1669   1671     1  0.0000000  0.6508444  3
   1653   1660   1663   1664     1  0.0000000  0.6508444  3
   1653   1660   1663   1665     1  0.0000000  0.6508444  3
   1654   1653   1657   1658     1  0.0000000  1.2552000  3
   1654   1653   1657   1659     1  0.0000000  1.2552000  3
   1654   1653   1660   1661     1  0.0000000  1.2552000  3
   1654   1653   1660   1662     1  0.0000000  1.2552000  3
   1654   1666   1678   1679     1  0.0000000  0.6508444  3
   1654   1666   1678   1680     1  0.0000000  0.6508444  3
   1655   1654   1653   1657     1  0.0000000  1.2552000  3
   1655   1654   1653   1660     1  0.0000000  1.2552000  3
   1655   1654   1666   1678     1  0.0000000  0.6508444  3
   1655   1654   1666   1667     1  0.0000000  0.6508444  3
   1655   1654   1666   1668     1  0.0000000  0.6508444  3
   1656   1654   1653   1657     1  0.0000000  1.2552000  3
   1656   1654   1653   1660     1  0.0000000  1.2552000  3
   1656   1654   1666   1678     1  0.0000000  0.6508444  3
   1656   1654   1666   1667     1  0.0000000  0.6508444  3
   1656   1654   1666   1668     1  0.0000000  0.6508444  3
   1657   1653   1660   1661     1  0.0000000  1.2552000  3
   1657   1653   1660   1662     1  0.0000000  1.2552000  3
   1657   1669   1675   1676     1  0.0000000  0.6508444  3
   1657   1669   1675   1677     1  0.0000000  0.6508444  3
   1658   1657   1653   1660     1  0.0000000  1.2552000  3
   1658   1657   1669   1675     1  0.0000000  0.6508444  3
   1658   1657   1669   1670     1  0.0000000  0.6508444  3
   1658   1657   1669   1671     1  0.0000000  0.6508444  3
   1659   1657   1653   1660     1  0.0000000  1.2552000  3
   1659   1657   1669   1675     1  0.0000000  0.6508444  3
   1659   1657   1669   1670     1  0.0000000  0.6508444  3
   1659   1657   1669   1671     1  0.0000000  0.6508444  3
   1660   1663   1672   1673     1  0.0000000  0.6508444  3
   1660   1663   1672   1674     1  0.0000000  0.6508444  3
   1661   1660   1663   1672     1  0.0000000  0.6508444  3
   1661   1660   1663   1664     1  0.0000000  0.6508444  3
   1661   1660   1663   1665     1  0.0000000  0.6508444  3
   1662   1660   1663   1672     1  0.0000000  0.6508444  3
   1662   1660   1663   1664     1  0.0000000  0.6508444  3
   1662   1660   1663   1665     1  0.0000000  0.6508444  3
   1664   1663   1672   1681     1  0.0000000  1.0460000  1
   1664   1663   1672   1681     1  0.0000000  0.0000000  3
   1664   1663   1672   1673     1  0.0000000  0.6508444  3
   1664   1663   1672   1674     1  0.0000000  0.6508444  3
   1665   1663   1672   1681     1  0.0000000  1.0460000  1
   1665   1663   1672   1681     1  0.0000000  0.0000000  3
   1665   1663   1672   1673     1  0.0000000  0.6508444  3
   1665   1663   1672   1674     1  0.0000000  0.6508444  3
   1667   1666   1678   3265     1  0.0000000  1.0460000  1
   1667   1666   1678   3265     1  0.0000000  0.0000000  3
   1667   1666   1678   1679     1  0.0000000  0.6508444  3
   1667   1666   1678   1680     1  0.0000000  0.6508444  3
   1668   1666   1678   3265     1  0.0000000  1.0460000  1
   1668   1666   1678   3265     1  0.0000000  0.0000000  3
   1668   1666   1678   1679     1  0.0000000  0.6508444  3
   1668   1666   1678   1680     1  0.0000000  0.6508444  3
   1670   1669   1675   3242     1  0.0000000  1.0460000  1
   1670   1669   1675   3242     1  0.0000000  0.0000000  3
   1670   1669   1675   1676     1  0.0000000  0.6508444  3
   1670   1669   1675   1677     1  0.0000000  0.6508444  3
   1671   1669   1675   3242     1  0.0000000  1.0460000  1
   1671   1669   1675   3242     1  0.0000000  0.0000000  3
   1671   1669   1675   1676     1  0.0000000  0.6508444  3
   1671   1669   1675   1677     1  0.0000000  0.6508444  3
   1675   3242   3238   3241     1  0.0000000  1.6038667  3
   1676   1675   3242   3238     1  0.0000000  1.6038667  3
   1677   1675   3242   3238     1  0.0000000  1.6038667  3
   1678   3265   3261   3264     1  0.0000000  1.6038667  3
   1679   1678   3265   3261     1  0.0000000  1.6038667  3
   1680   1678   3265   3261     1  0.0000000  1.6038667  3
   1682   1683   1695   1696     1  0.0000000  0.6508444  3
   1682   1683   1695   1697     1  0.0000000  0.6508444  3
   1682   1686   1698   1699     1  0.0000000  0.6508444  3
   1682   1686   1698   1700     1  0.0000000  0.6508444  3
   1682   1689   1692   1693     1  0.0000000  0.6508444  3
   1682   1689   1692   1694     1  0.0000000  0.6508444  3
   1683   1682   1686   1687     1  0.0000000  1.2552000  3
   1683   1682   1686   1688     1  0.0000000  1.2552000  3
   1683   1682   1689   1690     1  0.0000000  1.2552000  3
   1683   1682   1689   1691     1  0.0000000  1.2552000  3
   1683   1695   1707   1708     1  0.0000000  0.6508444  3
   1683   1695   1707   1709     1  0.0000000  0.6508444  3
   1684   1683   1682   1686     1  0.0000000  1.2552000  3
   1684   1683   1682   1689     1  0.0000000  1.2552000  3
   1684   1683   1695   1707     1  0.0000000  0.6508444  3
   1684   1683   1695   1696     1  0.0000000  0.6508444  3
   1684   1683   1695   1697     1  0.0000000  0.6508444  3
   1685   1683   1682   1686     1  0.0000000  1.2552000  3
   1685   1683   1682   1689     1  0.0000000  1.2552000  3
   1685   1683   1695   1707     1  0.0000000  0.6508444  3
   1685   1683   1695   1696     1  0.0000000  0.6508444  3
   1685   1683   1695   1697     1  0.0000000  0.6508444  3
   1686   1682   1689   1690     1  0.0000000  1.2552000  3
   1686   1682   1689   1691     1  0.0000000  1.2552000  3
   1686   1698   1704   1705     1  0.0000000  0.6508444  3
   1686   1698   1704   1706     1  0.0000000  0.6508444  3
   1687   1686   1682   1689     1  0.0000000  1.2552000  3
   1687   1686   1698   1704     1  0.0000000  0.6508444  3
   1687   1686   1698   1699     1  0.0000000  0.6508444  3
   1687   1686   1698   1700     1  0.0000000  0.6508444  3
   1688   1686   1682   1689     1  0.0000000  1.2552000  3
   1688   1686   1698   1704     1  0.0000000  0.6508444  3
   1688   1686   1698   1699     1  0.0000000  0.6508444  3
   1688   1686   1698   1700     1  0.0000000  0.6508444  3
   1689   1692   1701   1702     1  0.0000000  0.6508444  3
   1689   1692   1701   1703     1  0.0000000  0.6508444  3
   1690   1689   1692   1701     1  0.0000000  0.6508444  3
   1690   1689   1692   1693     1  0.0000000  0.6508444  3
   1690   1689   1692   1694     1  0.0000000  0.6508444  3
   1691   1689   1692   1701     1  0.0000000  0.6508444  3
   1691   1689   1692   1693     1  0.0000000  0.6508444  3
   1691   1689   1692   1694     1  0.0000000  0.6508444  3
   1693   1692   1701   1710     1  0.0000000  1.0460000  1
   1693   1692   1701   1710     1  0.0000000  0.0000000  3
   1693   1692   1701   1702     1  0.0000000  0.6508444  3
   1693   1692   1701   1703     1  0.0000000  0.6508444  3
   1694   1692   1701   1710     1  0.0000000  1.0460000  1
   1694   1692   1701   1710     1  0.0000000  0.0000000  3
   1694   1692   1701   1702     1  0.0000000  0.6508444  3
   1694   1692   1701   1703     1  0.0000000  0.6508444  3
   1696   1695   1707   3311     1  0.0000000  1.0460000  1
   1696   1695   1707   3311     1  0.0000000  0.0000000  3
   1696   1695   1707   1708     1  0.0000000  0.6508444  3
   1696   1695   1707   1709     1  0.0000000  0.6508444  3
   1697   1695   1707   3311     1  0.0000000  1.0460000  1
   1697   1695   1707   3311     1  0.0000000  0.0000000  3
   1697   1695   1707   1708     1  0.0000000  0.6508444  3
   1697   1695   1707   1709     1  0.0000000  0.6508444  3
   1699   1698   1704   3288     1  0.0000000  1.0460000  1
   1699   1698   1704   3288     1  0.0000000  0.0000000  3
   1699   1698   1704   1705     1  0.0000000  0.6508444  3
   1699   1698   1704   1706     1  0.0000000  0.6508444  3
   1700   1698   1704   3288     1  0.0000000  1.0460000  1
   1700   1698   1704   3288     1  0.0000000  0.0000000  3
   1700   1698   1704   1705     1  0.0000000  0.6508444  3
   1700   1698   1704   1706     1  0.0000000  0.6508444  3
   1704   3288   3284   3287     1  0.0000000  1.6038667  3
   1705   1704   3288   3284     1  0.0000000  1.6038667  3
   1706   1704   3288   3284     1  0.0000000  1.6038667  3
   1707   3311   3307   3310     1  0.0000000  1.6038667  3
   1708   1707   3311   3307     1  0.0000000  1.6038667  3
   1709   1707   3311   3307     1  0.0000000  1.6038667  3
   1711   1712   1724   1725     1  0.0000000  0.6508444  3
   1711   1712   1724   1726     1  0.0000000  0.6508444  3
   1711   1715   1727   1728     1  0.0000000  0.6508444  3
   1711   1715   1727   1729     1  0.0000000  0.6508444  3
   1711   1718   1721   1722     1  0.0000000  0.6508444  3
   1711   1718   1721   1723     1  0.0000000  0.6508444  3
   1712   1711   1715   1716     1  0.0000000  1.2552000  3
   1712   1711   1715   1717     1  0.0000000  1.2552000  3
   1712   1711   1718   1719     1  0.0000000  1.2552000  3
   1712   1711   1718   1720     1  0.0000000  1.2552000  3
   1712   1724   1736   1737     1  0.0000000  0.6508444  3
   1712   1724   1736   1738     1  0.0000000  0.6508444  3
   1713   1712   1711   1715     1  0.0000000  1.2552000  3
   1713   1712   1711   1718     1  0.0000000  1.2552000  3
   1713   1712   1724   1736     1  0.0000000  0.6508444  3
   1713   1712   1724   1725     1  0.0000000  0.6508444  3
   1713   1712   1724   1726     1  0.0000000  0.6508444  3
   1714   1712   1711   1715     1  0.0000000  1.2552000  3
   1714   1712   1711   1718     1  0.0000000  1.2552000  3
   1714   1712   1724   1736     1  0.0000000  0.6508444  3
   1714   1712   1724   1725     1  0.0000000  0.6508444  3
   1714   1712   1724   1726     1  0.0000000  0.6508444  3
   1715   1711   1718   1719     1  0.0000000  1.2552000  3
   1715   1711   1718   1720     1  0.0000000  1.2552000  3
   1715   1727   1733   1734     1  0.0000000  0.6508444  3
   1715   1727   1733   1735     1  0.0000000  0.6508444  3
   1716   1715   1711   1718     1  0.0000000  1.2552000  3
   1716   1715   1727   1733     1  0.0000000  0.6508444  3
   1716   1715   1727   1728     1  0.0000000  0.6508444  3
   1716   1715   1727   1729     1  0.0000000  0.6508444  3
   1717   1715   1711   1718     1  0.0000000  1.2552000  3
   1717   1715   1727   1733     1  0.0000000  0.6508444  3
   1717   1715   1727   1728     1  0.0000000  0.6508444  3
   1717   1715   1727   1729     1  0.0000000  0.6508444  3
   1718   1721   1730   1731     1  0.0000000  0.6508444  3
   1718   1721   1730   1732     1  0.0000000  0.6508444  3
   1719   1718   1721   1730     1  0.0000000  0.6508444  3
   1719   1718   1721   1722     1  0.0000000  0.6508444  3
   1719   1718   1721   1723     1  0.0000000  0.6508444  3
   1720   1718   1721   1730     1  0.0000000  0.6508444  3
   1720   1718   1721   1722     1  0.0000000  0.6508444  3
   1720   1718   1721   1723     1  0.0000000  0.6508444  3
   1722   1721   1730   1739     1  0.0000000  1.0460000  1
   1722   1721   1730   1739     1  0.0000000  0.0000000  3
   1722   1721   1730   1731     1  0.0000000  0.6508444  3
   1722   1721   1730   1732     1  0.0000000  0.6508444  3
   1723   1721   1730   1739     1  0.0000000  1.0460000  1
   1723   1721   1730   1739     1  0.0000000  0.0000000  3
   1723   1721   1730   1731     1  0.0000000  0.6508444  3
   1723   1721   1730   1732     1  0.0000000  0.6508444  3
   1725   1724   1736   3357     1  0.0000000  1.0460000  1
   1725   1724   1736   3357     1  0.0000000  0.0000000  3
   1725   1724   1736   1737     1  0.0000000  0.6508444  3
   1725   1724   1736   1738     1  0.0000000  0.6508444  3
   1726   1724   1736   3357     1  0.0000000  1.0460000  1
   1726   1724   1736   3357     1  0.0000000  0.0000000  3
   1726   1724   1736   1737     1  0.0000000  0.6508444  3
   1726   1724   1736   1738     1  0.0000000  0.6508444  3
   1728   1727   1733   3334     1  0.0000000  1.0460000  1
   1728   1727   1733   3334     1  0.0000000  0.0000000  3
   1728   1727   1733   1734     1  0.0000000  0.6508444  3
   1728   1727   1733   1735     1  0.0000000  0.6508444  3
   1729   1727   1733   3334     1  0.0000000  1.0460000  1
   1729   1727   1733   3334     1  0.0000000  0.0000000  3
   1729   1727   1733   1734     1  0.0000000  0.6508444  3
   1729   1727   1733   1735     1  0.0000000  0.6508444  3
   1733   3334   3330   3333     1  0.0000000  1.6038667  3
   1734   1733   3334   3330     1  0.0000000  1.6038667  3
   1735   1733   3334   3330     1  0.0000000  1.6038667  3
   1736   3357   3353   3356     1  0.0000000  1.6038667  3
   1737   1736   3357   3353     1  0.0000000  1.6038667  3
   1738   1736   3357   3353     1  0.0000000  1.6038667  3
   1740   1741   1753   1754     1  0.0000000  0.6508444  3
   1740   1741   1753   1755     1  0.0000000  0.6508444  3
   1740   1744   1756   1757     1  0.0000000  0.6508444  3
   1740   1744   1756   1758     1  0.0000000  0.6508444  3
   1740   1747   1750   1751     1  0.0000000  0.6508444  3
   1740   1747   1750   1752     1  0.0000000  0.6508444  3
   1741   1740   1744   1745     1  0.0000000  1.2552000  3
   1741   1740   1744   1746     1  0.0000000  1.2552000  3
   1741   1740   1747   1748     1  0.0000000  1.2552000  3
   1741   1740   1747   1749     1  0.0000000  1.2552000  3
   1741   1753   1765   1766     1  0.0000000  0.6508444  3
   1741   1753   1765   1767     1  0.0000000  0.6508444  3
   1742   1741   1740   1744     1  0.0000000  1.2552000  3
   1742   1741   1740   1747     1  0.0000000  1.2552000  3
   1742   1741   1753   1765     1  0.0000000  0.6508444  3
   1742   1741   1753   1754     1  0.0000000  0.6508444  3
   1742   1741   1753   1755     1  0.0000000  0.6508444  3
   1743   1741   1740   1744     1  0.0000000  1.2552000  3
   1743   1741   1740   1747     1  0.0000000  1.2552000  3
   1743   1741   1753   1765     1  0.0000000  0.6508444  3
   1743   1741   1753   1754     1  0.0000000  0.6508444  3
   1743   1741   1753   1755     1  0.0000000  0.6508444  3
   1744   1740   1747   1748     1  0.0000000  1.2552000  3
   1744   1740   1747   1749     1  0.0000000  1.2552000  3
   1744   1756   1762   1763     1  0.0000000  0.6508444  3
   1744   1756   1762   1764     1  0.0000000  0.6508444  3
   1745   1744   1740   1747     1  0.0000000  1.2552000  3
   1745   1744   1756   1762     1  0.0000000  0.6508444  3
   1745   1744   1756   1757     1  0.0000000  0.6508444  3
   1745   1744   1756   1758     1  0.0000000  0.6508444  3
   1746   1744   1740   1747     1  0.0000000  1.2552000  3
   1746   1744   1756   1762     1  0.0000000  0.6508444  3
   1746   1744   1756   1757     1  0.0000000  0.6508444  3
   1746   1744   1756   1758     1  0.0000000  0.6508444  3
   1747   1750   1759   1760     1  0.0000000  0.6508444  3
   1747   1750   1759   1761     1  0.0000000  0.6508444  3
   1748   1747   1750   1759     1  0.0000000  0.6508444  3
   1748   1747   1750   1751     1  0.0000000  0.6508444  3
   1748   1747   1750   1752     1  0.0000000  0.6508444  3
   1749   1747   1750   1759     1  0.0000000  0.6508444  3
   1749   1747   1750   1751     1  0.0000000  0.6508444  3
   1749   1747   1750   1752     1  0.0000000  0.6508444  3
   1751   1750   1759   1768     1  0.0000000  1.0460000  1
   1751   1750   1759   1768     1  0.0000000  0.0000000  3
   1751   1750   1759   1760     1  0.0000000  0.6508444  3
   1751   1750   1759   1761     1  0.0000000  0.6508444  3
   1752   1750   1759   1768     1  0.0000000  1.0460000  1
   1752   1750   1759   1768     1  0.0000000  0.0000000  3
   1752   1750   1759   1760     1  0.0000000  0.6508444  3
   1752   1750   1759   1761     1  0.0000000  0.6508444  3
   1754   1753   1765   3403     1  0.0000000  1.0460000  1
   1754   1753   1765   3403     1  0.0000000  0.0000000  3
   1754   1753   1765   1766     1  0.0000000  0.6508444  3
   1754   1753   1765   1767     1  0.0000000  0.6508444  3
   1755   1753   1765   3403     1  0.0000000  1.0460000  1
   1755   1753   1765   3403     1  0.0000000  0.0000000  3
   1755   1753   1765   1766     1  0.0000000  0.6508444  3
   1755   1753   1765   1767     1  0.0000000  0.6508444  3
   1757   1756   1762   3380     1  0.0000000  1.0460000  1
   1757   1756   1762   3380     1  0.0000000  0.0000000  3
   1757   1756   1762   1763     1  0.0000000  0.6508444  3
   1757   1756   1762   1764     1  0.0000000  0.6508444  3
   1758   1756   1762   3380     1  0.0000000  1.0460000  1
   1758   1756   1762   3380     1  0.0000000  0.0000000  3
   1758   1756   1762   1763     1  0.0000000  0.6508444  3
   1758   1756   1762   1764     1  0.0000000  0.6508444  3
   1762   3380   3376   3379     1  0.0000000  1.6038667  3
   1763   1762   3380   3376     1  0.0000000  1.6038667  3
   1764   1762   3380   3376     1  0.0000000  1.6038667  3
   1765   3403   3399   3402     1  0.0000000  1.6038667  3
   1766   1765   3403   3399     1  0.0000000  1.6038667  3
   1767   1765   3403   3399     1  0.0000000  1.6038667  3
   1769   1770   1782   1783     1  0.0000000  0.6508444  3
   1769   1770   1782   1784     1  0.0000000  0.6508444  3
   1769   1773   1785   1786     1  0.0000000  0.6508444  3
   1769   1773   1785   1787     1  0.0000000  0.6508444  3
   1769   1776   1779   1780     1  0.0000000  0.6508444  3
   1769   1776   1779   1781     1  0.0000000  0.6508444  3
   1770   1769   1773   1774     1  0.0000000  1.2552000  3
   1770   1769   1773   1775     1  0.0000000  1.2552000  3
   1770   1769   1776   1777     1  0.0000000  1.2552000  3
   1770   1769   1776   1778     1  0.0000000  1.2552000  3
   1770   1782   1794   1795     1  0.0000000  0.6508444  3
   1770   1782   1794   1796     1  0.0000000  0.6508444  3
   1771   1770   1769   1773     1  0.0000000  1.2552000  3
   1771   1770   1769   1776     1  0.0000000  1.2552000  3
   1771   1770   1782   1794     1  0.0000000  0.6508444  3
   1771   1770   1782   1783     1  0.0000000  0.6508444  3
   1771   1770   1782   1784     1  0.0000000  0.6508444  3
   1772   1770   1769   1773     1  0.0000000  1.2552000  3
   1772   1770   1769   1776     1  0.0000000  1.2552000  3
   1772   1770   1782   1794     1  0.0000000  0.6508444  3
   1772   1770   1782   1783     1  0.0000000  0.6508444  3
   1772   1770   1782   1784     1  0.0000000  0.6508444  3
   1773   1769   1776   1777     1  0.0000000  1.2552000  3
   1773   1769   1776   1778     1  0.0000000  1.2552000  3
   1773   1785   1791   1792     1  0.0000000  0.6508444  3
   1773   1785   1791   1793     1  0.0000000  0.6508444  3
   1774   1773   1769   1776     1  0.0000000  1.2552000  3
   1774   1773   1785   1791     1  0.0000000  0.6508444  3
   1774   1773   1785   1786     1  0.0000000  0.6508444  3
   1774   1773   1785   1787     1  0.0000000  0.6508444  3
   1775   1773   1769   1776     1  0.0000000  1.2552000  3
   1775   1773   1785   1791     1  0.0000000  0.6508444  3
   1775   1773   1785   1786     1  0.0000000  0.6508444  3
   1775   1773   1785   1787     1  0.0000000  0.6508444  3
   1776   1779   1788   1789     1  0.0000000  0.6508444  3
   1776   1779   1788   1790     1  0.0000000  0.6508444  3
   1777   1776   1779   1788     1  0.0000000  0.6508444  3
   1777   1776   1779   1780     1  0.0000000  0.6508444  3
   1777   1776   1779   1781     1  0.0000000  0.6508444  3
   1778   1776   1779   1788     1  0.0000000  0.6508444  3
   1778   1776   1779   1780     1  0.0000000  0.6508444  3
   1778   1776   1779   1781     1  0.0000000  0.6508444  3
   1780   1779   1788   1797     1  0.0000000  1.0460000  1
   1780   1779   1788   1797     1  0.0000000  0.0000000  3
   1780   1779   1788   1789     1  0.0000000  0.6508444  3
   1780   1779   1788   1790     1  0.0000000  0.6508444  3
   1781   1779   1788   1797     1  0.0000000  1.0460000  1
   1781   1779   1788   1797     1  0.0000000  0.0000000  3
   1781   1779   1788   1789     1  0.0000000  0.6508444  3
   1781   1779   1788   1790     1  0.0000000  0.6508444  3
   1783   1782   1794   3449     1  0.0000000  1.0460000  1
   1783   1782   1794   3449     1  0.0000000  0.0000000  3
   1783   1782   1794   1795     1  0.0000000  0.6508444  3
   1783   1782   1794   1796     1  0.0000000  0.6508444  3
   1784   1782   1794   3449     1  0.0000000  1.0460000  1
   1784   1782   1794   3449     1  0.0000000  0.0000000  3
   1784   1782   1794   1795     1  0.0000000  0.6508444  3
   1784   1782   1794   1796     1  0.0000000  0.6508444  3
   1786   1785   1791   3426     1  0.0000000  1.0460000  1
   1786   1785   1791   3426     1  0.0000000  0.0000000  3
   1786   1785   1791   1792     1  0.0000000  0.6508444  3
   1786   1785   1791   1793     1  0.0000000  0.6508444  3
   1787   1785   1791   3426     1  0.0000000  1.0460000  1
   1787   1785   1791   3426     1  0.0000000  0.0000000  3
   1787   1785   1791   1792     1  0.0000000  0.6508444  3
   1787   1785   1791   1793     1  0.0000000  0.6508444  3
   1791   3426   3422   3425     1  0.0000000  1.6038667  3
   1792   1791   3426   3422     1  0.0000000  1.6038667  3
   1793   1791   3426   3422     1  0.0000000  1.6038667  3
   1794   3449   3445   3448     1  0.0000000  1.6038667  3
   1795   1794   3449   3445     1  0.0000000  1.6038667  3
   1796   1794   3449   3445     1  0.0000000  1.6038667  3
   1798   1799   1811   1812     1  0.0000000  0.6508444  3
   1798   1799   1811   1813     1  0.0000000  0.6508444  3
   1798   1802   1814   1815     1  0.0000000  0.6508444  3
   1798   1802   1814   1816     1  0.0000000  0.6508444  3
   1798   1805   1808   1809     1  0.0000000  0.6508444  3
   1798   1805   1808   1810     1  0.0000000  0.6508444  3
   1799   1798   1802   1803     1  0.0000000  1.2552000  3
   1799   1798   1802   1804     1  0.0000000  1.2552000  3
   1799   1798   1805   1806     1  0.0000000  1.2552000  3
   1799   1798   1805   1807     1  0.0000000  1.2552000  3
   1799   1811   1823   1824     1  0.0000000  0.6508444  3
   1799   1811   1823   1825     1  0.0000000  0.6508444  3
   1800   1799   1798   1802     1  0.0000000  1.2552000  3
   1800   1799   1798   1805     1  0.0000000  1.2552000  3
   1800   1799   1811   1823     1  0.0000000  0.6508444  3
   1800   1799   1811   1812     1  0.0000000  0.6508444  3
   1800   1799   1811   1813     1  0.0000000  0.6508444  3
   1801   1799   1798   1802     1  0.0000000  1.2552000  3
   1801   1799   1798   1805     1  0.0000000  1.2552000  3
   1801   1799   1811   1823     1  0.0000000  0.6508444  3
   1801   1799   1811   1812     1  0.0000000  0.6508444  3
   1801   1799   1811   1813     1  0.0000000  0.6508444  3
   1802   1798   1805   1806     1  0.0000000  1.2552000  3
   1802   1798   1805   1807     1  0.0000000  1.2552000  3
   1802   1814   1820   1821     1  0.0000000  0.6508444  3
   1802   1814   1820   1822     1  0.0000000  0.6508444  3
   1803   1802   1798   1805     1  0.0000000  1.2552000  3
   1803   1802   1814   1820     1  0.0000000  0.6508444  3
   1803   1802   1814   1815     1  0.0000000  0.6508444  3
   1803   1802   1814   1816     1  0.0000000  0.6508444  3
   1804   1802   1798   1805     1  0.0000000  1.2552000  3
   1804   1802   1814   1820     1  0.0000000  0.6508444  3
   1804   1802   1814   1815     1  0.0000000  0.6508444  3
   1804   1802   1814   1816     1  0.0000000  0.6508444  3
   1805   1808   1817   1818     1  0.0000000  0.6508444  3
   1805   1808   1817   1819     1  0.0000000  0.6508444  3
   1806   1805   1808   1817     1  0.0000000  0.6508444  3
   1806   1805   1808   1809     1  0.0000000  0.6508444  3
   1806   1805   1808   1810     1  0.0000000  0.6508444  3
   1807   1805   1808   1817     1  0.0000000  0.6508444  3
   1807   1805   1808   1809     1  0.0000000  0.6508444  3
   1807   1805   1808   1810     1  0.0000000  0.6508444  3
   1809   1808   1817   1826     1  0.0000000  1.0460000  1
   1809   1808   1817   1826     1  0.0000000  0.0000000  3
   1809   1808   1817   1818     1  0.0000000  0.6508444  3
   1809   1808   1817   1819     1  0.0000000  0.6508444  3
   1810   1808   1817   1826     1  0.0000000  1.0460000  1
   1810   1808   1817   1826     1  0.0000000  0.0000000  3
   1810   1808   1817   1818     1  0.0000000  0.6508444  3
   1810   1808   1817   1819     1  0.0000000  0.6508444  3
   1812   1811   1823   3495     1  0.0000000  1.0460000  1
   1812   1811   1823   3495     1  0.0000000  0.0000000  3
   1812   1811   1823   1824     1  0.0000000  0.6508444  3
   1812   1811   1823   1825     1  0.0000000  0.6508444  3
   1813   1811   1823   3495     1  0.0000000  1.0460000  1
   1813   1811   1823   3495     1  0.0000000  0.0000000  3
   1813   1811   1823   1824     1  0.0000000  0.6508444  3
   1813   1811   1823   1825     1  0.0000000  0.6508444  3
   1815   1814   1820   3472     1  0.0000000  1.0460000  1
   1815   1814   1820   3472     1  0.0000000  0.0000000  3
   1815   1814   1820   1821     1  0.0000000  0.6508444  3
   1815   1814   1820   1822     1  0.0000000  0.6508444  3
   1816   1814   1820   3472     1  0.0000000  1.0460000  1
   1816   1814   1820   3472     1  0.0000000  0.0000000  3
   1816   1814   1820   1821     1  0.0000000  0.6508444  3
   1816   1814   1820   1822     1  0.0000000  0.6508444  3
   1820   3472   3468   3471     1  0.0000000  1.6038667  3
   1821   1820   3472   3468     1  0.0000000  1.6038667  3
   1822   1820   3472   3468     1  0.0000000  1.6038667  3
   1823   3495   3491   3494     1  0.0000000  1.6038667  3
   1824   1823   3495   3491     1  0.0000000  1.6038667  3
   1825   1823   3495   3491     1  0.0000000  1.6038667  3
   1827   1828   1840   1841     1  0.0000000  0.6508444  3
   1827   1828   1840   1842     1  0.0000000  0.6508444  3
   1827   1831   1843   1844     1  0.0000000  0.6508444  3
   1827   1831   1843   1845     1  0.0000000  0.6508444  3
   1827   1834   1837   1838     1  0.0000000  0.6508444  3
   1827   1834   1837   1839     1  0.0000000  0.6508444  3
   1828   1827   1831   1832     1  0.0000000  1.2552000  3
   1828   1827   1831   1833     1  0.0000000  1.2552000  3
   1828   1827   1834   1835     1  0.0000000  1.2552000  3
   1828   1827   1834   1836     1  0.0000000  1.2552000  3
   1828   1840   1852   1853     1  0.0000000  0.6508444  3
   1828   1840   1852   1854     1  0.0000000  0.6508444  3
   1829   1828   1827   1831     1  0.0000000  1.2552000  3
   1829   1828   1827   1834     1  0.0000000  1.2552000  3
   1829   1828   1840   1852     1  0.0000000  0.6508444  3
   1829   1828   1840   1841     1  0.0000000  0.6508444  3
   1829   1828   1840   1842     1  0.0000000  0.6508444  3
   1830   1828   1827   1831     1  0.0000000  1.2552000  3
   1830   1828   1827   1834     1  0.0000000  1.2552000  3
   1830   1828   1840   1852     1  0.0000000  0.6508444  3
   1830   1828   1840   1841     1  0.0000000  0.6508444  3
   1830   1828   1840   1842     1  0.0000000  0.6508444  3
   1831   1827   1834   1835     1  0.0000000  1.2552000  3
   1831   1827   1834   1836     1  0.0000000  1.2552000  3
   1831   1843   1849   1850     1  0.0000000  0.6508444  3
   1831   1843   1849   1851     1  0.0000000  0.6508444  3
   1832   1831   1827   1834     1  0.0000000  1.2552000  3
   1832   1831   1843   1849     1  0.0000000  0.6508444  3
   1832   1831   1843   1844     1  0.0000000  0.6508444  3
   1832   1831   1843   1845     1  0.0000000  0.6508444  3
   1833   1831   1827   1834     1  0.0000000  1.2552000  3
   1833   1831   1843   1849     1  0.0000000  0.6508444  3
   1833   1831   1843   1844     1  0.0000000  0.6508444  3
   1833   1831   1843   1845     1  0.0000000  0.6508444  3
   1834   1837   1846   1847     1  0.0000000  0.6508444  3
   1834   1837   1846   1848     1  0.0000000  0.6508444  3
   1835   1834   1837   1846     1  0.0000000  0.6508444  3
   1835   1834   1837   1838     1  0.0000000  0.6508444  3
   1835   1834   1837   1839     1  0.0000000  0.6508444  3
   1836   1834   1837   1846     1  0.0000000  0.6508444  3
   1836   1834   1837   1838     1  0.0000000  0.6508444  3
   1836   1834   1837   1839     1  0.0000000  0.6508444  3
   1838   1837   1846   1855     1  0.0000000  1.0460000  1
   1838   1837   1846   1855     1  0.0000000  0.0000000  3
   1838   1837   1846   1847     1  0.0000000  0.6508444  3
   1838   1837   1846   1848     1  0.0000000  0.6508444  3
   1839   1837   1846   1855     1  0.0000000  1.0460000  1
   1839   1837   1846   1855     1  0.0000000  0.0000000  3
   1839   1837   1846   1847     1  0.0000000  0.6508444  3
   1839   1837   1846   1848     1  0.0000000  0.6508444  3
   1841   1840   1852   3541     1  0.0000000  1.0460000  1
   1841   1840   1852   3541     1  0.0000000  0.0000000  3
   1841   1840   1852   1853     1  0.0000000  0.6508444  3
   1841   1840   1852   1854     1  0.0000000  0.6508444  3
   1842   1840   1852   3541     1  0.0000000  1.0460000  1
   1842   1840   1852   3541     1  0.0000000  0.0000000  3
   1842   1840   1852   1853     1  0.0000000  0.6508444  3
   1842   1840   1852   1854     1  0.0000000  0.6508444  3
   1844   1843   1849   3518     1  0.0000000  1.0460000  1
   1844   1843   1849   3518     1  0.0000000  0.0000000  3
   1844   1843   1849   1850     1  0.0000000  0.6508444  3
   1844   1843   1849   1851     1  0.0000000  0.6508444  3
   1845   1843   1849   3518     1  0.0000000  1.0460000  1
   1845   1843   1849   3518     1  0.0000000  0.0000000  3
   1845   1843   1849   1850     1  0.0000000  0.6508444  3
   1845   1843   1849   1851     1  0.0000000  0.6508444  3
   1849   3518   3514   3517     1  0.0000000  1.6038667  3
   1850   1849   3518   3514     1  0.0000000  1.6038667  3
   1851   1849   3518   3514     1  0.0000000  1.6038667  3
   1852   3541   3537   3540     1  0.0000000  1.6038667  3
   1853   1852   3541   3537     1  0.0000000  1.6038667  3
   1854   1852   3541   3537     1  0.0000000  1.6038667  3
   1856   1857   1869   1870     1  0.0000000  0.6508444  3
   1856   1857   1869   1871     1  0.0000000  0.6508444  3
   1856   1860   1872   1873     1  0.0000000  0.6508444  3
   1856   1860   1872   1874     1  0.0000000  0.6508444  3
   1856   1863   1866   1867     1  0.0000000  0.6508444  3
   1856   1863   1866   1868     1  0.0000000  0.6508444  3
   1857   1856   1860   1861     1  0.0000000  1.2552000  3
   1857   1856   1860   1862     1  0.0000000  1.2552000  3
   1857   1856   1863   1864     1  0.0000000  1.2552000  3
   1857   1856   1863   1865     1  0.0000000  1.2552000  3
   1857   1869   1881   1882     1  0.0000000  0.6508444  3
   1857   1869   1881   1883     1  0.0000000  0.6508444  3
   1858   1857   1856   1860     1  0.0000000  1.2552000  3
   1858   1857   1856   1863     1  0.0000000  1.2552000  3
   1858   1857   1869   1881     1  0.0000000  0.6508444  3
   1858   1857   1869   1870     1  0.0000000  0.6508444  3
   1858   1857   1869   1871     1  0.0000000  0.6508444  3
   1859   1857   1856   1860     1  0.0000000  1.2552000  3
   1859   1857   1856   1863     1  0.0000000  1.2552000  3
   1859   1857   1869   1881     1  0.0000000  0.6508444  3
   1859   1857   1869   1870     1  0.0000000  0.6508444  3
   1859   1857   1869   1871     1  0.0000000  0.6508444  3
   1860   1856   1863   1864     1  0.0000000  1.2552000  3
   1860   1856   1863   1865     1  0.0000000  1.2552000  3
   1860   1872   1878   1879     1  0.0000000  0.6508444  3
   1860   1872   1878   1880     1  0.0000000  0.6508444  3
   1861   1860   1856   1863     1  0.0000000  1.2552000  3
   1861   1860   1872   1878     1  0.0000000  0.6508444  3
   1861   1860   1872   1873     1  0.0000000  0.6508444  3
   1861   1860   1872   1874     1  0.0000000  0.6508444  3
   1862   1860   1856   1863     1  0.0000000  1.2552000  3
   1862   1860   1872   1878     1  0.0000000  0.6508444  3
   1862   1860   1872   1873     1  0.0000000  0.6508444  3
   1862   1860   1872   1874     1  0.0000000  0.6508444  3
   1863   1866   1875   1876     1  0.0000000  0.6508444  3
   1863   1866   1875   1877     1  0.0000000  0.6508444  3
   1864   1863   1866   1875     1  0.0000000  0.6508444  3
   1864   1863   1866   1867     1  0.0000000  0.6508444  3
   1864   1863   1866   1868     1  0.0000000  0.6508444  3
   1865   1863   1866   1875     1  0.0000000  0.6508444  3
   1865   1863   1866   1867     1  0.0000000  0.6508444  3
   1865   1863   1866   1868     1  0.0000000  0.6508444  3
   1867   1866   1875   1884     1  0.0000000  1.0460000  1
   1867   1866   1875   1884     1  0.0000000  0.0000000  3
   1867   1866   1875   1876     1  0.0000000  0.6508444  3
   1867   1866   1875   1877     1  0.0000000  0.6508444  3
   1868   1866   1875   1884     1  0.0000000  1.0460000  1
   1868   1866   1875   1884     1  0.0000000  0.0000000  3
   1868   1866   1875   1876     1  0.0000000  0.6508444  3
   1868   1866   1875   1877     1  0.0000000  0.6508444  3
   1870   1869   1881   3587     1  0.0000000  1.0460000  1
   1870   1869   1881   3587     1  0.0000000  0.0000000  3
   1870   1869   1881   1882     1  0.0000000  0.6508444  3
   1870   1869   1881   1883     1  0.0000000  0.6508444  3
   1871   1869   1881   3587     1  0.0000000  1.0460000  1
   1871   1869   1881   3587     1  0.0000000  0.0000000  3
   1871   1869   1881   1882     1  0.0000000  0.6508444  3
   1871   1869   1881   1883     1  0.0000000  0.6508444  3
   1873   1872   1878   3564     1  0.0000000  1.0460000  1
   1873   1872   1878   3564     1  0.0000000  0.0000000  3
   1873   1872   1878   1879     1  0.0000000  0.6508444  3
   1873   1872   1878   1880     1  0.0000000  0.6508444  3
   1874   1872   1878   3564     1  0.0000000  1.0460000  1
   1874   1872   1878   3564     1  0.0000000  0.0000000  3
   1874   1872   1878   1879     1  0.0000000  0.6508444  3
   1874   1872   1878   1880     1  0.0000000  0.6508444  3
   1878   3564   3560   3563     1  0.0000000  1.6038667  3
   1879   1878   3564   3560     1  0.0000000  1.6038667  3
   1880   1878   3564   3560     1  0.0000000  1.6038667  3
   1881   3587   3583   3586     1  0.0000000  1.6038667  3
   1882   1881   3587   3583     1  0.0000000  1.6038667  3
   1883   1881   3587   3583     1  0.0000000  1.6038667  3
   1885   1886   1898   1899     1  0.0000000  0.6508444  3
   1885   1886   1898   1900     1  0.0000000  0.6508444  3
   1885   1889   1901   1902     1  0.0000000  0.6508444  3
   1885   1889   1901   1903     1  0.0000000  0.6508444  3
   1885   1892   1895   1896     1  0.0000000  0.6508444  3
   1885   1892   1895   1897     1  0.0000000  0.6508444  3
   1886   1885   1889   1890     1  0.0000000  1.2552000  3
   1886   1885   1889   1891     1  0.0000000  1.2552000  3
   1886   1885   1892   1893     1  0.0000000  1.2552000  3
   1886   1885   1892   1894     1  0.0000000  1.2552000  3
   1886   1898   1910   1911     1  0.0000000  0.6508444  3
   1886   1898   1910   1912     1  0.0000000  0.6508444  3
   1887   1886   1885   1889     1  0.0000000  1.2552000  3
   1887   1886   1885   1892     1  0.0000000  1.2552000  3
   1887   1886   1898   1910     1  0.0000000  0.6508444  3
   1887   1886   1898   1899     1  0.0000000  0.6508444  3
   1887   1886   1898   1900     1  0.0000000  0.6508444  3
   1888   1886   1885   1889     1  0.0000000  1.2552000  3
   1888   1886   1885   1892     1  0.0000000  1.2552000  3
   1888   1886   1898   1910     1  0.0000000  0.6508444  3
   1888   1886   1898   1899     1  0.0000000  0.6508444  3
   1888   1886   1898   1900     1  0.0000000  0.6508444  3
   1889   1885   1892   1893     1  0.0000000  1.2552000  3
   1889   1885   1892   1894     1  0.0000000  1.2552000  3
   1889   1901   1907   1908     1  0.0000000  0.6508444  3
   1889   1901   1907   1909     1  0.0000000  0.6508444  3
   1890   1889   1885   1892     1  0.0000000  1.2552000  3
   1890   1889   1901   1907     1  0.0000000  0.6508444  3
   1890   1889   1901   1902     1  0.0000000  0.6508444  3
   1890   1889   1901   1903     1  0.0000000  0.6508444  3
   1891   1889   1885   1892     1  0.0000000  1.2552000  3
   1891   1889   1901   1907     1  0.0000000  0.6508444  3
   1891   1889   1901   1902     1  0.0000000  0.6508444  3
   1891   1889   1901   1903     1  0.0000000  0.6508444  3
   1892   1895   1904   1905     1  0.0000000  0.6508444  3
   1892   1895   1904   1906     1  0.0000000  0.6508444  3
   1893   1892   1895   1904     1  0.0000000  0.6508444  3
   1893   1892   1895   1896     1  0.0000000  0.6508444  3
   1893   1892   1895   1897     1  0.0000000  0.6508444  3
   1894   1892   1895   1904     1  0.0000000  0.6508444  3
   1894   1892   1895   1896     1  0.0000000  0.6508444  3
   1894   1892   1895   1897     1  0.0000000  0.6508444  3
   1896   1895   1904   1913     1  0.0000000  1.0460000  1
   1896   1895   1904   1913     1  0.0000000  0.0000000  3
   1896   1895   1904   1905     1  0.0000000  0.6508444  3
   1896   1895   1904   1906     1  0.0000000  0.6508444  3
   1897   1895   1904   1913     1  0.0000000  1.0460000  1
   1897   1895   1904   1913     1  0.0000000  0.0000000  3
   1897   1895   1904   1905     1  0.0000000  0.6508444  3
   1897   1895   1904   1906     1  0.0000000  0.6508444  3
   1899   1898   1910   3633     1  0.0000000  1.0460000  1
   1899   1898   1910   3633     1  0.0000000  0.0000000  3
   1899   1898   1910   1911     1  0.0000000  0.6508444  3
   1899   1898   1910   1912     1  0.0000000  0.6508444  3
   1900   1898   1910   3633     1  0.0000000  1.0460000  1
   1900   1898   1910   3633     1  0.0000000  0.0000000  3
   1900   1898   1910   1911     1  0.0000000  0.6508444  3
   1900   1898   1910   1912     1  0.0000000  0.6508444  3
   1902   1901   1907   3610     1  0.0000000  1.0460000  1
   1902   1901   1907   3610     1  0.0000000  0.0000000  3
   1902   1901   1907   1908     1  0.0000000  0.6508444  3
   1902   1901   1907   1909     1  0.0000000  0.6508444  3
   1903   1901   1907   3610     1  0.0000000  1.0460000  1
   1903   1901   1907   3610     1  0.0000000  0.0000000  3
   1903   1901   1907   1908     1  0.0000000  0.6508444  3
   1903   1901   1907   1909     1  0.0000000  0.6508444  3
   1907   3610   3606   3609     1  0.0000000  1.6038667  3
   1908   1907   3610   3606     1  0.0000000  1.6038667  3
   1909   1907   3610   3606     1  0.0000000  1.6038667  3
   1910   3633   3629   3632     1  0.0000000  1.6038667  3
   1911   1910   3633   3629     1  0.0000000  1.6038667  3
   1912   1910   3633   3629     1  0.0000000  1.6038667  3
   1914   1915   1927   1928     1  0.0000000  0.6508444  3
   1914   1915   1927   1929     1  0.0000000  0.6508444  3
   1914   1918   1930   1931     1  0.0000000  0.6508444  3
   1914   1918   1930   1932     1  0.0000000  0.6508444  3
   1914   1921   1924   1925     1  0.0000000  0.6508444  3
   1914   1921   1924   1926     1  0.0000000  0.6508444  3
   1915   1914   1918   1919     1  0.0000000  1.2552000  3
   1915   1914   1918   1920     1  0.0000000  1.2552000  3
   1915   1914   1921   1922     1  0.0000000  1.2552000  3
   1915   1914   1921   1923     1  0.0000000  1.2552000  3
   1915   1927   1939   1940     1  0.0000000  0.6508444  3
   1915   1927   1939   1941     1  0.0000000  0.6508444  3
   1916   1915   1914   1918     1  0.0000000  1.2552000  3
   1916   1915   1914   1921     1  0.0000000  1.2552000  3
   1916   1915   1927   1939     1  0.0000000  0.6508444  3
   1916   1915   1927   1928     1  0.0000000  0.6508444  3
   1916   1915   1927   1929     1  0.0000000  0.6508444  3
   1917   1915   1914   1918     1  0.0000000  1.2552000  3
   1917   1915   1914   1921     1  0.0000000  1.2552000  3
   1917   1915   1927   1939     1  0.0000000  0.6508444  3
   1917   1915   1927   1928     1  0.0000000  0.6508444  3
   1917   1915   1927   1929     1  0.0000000  0.6508444  3
   1918   1914   1921   1922     1  0.0000000  1.2552000  3
   1918   1914   1921   1923     1  0.0000000  1.2552000  3
   1918   1930   1936   1937     1  0.0000000  0.6508444  3
   1918   1930   1936   1938     1  0.0000000  0.6508444  3
   1919   1918   1914   1921     1  0.0000000  1.2552000  3
   1919   1918   1930   1936     1  0.0000000  0.6508444  3
   1919   1918   1930   1931     1  0.0000000  0.6508444  3
   1919   1918   1930   1932     1  0.0000000  0.6508444  3
   1920   1918   1914   1921     1  0.0000000  1.2552000  3
   1920   1918   1930   1936     1  0.0000000  0.6508444  3
   1920   1918   1930   1931     1  0.0000000  0.6508444  3
   1920   1918   1930   1932     1  0.0000000  0.6508444  3
   1921   1924   1933   1934     1  0.0000000  0.6508444  3
   1921   1924   1933   1935     1  0.0000000  0.6508444  3
   1922   1921   1924   1933     1  0.0000000  0.6508444  3
   1922   1921   1924   1925     1  0.0000000  0.6508444  3
   1922   1921   1924   1926     1  0.0000000  0.6508444  3
   1923   1921   1924   1933     1  0.0000000  0.6508444  3
   1923   1921   1924   1925     1  0.0000000  0.6508444  3
   1923   1921   1924   1926     1  0.0000000  0.6508444  3
   1925   1924   1933   1942     1  0.0000000  1.0460000  1
   1925   1924   1933   1942     1  0.0000000  0.0000000  3
   1925   1924   1933   1934     1  0.0000000  0.6508444  3
   1925   1924   1933   1935     1  0.0000000  0.6508444  3
   1926   1924   1933   1942     1  0.0000000  1.0460000  1
   1926   1924   1933   1942     1  0.0000000  0.0000000  3
   1926   1924   1933   1934     1  0.0000000  0.6508444  3
   1926   1924   1933   1935     1  0.0000000  0.6508444  3
   1928   1927   1939   3679     1  0.0000000  1.0460000  1
   1928   1927   1939   3679     1  0.0000000  0.0000000  3
   1928   1927   1939   1940     1  0.0000000  0.6508444  3
   1928   1927   1939   1941     1  0.0000000  0.6508444  3
   1929   1927   1939   3679     1  0.0000000  1.0460000  1
   1929   1927   1939   3679     1  0.0000000  0.0000000  3
   1929   1927   1939   1940     1  0.0000000  0.6508444  3
   1929   1927   1939   1941     1  0.0000000  0.6508444  3
   1931   1930   1936   3656     1  0.0000000  1.0460000  1
   1931   1930   1936   3656     1  0.0000000  0.0000000  3
   1931   1930   1936   1937     1  0.0000000  0.6508444  3
   1931   1930   1936   1938     1  0.0000000  0.6508444  3
   1932   1930   1936   3656     1  0.0000000  1.0460000  1
   1932   1930   1936   3656     1  0.0000000  0.0000000  3
   1932   1930   1936   1937     1  0.0000000  0.6508444  3
   1932   1930   1936   1938     1  0.0000000  0.6508444  3
   1936   3656   3652   3655     1  0.0000000  1.6038667  3
   1937   1936   3656   3652     1  0.0000000  1.6038667  3
   1938   1936   3656   3652     1  0.0000000  1.6038667  3
   1939   3679   3675   3678     1  0.0000000  1.6038667  3
   1940   1939   3679   3675     1  0.0000000  1.6038667  3
   1941   1939   3679   3675     1  0.0000000  1.6038667  3
   1943   1944   1956   1957     1  0.0000000  0.6508444  3
   1943   1944   1956   1958     1  0.0000000  0.6508444  3
   1943   1947   1959   1960     1  0.0000000  0.6508444  3
   1943   1947   1959   1961     1  0.0000000  0.6508444  3
   1943   1950   1953   1954     1  0.0000000  0.6508444  3
   1943   1950   1953   1955     1  0.0000000  0.6508444  3
   1944   1943   1947   1948     1  0.0000000  1.2552000  3
   1944   1943   1947   1949     1  0.0000000  1.2552000  3
   1944   1943   1950   1951     1  0.0000000  1.2552000  3
   1944   1943   1950   1952     1  0.0000000  1.2552000  3
   1944   1956   1968   1969     1  0.0000000  0.6508444  3
   1944   1956   1968   1970     1  0.0000000  0.6508444  3
   1945   1944   1943   1947     1  0.0000000  1.2552000  3
   1945   1944   1943   1950     1  0.0000000  1.2552000  3
   1945   1944   1956   1968     1  0.0000000  0.6508444  3
   1945   1944   1956   1957     1  0.0000000  0.6508444  3
   1945   1944   1956   1958     1  0.0000000  0.6508444  3
   1946   1944   1943   1947     1  0.0000000  1.2552000  3
   1946   1944   1943   1950     1  0.0000000  1.2552000  3
   1946   1944   1956   1968     1  0.0000000  0.6508444  3
   1946   1944   1956   1957     1  0.0000000  0.6508444  3
   1946   1944   1956   1958     1  0.0000000  0.6508444  3
   1947   1943   1950   1951     1  0.0000000  1.2552000  3
   1947   1943   1950   1952     1  0.0000000  1.2552000  3
   1947   1959   1965   1966     1  0.0000000  0.6508444  3
   1947   1959   1965   1967     1  0.0000000  0.6508444  3
   1948   1947   1943   1950     1  0.0000000  1.2552000  3
   1948   1947   1959   1965     1  0.0000000  0.6508444  3
   1948   1947   1959   1960     1  0.0000000  0.6508444  3
   1948   1947   1959   1961     1  0.0000000  0.6508444  3
   1949   1947   1943   1950     1  0.0000000  1.2552000  3
   1949   1947   1959   1965     1  0.0000000  0.6508444  3
   1949   1947   1959   1960     1  0.0000000  0.6508444  3
   1949   1947   1959   1961     1  0.0000000  0.6508444  3
   1950   1953   1962   1963     1  0.0000000  0.6508444  3
   1950   1953   1962   1964     1  0.0000000  0.6508444  3
   1951   1950   1953   1962     1  0.0000000  0.6508444  3
   1951   1950   1953   1954     1  0.0000000  0.6508444  3
   1951   1950   1953   1955     1  0.0000000  0.6508444  3
   1952   1950   1953   1962     1  0.0000000  0.6508444  3
   1952   1950   1953   1954     1  0.0000000  0.6508444  3
   1952   1950   1953   1955     1  0.0000000  0.6508444  3
   1954   1953   1962   1971     1  0.0000000  1.0460000  1
   1954   1953   1962   1971     1  0.0000000  0.0000000  3
   1954   1953   1962   1963     1  0.0000000  0.6508444  3
   1954   1953   1962   1964     1  0.0000000  0.6508444  3
   1955   1953   1962   1971     1  0.0000000  1.0460000  1
   1955   1953   1962   1971     1  0.0000000  0.0000000  3
   1955   1953   1962   1963     1  0.0000000  0.6508444  3
   1955   1953   1962   1964     1  0.0000000  0.6508444  3
   1957   1956   1968   3725     1  0.0000000  1.0460000  1
   1957   1956   1968   3725     1  0.0000000  0.0000000  3
   1957   1956   1968   1969     1  0.0000000  0.6508444  3
   1957   1956   1968   1970     1  0.0000000  0.6508444  3
   1958   1956   1968   3725     1  0.0000000  1.0460000  1
   1958   1956   1968   3725     1  0.0000000  0.0000000  3
   1958   1956   1968   1969     1  0.0000000  0.6508444  3
   1958   1956   1968   1970     1  0.0000000  0.6508444  3
   1960   1959   1965   3702     1  0.0000000  1.0460000  1
   1960   1959   1965   3702     1  0.0000000  0.0000000  3
   1960   1959   1965   1966     1  0.0000000  0.6508444  3
   1960   1959   1965   1967     1  0.0000000  0.6508444  3
   1961   1959   1965   3702     1  0.0000000  1.0460000  1
   1961   1959   1965   3702     1  0.0000000  0.0000000  3
   1961   1959   1965   1966     1  0.0000000  0.6508444  3
   1961   1959   1965   1967     1  0.0000000  0.6508444  3
   1965   3702   3698   3701     1  0.0000000  1.6038667  3
   1966   1965   3702   3698     1  0.0000000  1.6038667  3
   1967   1965   3702   3698     1  0.0000000  1.6038667  3
   1968   3725   3721   3724     1  0.0000000  1.6038667  3
   1969   1968   3725   3721     1  0.0000000  1.6038667  3
   1970   1968   3725   3721     1  0.0000000  1.6038667  3
   1972   1973   1985   1986     1  0.0000000  0.6508444  3
   1972   1973   1985   1987     1  0.0000000  0.6508444  3
   1972   1976   1988   1989     1  0.0000000  0.6508444  3
   1972   1976   1988   1990     1  0.0000000  0.6508444  3
   1972   1979   1982   1983     1  0.0000000  0.6508444  3
   1972   1979   1982   1984     1  0.0000000  0.6508444  3
   1973   1972   1976   1977     1  0.0000000  1.2552000  3
   1973   1972   1976   1978     1  0.0000000  1.2552000  3
   1973   1972   1979   1980     1  0.0000000  1.2552000  3
   1973   1972   1979   1981     1  0.0000000  1.2552000  3
   1973   1985   1997   1998     1  0.0000000  0.6508444  3
   1973   1985   1997   1999     1  0.0000000  0.6508444  3
   1974   1973   1972   1976     1  0.0000000  1.2552000  3
   1974   1973   1972   1979     1  0.0000000  1.2552000  3
   1974   1973   1985   1997     1  0.0000000  0.6508444  3
   1974   1973   1985   1986     1  0.0000000  0.6508444  3
   1974   1973   1985   1987     1  0.0000000  0.6508444  3
   1975   1973   1972   1976     1  0.0000000  1.2552000  3
   1975   1973   1972   1979     1  0.0000000  1.2552000  3
   1975   1973   1985   1997     1  0.0000000  0.6508444  3
   1975   1973   1985   1986     1  0.0000000  0.6508444  3
   1975   1973   1985   1987     1  0.0000000  0.6508444  3
   1976   1972   1979   1980     1  0.0000000  1.2552000  3
   1976   1972   1979   1981     1  0.0000000  1.2552000  3
   1976   1988   1994   1995     1  0.0000000  0.6508444  3
   1976   1988   1994   1996     1  0.0000000  0.6508444  3
   1977   1976   1972   1979     1  0.0000000  1.2552000  3
   1977   1976   1988   1994     1  0.0000000  0.6508444  3
   1977   1976   1988   1989     1  0.0000000  0.6508444  3
   1977   1976   1988   1990     1  0.0000000  0.6508444  3
   1978   1976   1972   1979     1  0.0000000  1.2552000  3
   1978   1976   1988   1994     1  0.0000000  0.6508444  3
   1978   1976   1988   1989     1  0.0000000  0.6508444  3
   1978   1976   1988   1990     1  0.0000000  0.6508444  3
   1979   1982   1991   1992     1  0.0000000  0.6508444  3
   1979   1982   1991   1993     1  0.0000000  0.6508444  3
   1980   1979   1982   1991     1  0.0000000  0.6508444  3
   1980   1979   1982   1983     1  0.0000000  0.6508444  3
   1980   1979   1982   1984     1  0.0000000  0.6508444  3
   1981   1979   1982   1991     1  0.0000000  0.6508444  3
   1981   1979   1982   1983     1  0.0000000  0.6508444  3
   1981   1979   1982   1984     1  0.0000000  0.6508444  3
   1983   1982   1991   2000     1  0.0000000  1.0460000  1
   1983   1982   1991   2000     1  0.0000000  0.0000000  3
   1983   1982   1991   1992     1  0.0000000  0.6508444  3
   1983   1982   1991   1993     1  0.0000000  0.6508444  3
   1984   1982   1991   2000     1  0.0000000  1.0460000  1
   1984   1982   1991   2000     1  0.0000000  0.0000000  3
   1984   1982   1991   1992     1  0.0000000  0.6508444  3
   1984   1982   1991   1993     1  0.0000000  0.6508444  3
   1986   1985   1997   3771     1  0.0000000  1.0460000  1
   1986   1985   1997   3771     1  0.0000000  0.0000000  3
   1986   1985   1997   1998     1  0.0000000  0.6508444  3
   1986   1985   1997   1999     1  0.0000000  0.6508444  3
   1987   1985   1997   3771     1  0.0000000  1.0460000  1
   1987   1985   1997   3771     1  0.0000000  0.0000000  3
   1987   1985   1997   1998     1  0.0000000  0.6508444  3
   1987   1985   1997   1999     1  0.0000000  0.6508444  3
   1989   1988   1994   3748     1  0.0000000  1.0460000  1
   1989   1988   1994   3748     1  0.0000000  0.0000000  3
   1989   1988   1994   1995     1  0.0000000  0.6508444  3
   1989   1988   1994   1996     1  0.0000000  0.6508444  3
   1990   1988   1994   3748     1  0.0000000  1.0460000  1
   1990   1988   1994   3748     1  0.0000000  0.0000000  3
   1990   1988   1994   1995     1  0.0000000  0.6508444  3
   1990   1988   1994   1996     1  0.0000000  0.6508444  3
   1994   3748   3744   3747     1  0.0000000  1.6038667  3
   1995   1994   3748   3744     1  0.0000000  1.6038667  3
   1996   1994   3748   3744     1  0.0000000  1.6038667  3
   1997   3771   3767   3770     1  0.0000000  1.6038667  3
   1998   1997   3771   3767     1  0.0000000  1.6038667  3
   1999   1997   3771   3767     1  0.0000000  1.6038667  3
   2001   2002   2014   2015     1  0.0000000  0.6508444  3
   2001   2002   2014   2016     1  0.0000000  0.6508444  3
   2001   2005   2017   2018     1  0.0000000  0.6508444  3
   2001   2005   2017   2019     1  0.0000000  0.6508444  3
   2001   2008   2011   2012     1  0.0000000  0.6508444  3
   2001   2008   2011   2013     1  0.0000000  0.6508444  3
   2002   2001   2005   2006     1  0.0000000  1.2552000  3
   2002   2001   2005   2007     1  0.0000000  1.2552000  3
   2002   2001   2008   2009     1  0.0000000  1.2552000  3
   2002   2001   2008   2010     1  0.0000000  1.2552000  3
   2002   2014   2026   2027     1  0.0000000  0.6508444  3
   2002   2014   2026   2028     1  0.0000000  0.6508444  3
   2003   2002   2001   2005     1  0.0000000  1.2552000  3
   2003   2002   2001   2008     1  0.0000000  1.2552000  3
   2003   2002   2014   2026     1  0.0000000  0.6508444  3
   2003   2002   2014   2015     1  0.0000000  0.6508444  3
   2003   2002   2014   2016     1  0.0000000  0.6508444  3
   2004   2002   2001   2005     1  0.0000000  1.2552000  3
   2004   2002   2001   2008     1  0.0000000  1.2552000  3
   2004   2002   2014   2026     1  0.0000000  0.6508444  3
   2004   2002   2014   2015     1  0.0000000  0.6508444  3
   2004   2002   2014   2016     1  0.0000000  0.6508444  3
   2005   2001   2008   2009     1  0.0000000  1.2552000  3
   2005   2001   2008   2010     1  0.0000000  1.2552000  3
   2005   2017   2023   2024     1  0.0000000  0.6508444  3
   2005   2017   2023   2025     1  0.0000000  0.6508444  3
   2006   2005   2001   2008     1  0.0000000  1.2552000  3
   2006   2005   2017   2023     1  0.0000000  0.6508444  3
   2006   2005   2017   2018     1  0.0000000  0.6508444  3
   2006   2005   2017   2019     1  0.0000000  0.6508444  3
   2007   2005   2001   2008     1  0.0000000  1.2552000  3
   2007   2005   2017   2023     1  0.0000000  0.6508444  3
   2007   2005   2017   2018     1  0.0000000  0.6508444  3
   2007   2005   2017   2019     1  0.0000000  0.6508444  3
   2008   2011   2020   2021     1  0.0000000  0.6508444  3
   2008   2011   2020   2022     1  0.0000000  0.6508444  3
   2009   2008   2011   2020     1  0.0000000  0.6508444  3
   2009   2008   2011   2012     1  0.0000000  0.6508444  3
   2009   2008   2011   2013     1  0.0000000  0.6508444  3
   2010   2008   2011   2020     1  0.0000000  0.6508444  3
   2010   2008   2011   2012     1  0.0000000  0.6508444  3
   2010   2008   2011   2013     1  0.0000000  0.6508444  3
   2012   2011   2020   2029     1  0.0000000  1.0460000  1
   2012   2011   2020   2029     1  0.0000000  0.0000000  3
   2012   2011   2020   2021     1  0.0000000  0.6508444  3
   2012   2011   2020   2022     1  0.0000000  0.6508444  3
   2013   2011   2020   2029     1  0.0000000  1.0460000  1
   2013   2011   2020   2029     1  0.0000000  0.0000000  3
   2013   2011   2020   2021     1  0.0000000  0.6508444  3
   2013   2011   2020   2022     1  0.0000000  0.6508444  3
   2015   2014   2026   3817     1  0.0000000  1.0460000  1
   2015   2014   2026   3817     1  0.0000000  0.0000000  3
   2015   2014   2026   2027     1  0.0000000  0.6508444  3
   2015   2014   2026   2028     1  0.0000000  0.6508444  3
   2016   2014   2026   3817     1  0.0000000  1.0460000  1
   2016   2014   2026   3817     1  0.0000000  0.0000000  3
   2016   2014   2026   2027     1  0.0000000  0.6508444  3
   2016   2014   2026   2028     1  0.0000000  0.6508444  3
   2018   2017   2023   3794     1  0.0000000  1.0460000  1
   2018   2017   2023   3794     1  0.0000000  0.0000000  3
   2018   2017   2023   2024     1  0.0000000  0.6508444  3
   2018   2017   2023   2025     1  0.0000000  0.6508444  3
   2019   2017   2023   3794     1  0.0000000  1.0460000  1
   2019   2017   2023   3794     1  0.0000000  0.0000000  3
   2019   2017   2023   2024     1  0.0000000  0.6508444  3
   2019   2017   2023   2025     1  0.0000000  0.6508444  3
   2023   3794   3790   3793     1  0.0000000  1.6038667  3
   2024   2023   3794   3790     1  0.0000000  1.6038667  3
   2025   2023   3794   3790     1  0.0000000  1.6038667  3
   2026   3817   3813   3816     1  0.0000000  1.6038667  3
   2027   2026   3817   3813     1  0.0000000  1.6038667  3
   2028   2026   3817   3813     1  0.0000000  1.6038667  3
   2030   2031   2043   2044     1  0.0000000  0.6508444  3
   2030   2031   2043   2045     1  0.0000000  0.6508444  3
   2030   2034   2046   2047     1  0.0000000  0.6508444  3
   2030   2034   2046   2048     1  0.0000000  0.6508444  3
   2030   2037   2040   2041     1  0.0000000  0.6508444  3
   2030   2037   2040   2042     1  0.0000000  0.6508444  3
   2031   2030   2034   2035     1  0.0000000  1.2552000  3
   2031   2030   2034   2036     1  0.0000000  1.2552000  3
   2031   2030   2037   2038     1  0.0000000  1.2552000  3
   2031   2030   2037   2039     1  0.0000000  1.2552000  3
   2031   2043   2055   2056     1  0.0000000  0.6508444  3
   2031   2043   2055   2057     1  0.0000000  0.6508444  3
   2032   2031   2030   2034     1  0.0000000  1.2552000  3
   2032   2031   2030   2037     1  0.0000000  1.2552000  3
   2032   2031   2043   2055     1  0.0000000  0.6508444  3
   2032   2031   2043   2044     1  0.0000000  0.6508444  3
   2032   2031   2043   2045     1  0.0000000  0.6508444  3
   2033   2031   2030   2034     1  0.0000000  1.2552000  3
   2033   2031   2030   2037     1  0.0000000  1.2552000  3
   2033   2031   2043   2055     1  0.0000000  0.6508444  3
   2033   2031   2043   2044     1  0.0000000  0.6508444  3
   2033   2031   2043   2045     1  0.0000000  0.6508444  3
   2034   2030   2037   2038     1  0.0000000  1.2552000  3
   2034   2030   2037   2039     1  0.0000000  1.2552000  3
   2034   2046   2052   2053     1  0.0000000  0.6508444  3
   2034   2046   2052   2054     1  0.0000000  0.6508444  3
   2035   2034   2030   2037     1  0.0000000  1.2552000  3
   2035   2034   2046   2052     1  0.0000000  0.6508444  3
   2035   2034   2046   2047     1  0.0000000  0.6508444  3
   2035   2034   2046   2048     1  0.0000000  0.6508444  3
   2036   2034   2030   2037     1  0.0000000  1.2552000  3
   2036   2034   2046   2052     1  0.0000000  0.6508444  3
   2036   2034   2046   2047     1  0.0000000  0.6508444  3
   2036   2034   2046   2048     1  0.0000000  0.6508444  3
   2037   2040   2049   2050     1  0.0000000  0.6508444  3
   2037   2040   2049   2051     1  0.0000000  0.6508444  3
   2038   2037   2040   2049     1  0.0000000  0.6508444  3
   2038   2037   2040   2041     1  0.0000000  0.6508444  3
   2038   2037   2040   2042     1  0.0000000  0.6508444  3
   2039   2037   2040   2049     1  0.0000000  0.6508444  3
   2039   2037   2040   2041     1  0.0000000  0.6508444  3
   2039   2037   2040   2042     1  0.0000000  0.6508444  3
   2041   2040   2049   2058     1  0.0000000  1.0460000  1
   2041   2040   2049   2058     1  0.0000000  0.0000000  3
   2041   2040   2049   2050     1  0.0000000  0.6508444  3
   2041   2040   2049   2051     1  0.0000000  0.6508444  3
   2042   2040   2049   2058     1  0.0000000  1.0460000  1
   2042   2040   2049   2058     1  0.0000000  0.0000000  3
   2042   2040   2049   2050     1  0.0000000  0.6508444  3
   2042   2040   2049   2051     1  0.0000000  0.6508444  3
   2044   2043   2055   3863     1  0.0000000  1.0460000  1
   2044   2043   2055   3863     1  0.0000000  0.0000000  3
   2044   2043   2055   2056     1  0.0000000  0.6508444  3
   2044   2043   2055   2057     1  0.0000000  0.6508444  3
   2045   2043   2055   3863     1  0.0000000  1.0460000  1
   2045   2043   2055   3863     1  0.0000000  0.0000000  3
   2045   2043   2055   2056     1  0.0000000  0.6508444  3
   2045   2043   2055   2057     1  0.0000000  0.6508444  3
   2047   2046   2052   3840     1  0.0000000  1.0460000  1
   2047   2046   2052   3840     1  0.0000000  0.0000000  3
   2047   2046   2052   2053     1  0.0000000  0.6508444  3
   2047   2046   2052   2054     1  0.0000000  0.6508444  3
   2048   2046   2052   3840     1  0.0000000  1.0460000  1
   2048   2046   2052   3840     1  0.0000000  0.0000000  3
   2048   2046   2052   2053     1  0.0000000  0.6508444  3
   2048   2046   2052   2054     1  0.0000000  0.6508444  3
   2052   3840   3836   3839     1  0.0000000  1.6038667  3
   2053   2052   3840   3836     1  0.0000000  1.6038667  3
   2054   2052   3840   3836     1  0.0000000  1.6038667  3
   2055   3863   3859   3862     1  0.0000000  1.6038667  3
   2056   2055   3863   3859     1  0.0000000  1.6038667  3
   2057   2055   3863   3859     1  0.0000000  1.6038667  3
   2059   2060   2072   2073     1  0.0000000  0.6508444  3
   2059   2060   2072   2074     1  0.0000000  0.6508444  3
   2059   2063   2075   2076     1  0.0000000  0.6508444  3
   2059   2063   2075   2077     1  0.0000000  0.6508444  3
   2059   2066   2069   2070     1  0.0000000  0.6508444  3
   2059   2066   2069   2071     1  0.0000000  0.6508444  3
   2060   2059   2063   2064     1  0.0000000  1.2552000  3
   2060   2059   2063   2065     1  0.0000000  1.2552000  3
   2060   2059   2066   2067     1  0.0000000  1.2552000  3
   2060   2059   2066   2068     1  0.0000000  1.2552000  3
   2060   2072   2084   2085     1  0.0000000  0.6508444  3
   2060   2072   2084   2086     1  0.0000000  0.6508444  3
   2061   2060   2059   2063     1  0.0000000  1.2552000  3
   2061   2060   2059   2066     1  0.0000000  1.2552000  3
   2061   2060   2072   2084     1  0.0000000  0.6508444  3
   2061   2060   2072   2073     1  0.0000000  0.6508444  3
   2061   2060   2072   2074     1  0.0000000  0.6508444  3
   2062   2060   2059   2063     1  0.0000000  1.2552000  3
   2062   2060   2059   2066     1  0.0000000  1.2552000  3
   2062   2060   2072   2084     1  0.0000000  0.6508444  3
   2062   2060   2072   2073     1  0.0000000  0.6508444  3
   2062   2060   2072   2074     1  0.0000000  0.6508444  3
   2063   2059   2066   2067     1  0.0000000  1.2552000  3
   2063   2059   2066   2068     1  0.0000000  1.2552000  3
   2063   2075   2081   2082     1  0.0000000  0.6508444  3
   2063   2075   2081   2083     1  0.0000000  0.6508444  3
   2064   2063   2059   2066     1  0.0000000  1.2552000  3
   2064   2063   2075   2081     1  0.0000000  0.6508444  3
   2064   2063   2075   2076     1  0.0000000  0.6508444  3
   2064   2063   2075   2077     1  0.0000000  0.6508444  3
   2065   2063   2059   2066     1  0.0000000  1.2552000  3
   2065   2063   2075   2081     1  0.0000000  0.6508444  3
   2065   2063   2075   2076     1  0.0000000  0.6508444  3
   2065   2063   2075   2077     1  0.0000000  0.6508444  3
   2066   2069   2078   2079     1  0.0000000  0.6508444  3
   2066   2069   2078   2080     1  0.0000000  0.6508444  3
   2067   2066   2069   2078     1  0.0000000  0.6508444  3
   2067   2066   2069   2070     1  0.0000000  0.6508444  3
   2067   2066   2069   2071     1  0.0000000  0.6508444  3
   2068   2066   2069   2078     1  0.0000000  0.6508444  3
   2068   2066   2069   2070     1  0.0000000  0.6508444  3
   2068   2066   2069   2071     1  0.0000000  0.6508444  3
   2070   2069   2078   2087     1  0.0000000  1.0460000  1
   2070   2069   2078   2087     1  0.0000000  0.0000000  3
   2070   2069   2078   2079     1  0.0000000  0.6508444  3
   2070   2069   2078   2080     1  0.0000000  0.6508444  3
   2071   2069   2078   2087     1  0.0000000  1.0460000  1
   2071   2069   2078   2087     1  0.0000000  0.0000000  3
   2071   2069   2078   2079     1  0.0000000  0.6508444  3
   2071   2069   2078   2080     1  0.0000000  0.6508444  3
   2073   2072   2084   3909     1  0.0000000  1.0460000  1
   2073   2072   2084   3909     1  0.0000000  0.0000000  3
   2073   2072   2084   2085     1  0.0000000  0.6508444  3
   2073   2072   2084   2086     1  0.0000000  0.6508444  3
   2074   2072   2084   3909     1  0.0000000  1.0460000  1
   2074   2072   2084   3909     1  0.0000000  0.0000000  3
   2074   2072   2084   2085     1  0.0000000  0.6508444  3
   2074   2072   2084   2086     1  0.0000000  0.6508444  3
   2076   2075   2081   3886     1  0.0000000  1.0460000  1
   2076   2075   2081   3886     1  0.0000000  0.0000000  3
   2076   2075   2081   2082     1  0.0000000  0.6508444  3
   2076   2075   2081   2083     1  0.0000000  0.6508444  3
   2077   2075   2081   3886     1  0.0000000  1.0460000  1
   2077   2075   2081   3886     1  0.0000000  0.0000000  3
   2077   2075   2081   2082     1  0.0000000  0.6508444  3
   2077   2075   2081   2083     1  0.0000000  0.6508444  3
   2081   3886   3882   3885     1  0.0000000  1.6038667  3
   2082   2081   3886   3882     1  0.0000000  1.6038667  3
   2083   2081   3886   3882     1  0.0000000  1.6038667  3
   2084   3909   3905   3908     1  0.0000000  1.6038667  3
   2085   2084   3909   3905     1  0.0000000  1.6038667  3
   2086   2084   3909   3905     1  0.0000000  1.6038667  3
   2088   2089   2101   2102     1  0.0000000  0.6508444  3
   2088   2089   2101   2103     1  0.0000000  0.6508444  3
   2088   2092   2104   2105     1  0.0000000  0.6508444  3
   2088   2092   2104   2106     1  0.0000000  0.6508444  3
   2088   2095   2098   2099     1  0.0000000  0.6508444  3
   2088   2095   2098   2100     1  0.0000000  0.6508444  3
   2089   2088   2092   2093     1  0.0000000  1.2552000  3
   2089   2088   2092   2094     1  0.0000000  1.2552000  3
   2089   2088   2095   2096     1  0.0000000  1.2552000  3
   2089   2088   2095   2097     1  0.0000000  1.2552000  3
   2089   2101   2113   2114     1  0.0000000  0.6508444  3
   2089   2101   2113   2115     1  0.0000000  0.6508444  3
   2090   2089   2088   2092     1  0.0000000  1.2552000  3
   2090   2089   2088   2095     1  0.0000000  1.2552000  3
   2090   2089   2101   2113     1  0.0000000  0.6508444  3
   2090   2089   2101   2102     1  0.0000000  0.6508444  3
   2090   2089   2101   2103     1  0.0000000  0.6508444  3
   2091   2089   2088   2092     1  0.0000000  1.2552000  3
   2091   2089   2088   2095     1  0.0000000  1.2552000  3
   2091   2089   2101   2113     1  0.0000000  0.6508444  3
   2091   2089   2101   2102     1  0.0000000  0.6508444  3
   2091   2089   2101   2103     1  0.0000000  0.6508444  3
   2092   2088   2095   2096     1  0.0000000  1.2552000  3
   2092   2088   2095   2097     1  0.0000000  1.2552000  3
   2092   2104   2110   2111     1  0.0000000  0.6508444  3
   2092   2104   2110   2112     1  0.0000000  0.6508444  3
   2093   2092   2088   2095     1  0.0000000  1.2552000  3
   2093   2092   2104   2110     1  0.0000000  0.6508444  3
   2093   2092   2104   2105     1  0.0000000  0.6508444  3
   2093   2092   2104   2106     1  0.0000000  0.6508444  3
   2094   2092   2088   2095     1  0.0000000  1.2552000  3
   2094   2092   2104   2110     1  0.0000000  0.6508444  3
   2094   2092   2104   2105     1  0.0000000  0.6508444  3
   2094   2092   2104   2106     1  0.0000000  0.6508444  3
   2095   2098   2107   2108     1  0.0000000  0.6508444  3
   2095   2098   2107   2109     1  0.0000000  0.6508444  3
   2096   2095   2098   2107     1  0.0000000  0.6508444  3
   2096   2095   2098   2099     1  0.0000000  0.6508444  3
   2096   2095   2098   2100     1  0.0000000  0.6508444  3
   2097   2095   2098   2107     1  0.0000000  0.6508444  3
   2097   2095   2098   2099     1  0.0000000  0.6508444  3
   2097   2095   2098   2100     1  0.0000000  0.6508444  3
   2099   2098   2107   2116     1  0.0000000  1.0460000  1
   2099   2098   2107   2116     1  0.0000000  0.0000000  3
   2099   2098   2107   2108     1  0.0000000  0.6508444  3
   2099   2098   2107   2109     1  0.0000000  0.6508444  3
   2100   2098   2107   2116     1  0.0000000  1.0460000  1
   2100   2098   2107   2116     1  0.0000000  0.0000000  3
   2100   2098   2107   2108     1  0.0000000  0.6508444  3
   2100   2098   2107   2109     1  0.0000000  0.6508444  3
   2102   2101   2113   3955     1  0.0000000  1.0460000  1
   2102   2101   2113   3955     1  0.0000000  0.0000000  3
   2102   2101   2113   2114     1  0.0000000  0.6508444  3
   2102   2101   2113   2115     1  0.0000000  0.6508444  3
   2103   2101   2113   3955     1  0.0000000  1.0460000  1
   2103   2101   2113   3955     1  0.0000000  0.0000000  3
   2103   2101   2113   2114     1  0.0000000  0.6508444  3
   2103   2101   2113   2115     1  0.0000000  0.6508444  3
   2105   2104   2110   3932     1  0.0000000  1.0460000  1
   2105   2104   2110   3932     1  0.0000000  0.0000000  3
   2105   2104   2110   2111     1  0.0000000  0.6508444  3
   2105   2104   2110   2112     1  0.0000000  0.6508444  3
   2106   2104   2110   3932     1  0.0000000  1.0460000  1
   2106   2104   2110   3932     1  0.0000000  0.0000000  3
   2106   2104   2110   2111     1  0.0000000  0.6508444  3
   2106   2104   2110   2112     1  0.0000000  0.6508444  3
   2110   3932   3928   3931     1  0.0000000  1.6038667  3
   2111   2110   3932   3928     1  0.0000000  1.6038667  3
   2112   2110   3932   3928     1  0.0000000  1.6038667  3
   2113   3955   3951   3954     1  0.0000000  1.6038667  3
   2114   2113   3955   3951     1  0.0000000  1.6038667  3
   2115   2113   3955   3951     1  0.0000000  1.6038667  3
   2117   2118   2130   2131     1  0.0000000  0.6508444  3
   2117   2118   2130   2132     1  0.0000000  0.6508444  3
   2117   2121   2133   2134     1  0.0000000  0.6508444  3
   2117   2121   2133   2135     1  0.0000000  0.6508444  3
   2117   2124   2127   2128     1  0.0000000  0.6508444  3
   2117   2124   2127   2129     1  0.0000000  0.6508444  3
   2118   2117   2121   2122     1  0.0000000  1.2552000  3
   2118   2117   2121   2123     1  0.0000000  1.2552000  3
   2118   2117   2124   2125     1  0.0000000  1.2552000  3
   2118   2117   2124   2126     1  0.0000000  1.2552000  3
   2118   2130   2142   2143     1  0.0000000  0.6508444  3
   2118   2130   2142   2144     1  0.0000000  0.6508444  3
   2119   2118   2117   2121     1  0.0000000  1.2552000  3
   2119   2118   2117   2124     1  0.0000000  1.2552000  3
   2119   2118   2130   2142     1  0.0000000  0.6508444  3
   2119   2118   2130   2131     1  0.0000000  0.6508444  3
   2119   2118   2130   2132     1  0.0000000  0.6508444  3
   2120   2118   2117   2121     1  0.0000000  1.2552000  3
   2120   2118   2117   2124     1  0.0000000  1.2552000  3
   2120   2118   2130   2142     1  0.0000000  0.6508444  3
   2120   2118   2130   2131     1  0.0000000  0.6508444  3
   2120   2118   2130   2132     1  0.0000000  0.6508444  3
   2121   2117   2124   2125     1  0.0000000  1.2552000  3
   2121   2117   2124   2126     1  0.0000000  1.2552000  3
   2121   2133   2139   2140     1  0.0000000  0.6508444  3
   2121   2133   2139   2141     1  0.0000000  0.6508444  3
   2122   2121   2117   2124     1  0.0000000  1.2552000  3
   2122   2121   2133   2139     1  0.0000000  0.6508444  3
   2122   2121   2133   2134     1  0.0000000  0.6508444  3
   2122   2121   2133   2135     1  0.0000000  0.6508444  3
   2123   2121   2117   2124     1  0.0000000  1.2552000  3
   2123   2121   2133   2139     1  0.0000000  0.6508444  3
   2123   2121   2133   2134     1  0.0000000  0.6508444  3
   2123   2121   2133   2135     1  0.0000000  0.6508444  3
   2124   2127   2136   2137     1  0.0000000  0.6508444  3
   2124   2127   2136   2138     1  0.0000000  0.6508444  3
   2125   2124   2127   2136     1  0.0000000  0.6508444  3
   2125   2124   2127   2128     1  0.0000000  0.6508444  3
   2125   2124   2127   2129     1  0.0000000  0.6508444  3
   2126   2124   2127   2136     1  0.0000000  0.6508444  3
   2126   2124   2127   2128     1  0.0000000  0.6508444  3
   2126   2124   2127   2129     1  0.0000000  0.6508444  3
   2128   2127   2136   2145     1  0.0000000  1.0460000  1
   2128   2127   2136   2145     1  0.0000000  0.0000000  3
   2128   2127   2136   2137     1  0.0000000  0.6508444  3
   2128   2127   2136   2138     1  0.0000000  0.6508444  3
   2129   2127   2136   2145     1  0.0000000  1.0460000  1
   2129   2127   2136   2145     1  0.0000000  0.0000000  3
   2129   2127   2136   2137     1  0.0000000  0.6508444  3
   2129   2127   2136   2138     1  0.0000000  0.6508444  3
   2131   2130   2142   4001     1  0.0000000  1.0460000  1
   2131   2130   2142   4001     1  0.0000000  0.0000000  3
   2131   2130   2142   2143     1  0.0000000  0.6508444  3
   2131   2130   2142   2144     1  0.0000000  0.6508444  3
   2132   2130   2142   4001     1  0.0000000  1.0460000  1
   2132   2130   2142   4001     1  0.0000000  0.0000000  3
   2132   2130   2142   2143     1  0.0000000  0.6508444  3
   2132   2130   2142   2144     1  0.0000000  0.6508444  3
   2134   2133   2139   3978     1  0.0000000  1.0460000  1
   2134   2133   2139   3978     1  0.0000000  0.0000000  3
   2134   2133   2139   2140     1  0.0000000  0.6508444  3
   2134   2133   2139   2141     1  0.0000000  0.6508444  3
   2135   2133   2139   3978     1  0.0000000  1.0460000  1
   2135   2133   2139   3978     1  0.0000000  0.0000000  3
   2135   2133   2139   2140     1  0.0000000  0.6508444  3
   2135   2133   2139   2141     1  0.0000000  0.6508444  3
   2139   3978   3974   3977     1  0.0000000  1.6038667  3
   2140   2139   3978   3974     1  0.0000000  1.6038667  3
   2141   2139   3978   3974     1  0.0000000  1.6038667  3
   2142   4001   3997   4000     1  0.0000000  1.6038667  3
   2143   2142   4001   3997     1  0.0000000  1.6038667  3
   2144   2142   4001   3997     1  0.0000000  1.6038667  3
   2146   2147   2159   2160     1  0.0000000  0.6508444  3
   2146   2147   2159   2161     1  0.0000000  0.6508444  3
   2146   2150   2162   2163     1  0.0000000  0.6508444  3
   2146   2150   2162   2164     1  0.0000000  0.6508444  3
   2146   2153   2156   2157     1  0.0000000  0.6508444  3
   2146   2153   2156   2158     1  0.0000000  0.6508444  3
   2147   2146   2150   2151     1  0.0000000  1.2552000  3
   2147   2146   2150   2152     1  0.0000000  1.2552000  3
   2147   2146   2153   2154     1  0.0000000  1.2552000  3
   2147   2146   2153   2155     1  0.0000000  1.2552000  3
   2147   2159   2171   2172     1  0.0000000  0.6508444  3
   2147   2159   2171   2173     1  0.0000000  0.6508444  3
   2148   2147   2146   2150     1  0.0000000  1.2552000  3
   2148   2147   2146   2153     1  0.0000000  1.2552000  3
   2148   2147   2159   2171     1  0.0000000  0.6508444  3
   2148   2147   2159   2160     1  0.0000000  0.6508444  3
   2148   2147   2159   2161     1  0.0000000  0.6508444  3
   2149   2147   2146   2150     1  0.0000000  1.2552000  3
   2149   2147   2146   2153     1  0.0000000  1.2552000  3
   2149   2147   2159   2171     1  0.0000000  0.6508444  3
   2149   2147   2159   2160     1  0.0000000  0.6508444  3
   2149   2147   2159   2161     1  0.0000000  0.6508444  3
   2150   2146   2153   2154     1  0.0000000  1.2552000  3
   2150   2146   2153   2155     1  0.0000000  1.2552000  3
   2150   2162   2168   2169     1  0.0000000  0.6508444  3
   2150   2162   2168   2170     1  0.0000000  0.6508444  3
   2151   2150   2146   2153     1  0.0000000  1.2552000  3
   2151   2150   2162   2168     1  0.0000000  0.6508444  3
   2151   2150   2162   2163     1  0.0000000  0.6508444  3
   2151   2150   2162   2164     1  0.0000000  0.6508444  3
   2152   2150   2146   2153     1  0.0000000  1.2552000  3
   2152   2150   2162   2168     1  0.0000000  0.6508444  3
   2152   2150   2162   2163     1  0.0000000  0.6508444  3
   2152   2150   2162   2164     1  0.0000000  0.6508444  3
   2153   2156   2165   2166     1  0.0000000  0.6508444  3
   2153   2156   2165   2167     1  0.0000000  0.6508444  3
   2154   2153   2156   2165     1  0.0000000  0.6508444  3
   2154   2153   2156   2157     1  0.0000000  0.6508444  3
   2154   2153   2156   2158     1  0.0000000  0.6508444  3
   2155   2153   2156   2165     1  0.0000000  0.6508444  3
   2155   2153   2156   2157     1  0.0000000  0.6508444  3
   2155   2153   2156   2158     1  0.0000000  0.6508444  3
   2157   2156   2165   2174     1  0.0000000  1.0460000  1
   2157   2156   2165   2174     1  0.0000000  0.0000000  3
   2157   2156   2165   2166     1  0.0000000  0.6508444  3
   2157   2156   2165   2167     1  0.0000000  0.6508444  3
   2158   2156   2165   2174     1  0.0000000  1.0460000  1
   2158   2156   2165   2174     1  0.0000000  0.0000000  3
   2158   2156   2165   2166     1  0.0000000  0.6508444  3
   2158   2156   2165   2167     1  0.0000000  0.6508444  3
   2160   2159   2171   4047     1  0.0000000  1.0460000  1
   2160   2159   2171   4047     1  0.0000000  0.0000000  3
   2160   2159   2171   2172     1  0.0000000  0.6508444  3
   2160   2159   2171   2173     1  0.0000000  0.6508444  3
   2161   2159   2171   4047     1  0.0000000  1.0460000  1
   2161   2159   2171   4047     1  0.0000000  0.0000000  3
   2161   2159   2171   2172     1  0.0000000  0.6508444  3
   2161   2159   2171   2173     1  0.0000000  0.6508444  3
   2163   2162   2168   4024     1  0.0000000  1.0460000  1
   2163   2162   2168   4024     1  0.0000000  0.0000000  3
   2163   2162   2168   2169     1  0.0000000  0.6508444  3
   2163   2162   2168   2170     1  0.0000000  0.6508444  3
   2164   2162   2168   4024     1  0.0000000  1.0460000  1
   2164   2162   2168   4024     1  0.0000000  0.0000000  3
   2164   2162   2168   2169     1  0.0000000  0.6508444  3
   2164   2162   2168   2170     1  0.0000000  0.6508444  3
   2168   4024   4020   4023     1  0.0000000  1.6038667  3
   2169   2168   4024   4020     1  0.0000000  1.6038667  3
   2170   2168   4024   4020     1  0.0000000  1.6038667  3
   2171   4047   4043   4046     1  0.0000000  1.6038667  3
   2172   2171   4047   4043     1  0.0000000  1.6038667  3
   2173   2171   4047   4043     1  0.0000000  1.6038667  3
   2175   2176   2188   2189     1  0.0000000  0.6508444  3
   2175   2176   2188   2190     1  0.0000000  0.6508444  3
   2175   2179   2191   2192     1  0.0000000  0.6508444  3
   2175   2179   2191   2193     1  0.0000000  0.6508444  3
   2175   2182   2185   2186     1  0.0000000  0.6508444  3
   2175   2182   2185   2187     1  0.0000000  0.6508444  3
   2176   2175   2179   2180     1  0.0000000  1.2552000  3
   2176   2175   2179   2181     1  0.0000000  1.2552000  3
   2176   2175   2182   2183     1  0.0000000  1.2552000  3
   2176   2175   2182   2184     1  0.0000000  1.2552000  3
   2176   2188   2200   2201     1  0.0000000  0.6508444  3
   2176   2188   2200   2202     1  0.0000000  0.6508444  3
   2177   2176   2175   2179     1  0.0000000  1.2552000  3
   2177   2176   2175   2182     1  0.0000000  1.2552000  3
   2177   2176   2188   2200     1  0.0000000  0.6508444  3
   2177   2176   2188   2189     1  0.0000000  0.6508444  3
   2177   2176   2188   2190     1  0.0000000  0.6508444  3
   2178   2176   2175   2179     1  0.0000000  1.2552000  3
   2178   2176   2175   2182     1  0.0000000  1.2552000  3
   2178   2176   2188   2200     1  0.0000000  0.6508444  3
   2178   2176   2188   2189     1  0.0000000  0.6508444  3
   2178   2176   2188   2190     1  0.0000000  0.6508444  3
   2179   2175   2182   2183     1  0.0000000  1.2552000  3
   2179   2175   2182   2184     1  0.0000000  1.2552000  3
   2179   2191   2197   2198     1  0.0000000  0.6508444  3
   2179   2191   2197   2199     1  0.0000000  0.6508444  3
   2180   2179   2175   2182     1  0.0000000  1.2552000  3
   2180   2179   2191   2197     1  0.0000000  0.6508444  3
   2180   2179   2191   2192     1  0.0000000  0.6508444  3
   2180   2179   2191   2193     1  0.0000000  0.6508444  3
   2181   2179   2175   2182     1  0.0000000  1.2552000  3
   2181   2179   2191   2197     1  0.0000000  0.6508444  3
   2181   2179   2191   2192     1  0.0000000  0.6508444  3
   2181   2179   2191   2193     1  0.0000000  0.6508444  3
   2182   2185   2194   2195     1  0.0000000  0.6508444  3
   2182   2185   2194   2196     1  0.0000000  0.6508444  3
   2183   2182   2185   2194     1  0.0000000  0.6508444  3
   2183   2182   2185   2186     1  0.0000000  0.6508444  3
   2183   2182   2185   2187     1  0.0000000  0.6508444  3
   2184   2182   2185   2194     1  0.0000000  0.6508444  3
   2184   2182   2185   2186     1  0.0000000  0.6508444  3
   2184   2182   2185   2187     1  0.0000000  0.6508444  3
   2186   2185   2194   2203     1  0.0000000  1.0460000  1
   2186   2185   2194   2203     1  0.0000000  0.0000000  3
   2186   2185   2194   2195     1  0.0000000  0.6508444  3
   2186   2185   2194   2196     1  0.0000000  0.6508444  3
   2187   2185   2194   2203     1  0.0000000  1.0460000  1
   2187   2185   2194   2203     1  0.0000000  0.0000000  3
   2187   2185   2194   2195     1  0.0000000  0.6508444  3
   2187   2185   2194   2196     1  0.0000000  0.6508444  3
   2189   2188   2200   4093     1  0.0000000  1.0460000  1
   2189   2188   2200   4093     1  0.0000000  0.0000000  3
   2189   2188   2200   2201     1  0.0000000  0.6508444  3
   2189   2188   2200   2202     1  0.0000000  0.6508444  3
   2190   2188   2200   4093     1  0.0000000  1.0460000  1
   2190   2188   2200   4093     1  0.0000000  0.0000000  3
   2190   2188   2200   2201     1  0.0000000  0.6508444  3
   2190   2188   2200   2202     1  0.0000000  0.6508444  3
   2192   2191   2197   4070     1  0.0000000  1.0460000  1
   2192   2191   2197   4070     1  0.0000000  0.0000000  3
   2192   2191   2197   2198     1  0.0000000  0.6508444  3
   2192   2191   2197   2199     1  0.0000000  0.6508444  3
   2193   2191   2197   4070     1  0.0000000  1.0460000  1
   2193   2191   2197   4070     1  0.0000000  0.0000000  3
   2193   2191   2197   2198     1  0.0000000  0.6508444  3
   2193   2191   2197   2199     1  0.0000000  0.6508444  3
   2197   4070   4066   4069     1  0.0000000  1.6038667  3
   2198   2197   4070   4066     1  0.0000000  1.6038667  3
   2199   2197   4070   4066     1  0.0000000  1.6038667  3
   2200   4093   4089   4092     1  0.0000000  1.6038667  3
   2201   2200   4093   4089     1  0.0000000  1.6038667  3
   2202   2200   4093   4089     1  0.0000000  1.6038667  3
   2204   2205   2217   2218     1  0.0000000  0.6508444  3
   2204   2205   2217   2219     1  0.0000000  0.6508444  3
   2204   2208   2220   2221     1  0.0000000  0.6508444  3
   2204   2208   2220   2222     1  0.0000000  0.6508444  3
   2204   2211   2214   2215     1  0.0000000  0.6508444  3
   2204   2211   2214   2216     1  0.0000000  0.6508444  3
   2205   2204   2208   2209     1  0.0000000  1.2552000  3
   2205   2204   2208   2210     1  0.0000000  1.2552000  3
   2205   2204   2211   2212     1  0.0000000  1.2552000  3
   2205   2204   2211   2213     1  0.0000000  1.2552000  3
   2205   2217   2229   2230     1  0.0000000  0.6508444  3
   2205   2217   2229   2231     1  0.0000000  0.6508444  3
   2206   2205   2204   2208     1  0.0000000  1.2552000  3
   2206   2205   2204   2211     1  0.0000000  1.2552000  3
   2206   2205   2217   2229     1  0.0000000  0.6508444  3
   2206   2205   2217   2218     1  0.0000000  0.6508444  3
   2206   2205   2217   2219     1  0.0000000  0.6508444  3
   2207   2205   2204   2208     1  0.0000000  1.2552000  3
   2207   2205   2204   2211     1  0.0000000  1.2552000  3
   2207   2205   2217   2229     1  0.0000000  0.6508444  3
   2207   2205   2217   2218     1  0.0000000  0.6508444  3
   2207   2205   2217   2219     1  0.0000000  0.6508444  3
   2208   2204   2211   2212     1  0.0000000  1.2552000  3
   2208   2204   2211   2213     1  0.0000000  1.2552000  3
   2208   2220   2226   2227     1  0.0000000  0.6508444  3
   2208   2220   2226   2228     1  0.0000000  0.6508444  3
   2209   2208   2204   2211     1  0.0000000  1.2552000  3
   2209   2208   2220   2226     1  0.0000000  0.6508444  3
   2209   2208   2220   2221     1  0.0000000  0.6508444  3
   2209   2208   2220   2222     1  0.0000000  0.6508444  3
   2210   2208   2204   2211     1  0.0000000  1.2552000  3
   2210   2208   2220   2226     1  0.0000000  0.6508444  3
   2210   2208   2220   2221     1  0.0000000  0.6508444  3
   2210   2208   2220   2222     1  0.0000000  0.6508444  3
   2211   2214   2223   2224     1  0.0000000  0.6508444  3
   2211   2214   2223   2225     1  0.0000000  0.6508444  3
   2212   2211   2214   2223     1  0.0000000  0.6508444  3
   2212   2211   2214   2215     1  0.0000000  0.6508444  3
   2212   2211   2214   2216     1  0.0000000  0.6508444  3
   2213   2211   2214   2223     1  0.0000000  0.6508444  3
   2213   2211   2214   2215     1  0.0000000  0.6508444  3
   2213   2211   2214   2216     1  0.0000000  0.6508444  3
   2215   2214   2223   2232     1  0.0000000  1.0460000  1
   2215   2214   2223   2232     1  0.0000000  0.0000000  3
   2215   2214   2223   2224     1  0.0000000  0.6508444  3
   2215   2214   2223   2225     1  0.0000000  0.6508444  3
   2216   2214   2223   2232     1  0.0000000  1.0460000  1
   2216   2214   2223   2232     1  0.0000000  0.0000000  3
   2216   2214   2223   2224     1  0.0000000  0.6508444  3
   2216   2214   2223   2225     1  0.0000000  0.6508444  3
   2218   2217   2229   4139     1  0.0000000  1.0460000  1
   2218   2217   2229   4139     1  0.0000000  0.0000000  3
   2218   2217   2229   2230     1  0.0000000  0.6508444  3
   2218   2217   2229   2231     1  0.0000000  0.6508444  3
   2219   2217   2229   4139     1  0.0000000  1.0460000  1
   2219   2217   2229   4139     1  0.0000000  0.0000000  3
   2219   2217   2229   2230     1  0.0000000  0.6508444  3
   2219   2217   2229   2231     1  0.0000000  0.6508444  3
   2221   2220   2226   4116     1  0.0000000  1.0460000  1
   2221   2220   2226   4116     1  0.0000000  0.0000000  3
   2221   2220   2226   2227     1  0.0000000  0.6508444  3
   2221   2220   2226   2228     1  0.0000000  0.6508444  3
   2222   2220   2226   4116     1  0.0000000  1.0460000  1
   2222   2220   2226   4116     1  0.0000000  0.0000000  3
   2222   2220   2226   2227     1  0.0000000  0.6508444  3
   2222   2220   2226   2228     1  0.0000000  0.6508444  3
   2226   4116   4112   4115     1  0.0000000  1.6038667  3
   2227   2226   4116   4112     1  0.0000000  1.6038667  3
   2228   2226   4116   4112     1  0.0000000  1.6038667  3
   2229   4139   4135   4138     1  0.0000000  1.6038667  3
   2230   2229   4139   4135     1  0.0000000  1.6038667  3
   2231   2229   4139   4135     1  0.0000000  1.6038667  3
   2233   2234   2246   2247     1  0.0000000  0.6508444  3
   2233   2234   2246   2248     1  0.0000000  0.6508444  3
   2233   2237   2249   2250     1  0.0000000  0.6508444  3
   2233   2237   2249   2251     1  0.0000000  0.6508444  3
   2233   2240   2243   2244     1  0.0000000  0.6508444  3
   2233   2240   2243   2245     1  0.0000000  0.6508444  3
   2234   2233   2237   2238     1  0.0000000  1.2552000  3
   2234   2233   2237   2239     1  0.0000000  1.2552000  3
   2234   2233   2240   2241     1  0.0000000  1.2552000  3
   2234   2233   2240   2242     1  0.0000000  1.2552000  3
   2234   2246   2258   2259     1  0.0000000  0.6508444  3
   2234   2246   2258   2260     1  0.0000000  0.6508444  3
   2235   2234   2233   2237     1  0.0000000  1.2552000  3
   2235   2234   2233   2240     1  0.0000000  1.2552000  3
   2235   2234   2246   2258     1  0.0000000  0.6508444  3
   2235   2234   2246   2247     1  0.0000000  0.6508444  3
   2235   2234   2246   2248     1  0.0000000  0.6508444  3
   2236   2234   2233   2237     1  0.0000000  1.2552000  3
   2236   2234   2233   2240     1  0.0000000  1.2552000  3
   2236   2234   2246   2258     1  0.0000000  0.6508444  3
   2236   2234   2246   2247     1  0.0000000  0.6508444  3
   2236   2234   2246   2248     1  0.0000000  0.6508444  3
   2237   2233   2240   2241     1  0.0000000  1.2552000  3
   2237   2233   2240   2242     1  0.0000000  1.2552000  3
   2237   2249   2255   2256     1  0.0000000  0.6508444  3
   2237   2249   2255   2257     1  0.0000000  0.6508444  3
   2238   2237   2233   2240     1  0.0000000  1.2552000  3
   2238   2237   2249   2255     1  0.0000000  0.6508444  3
   2238   2237   2249   2250     1  0.0000000  0.6508444  3
   2238   2237   2249   2251     1  0.0000000  0.6508444  3
   2239   2237   2233   2240     1  0.0000000  1.2552000  3
   2239   2237   2249   2255     1  0.0000000  0.6508444  3
   2239   2237   2249   2250     1  0.0000000  0.6508444  3
   2239   2237   2249   2251     1  0.0000000  0.6508444  3
   2240   2243   2252   2253     1  0.0000000  0.6508444  3
   2240   2243   2252   2254     1  0.0000000  0.6508444  3
   2241   2240   2243   2252     1  0.0000000  0.6508444  3
   2241   2240   2243   2244     1  0.0000000  0.6508444  3
   2241   2240   2243   2245     1  0.0000000  0.6508444  3
   2242   2240   2243   2252     1  0.0000000  0.6508444  3
   2242   2240   2243   2244     1  0.0000000  0.6508444  3
   2242   2240   2243   2245     1  0.0000000  0.6508444  3
   2244   2243   2252   2261     1  0.0000000  1.0460000  1
   2244   2243   2252   2261     1  0.0000000  0.0000000  3
   2244   2243   2252   2253     1  0.0000000  0.6508444  3
   2244   2243   2252   2254     1  0.0000000  0.6508444  3
   2245   2243   2252   2261     1  0.0000000  1.0460000  1
   2245   2243   2252   2261     1  0.0000000  0.0000000  3
   2245   2243   2252   2253     1  0.0000000  0.6508444  3
   2245   2243   2252   2254     1  0.0000000  0.6508444  3
   2247   2246   2258   4185     1  0.0000000  1.0460000  1
   2247   2246   2258   4185     1  0.0000000  0.0000000  3
   2247   2246   2258   2259     1  0.0000000  0.6508444  3
   2247   2246   2258   2260     1  0.0000000  0.6508444  3
   2248   2246   2258   4185     1  0.0000000  1.0460000  1
   2248   2246   2258   4185     1  0.0000000  0.0000000  3
   2248   2246   2258   2259     1  0.0000000  0.6508444  3
   2248   2246   2258   2260     1  0.0000000  0.6508444  3
   2250   2249   2255   4162     1  0.0000000  1.0460000  1
   2250   2249   2255   4162     1  0.0000000  0.0000000  3
   2250   2249   2255   2256     1  0.0000000  0.6508444  3
   2250   2249   2255   2257     1  0.0000000  0.6508444  3
   2251   2249   2255   4162     1  0.0000000  1.0460000  1
   2251   2249   2255   4162     1  0.0000000  0.0000000  3
   2251   2249   2255   2256     1  0.0000000  0.6508444  3
   2251   2249   2255   2257     1  0.0000000  0.6508444  3
   2255   4162   4158   4161     1  0.0000000  1.6038667  3
   2256   2255   4162   4158     1  0.0000000  1.6038667  3
   2257   2255   4162   4158     1  0.0000000  1.6038667  3
   2258   4185   4181   4184     1  0.0000000  1.6038667  3
   2259   2258   4185   4181     1  0.0000000  1.6038667  3
   2260   2258   4185   4181     1  0.0000000  1.6038667  3
   2262   2263   2275   2276     1  0.0000000  0.6508444  3
   2262   2263   2275   2277     1  0.0000000  0.6508444  3
   2262   2266   2278   2279     1  0.0000000  0.6508444  3
   2262   2266   2278   2280     1  0.0000000  0.6508444  3
   2262   2269   2272   2273     1  0.0000000  0.6508444  3
   2262   2269   2272   2274     1  0.0000000  0.6508444  3
   2263   2262   2266   2267     1  0.0000000  1.2552000  3
   2263   2262   2266   2268     1  0.0000000  1.2552000  3
   2263   2262   2269   2270     1  0.0000000  1.2552000  3
   2263   2262   2269   2271     1  0.0000000  1.2552000  3
   2263   2275   2287   2288     1  0.0000000  0.6508444  3
   2263   2275   2287   2289     1  0.0000000  0.6508444  3
   2264   2263   2262   2266     1  0.0000000  1.2552000  3
   2264   2263   2262   2269     1  0.0000000  1.2552000  3
   2264   2263   2275   2287     1  0.0000000  0.6508444  3
   2264   2263   2275   2276     1  0.0000000  0.6508444  3
   2264   2263   2275   2277     1  0.0000000  0.6508444  3
   2265   2263   2262   2266     1  0.0000000  1.2552000  3
   2265   2263   2262   2269     1  0.0000000  1.2552000  3
   2265   2263   2275   2287     1  0.0000000  0.6508444  3
   2265   2263   2275   2276     1  0.0000000  0.6508444  3
   2265   2263   2275   2277     1  0.0000000  0.6508444  3
   2266   2262   2269   2270     1  0.0000000  1.2552000  3
   2266   2262   2269   2271     1  0.0000000  1.2552000  3
   2266   2278   2284   2285     1  0.0000000  0.6508444  3
   2266   2278   2284   2286     1  0.0000000  0.6508444  3
   2267   2266   2262   2269     1  0.0000000  1.2552000  3
   2267   2266   2278   2284     1  0.0000000  0.6508444  3
   2267   2266   2278   2279     1  0.0000000  0.6508444  3
   2267   2266   2278   2280     1  0.0000000  0.6508444  3
   2268   2266   2262   2269     1  0.0000000  1.2552000  3
   2268   2266   2278   2284     1  0.0000000  0.6508444  3
   2268   2266   2278   2279     1  0.0000000  0.6508444  3
   2268   2266   2278   2280     1  0.0000000  0.6508444  3
   2269   2272   2281   2282     1  0.0000000  0.6508444  3
   2269   2272   2281   2283     1  0.0000000  0.6508444  3
   2270   2269   2272   2281     1  0.0000000  0.6508444  3
   2270   2269   2272   2273     1  0.0000000  0.6508444  3
   2270   2269   2272   2274     1  0.0000000  0.6508444  3
   2271   2269   2272   2281     1  0.0000000  0.6508444  3
   2271   2269   2272   2273     1  0.0000000  0.6508444  3
   2271   2269   2272   2274     1  0.0000000  0.6508444  3
   2273   2272   2281   2290     1  0.0000000  1.0460000  1
   2273   2272   2281   2290     1  0.0000000  0.0000000  3
   2273   2272   2281   2282     1  0.0000000  0.6508444  3
   2273   2272   2281   2283     1  0.0000000  0.6508444  3
   2274   2272   2281   2290     1  0.0000000  1.0460000  1
   2274   2272   2281   2290     1  0.0000000  0.0000000  3
   2274   2272   2281   2282     1  0.0000000  0.6508444  3
   2274   2272   2281   2283     1  0.0000000  0.6508444  3
   2276   2275   2287   4231     1  0.0000000  1.0460000  1
   2276   2275   2287   4231     1  0.0000000  0.0000000  3
   2276   2275   2287   2288     1  0.0000000  0.6508444  3
   2276   2275   2287   2289     1  0.0000000  0.6508444  3
   2277   2275   2287   4231     1  0.0000000  1.0460000  1
   2277   2275   2287   4231     1  0.0000000  0.0000000  3
   2277   2275   2287   2288     1  0.0000000  0.6508444  3
   2277   2275   2287   2289     1  0.0000000  0.6508444  3
   2279   2278   2284   4208     1  0.0000000  1.0460000  1
   2279   2278   2284   4208     1  0.0000000  0.0000000  3
   2279   2278   2284   2285     1  0.0000000  0.6508444  3
   2279   2278   2284   2286     1  0.0000000  0.6508444  3
   2280   2278   2284   4208     1  0.0000000  1.0460000  1
   2280   2278   2284   4208     1  0.0000000  0.0000000  3
   2280   2278   2284   2285     1  0.0000000  0.6508444  3
   2280   2278   2284   2286     1  0.0000000  0.6508444  3
   2284   4208   4204   4207     1  0.0000000  1.6038667  3
   2285   2284   4208   4204     1  0.0000000  1.6038667  3
   2286   2284   4208   4204     1  0.0000000  1.6038667  3
   2287   4231   4227   4230     1  0.0000000  1.6038667  3
   2288   2287   4231   4227     1  0.0000000  1.6038667  3
   2289   2287   4231   4227     1  0.0000000  1.6038667  3
   2291   2292   2304   2305     1  0.0000000  0.6508444  3
   2291   2292   2304   2306     1  0.0000000  0.6508444  3
   2291   2295   2307   2308     1  0.0000000  0.6508444  3
   2291   2295   2307   2309     1  0.0000000  0.6508444  3
   2291   2298   2301   2302     1  0.0000000  0.6508444  3
   2291   2298   2301   2303     1  0.0000000  0.6508444  3
   2292   2291   2295   2296     1  0.0000000  1.2552000  3
   2292   2291   2295   2297     1  0.0000000  1.2552000  3
   2292   2291   2298   2299     1  0.0000000  1.2552000  3
   2292   2291   2298   2300     1  0.0000000  1.2552000  3
   2292   2304   2316   2317     1  0.0000000  0.6508444  3
   2292   2304   2316   2318     1  0.0000000  0.6508444  3
   2293   2292   2291   2295     1  0.0000000  1.2552000  3
   2293   2292   2291   2298     1  0.0000000  1.2552000  3
   2293   2292   2304   2316     1  0.0000000  0.6508444  3
   2293   2292   2304   2305     1  0.0000000  0.6508444  3
   2293   2292   2304   2306     1  0.0000000  0.6508444  3
   2294   2292   2291   2295     1  0.0000000  1.2552000  3
   2294   2292   2291   2298     1  0.0000000  1.2552000  3
   2294   2292   2304   2316     1  0.0000000  0.6508444  3
   2294   2292   2304   2305     1  0.0000000  0.6508444  3
   2294   2292   2304   2306     1  0.0000000  0.6508444  3
   2295   2291   2298   2299     1  0.0000000  1.2552000  3
   2295   2291   2298   2300     1  0.0000000  1.2552000  3
   2295   2307   2313   2314     1  0.0000000  0.6508444  3
   2295   2307   2313   2315     1  0.0000000  0.6508444  3
   2296   2295   2291   2298     1  0.0000000  1.2552000  3
   2296   2295   2307   2313     1  0.0000000  0.6508444  3
   2296   2295   2307   2308     1  0.0000000  0.6508444  3
   2296   2295   2307   2309     1  0.0000000  0.6508444  3
   2297   2295   2291   2298     1  0.0000000  1.2552000  3
   2297   2295   2307   2313     1  0.0000000  0.6508444  3
   2297   2295   2307   2308     1  0.0000000  0.6508444  3
   2297   2295   2307   2309     1  0.0000000  0.6508444  3
   2298   2301   2310   2311     1  0.0000000  0.6508444  3
   2298   2301   2310   2312     1  0.0000000  0.6508444  3
   2299   2298   2301   2310     1  0.0000000  0.6508444  3
   2299   2298   2301   2302     1  0.0000000  0.6508444  3
   2299   2298   2301   2303     1  0.0000000  0.6508444  3
   2300   2298   2301   2310     1  0.0000000  0.6508444  3
   2300   2298   2301   2302     1  0.0000000  0.6508444  3
   2300   2298   2301   2303     1  0.0000000  0.6508444  3
   2302   2301   2310   2319     1  0.0000000  1.0460000  1
   2302   2301   2310   2319     1  0.0000000  0.0000000  3
   2302   2301   2310   2311     1  0.0000000  0.6508444  3
   2302   2301   2310   2312     1  0.0000000  0.6508444  3
   2303   2301   2310   2319     1  0.0000000  1.0460000  1
   2303   2301   2310   2319     1  0.0000000  0.0000000  3
   2303   2301   2310   2311     1  0.0000000  0.6508444  3
   2303   2301   2310   2312     1  0.0000000  0.6508444  3
   2305   2304   2316   4277     1  0.0000000  1.0460000  1
   2305   2304   2316   4277     1  0.0000000  0.0000000  3
   2305   2304   2316   2317     1  0.0000000  0.6508444  3
   2305   2304   2316   2318     1  0.0000000  0.6508444  3
   2306   2304   2316   4277     1  0.0000000  1.0460000  1
   2306   2304   2316   4277     1  0.0000000  0.0000000  3
   2306   2304   2316   2317     1  0.0000000  0.6508444  3
   2306   2304   2316   2318     1  0.0000000  0.6508444  3
   2308   2307   2313   4254     1  0.0000000  1.0460000  1
   2308   2307   2313   4254     1  0.0000000  0.0000000  3
   2308   2307   2313   2314     1  0.0000000  0.6508444  3
   2308   2307   2313   2315     1  0.0000000  0.6508444  3
   2309   2307   2313   4254     1  0.0000000  1.0460000  1
   2309   2307   2313   4254     1  0.0000000  0.0000000  3
   2309   2307   2313   2314     1  0.0000000  0.6508444  3
   2309   2307   2313   2315     1  0.0000000  0.6508444  3
   2313   4254   4250   4253     1  0.0000000  1.6038667  3
   2314   2313   4254   4250     1  0.0000000  1.6038667  3
   2315   2313   4254   4250     1  0.0000000  1.6038667  3
   2316   4277   4273   4276     1  0.0000000  1.6038667  3
   2317   2316   4277   4273     1  0.0000000  1.6038667  3
   2318   2316   4277   4273     1  0.0000000  1.6038667  3
   2320   2321   2333   2334     1  0.0000000  0.6508444  3
   2320   2321   2333   2335     1  0.0000000  0.6508444  3
   2320   2324   2336   2337     1  0.0000000  0.6508444  3
   2320   2324   2336   2338     1  0.0000000  0.6508444  3
   2320   2327   2330   2331     1  0.0000000  0.6508444  3
   2320   2327   2330   2332     1  0.0000000  0.6508444  3
   2321   2320   2324   2325     1  0.0000000  1.2552000  3
   2321   2320   2324   2326     1  0.0000000  1.2552000  3
   2321   2320   2327   2328     1  0.0000000  1.2552000  3
   2321   2320   2327   2329     1  0.0000000  1.2552000  3
   2321   2333   2345   2346     1  0.0000000  0.6508444  3
   2321   2333   2345   2347     1  0.0000000  0.6508444  3
   2322   2321   2320   2324     1  0.0000000  1.2552000  3
   2322   2321   2320   2327     1  0.0000000  1.2552000  3
   2322   2321   2333   2345     1  0.0000000  0.6508444  3
   2322   2321   2333   2334     1  0.0000000  0.6508444  3
   2322   2321   2333   2335     1  0.0000000  0.6508444  3
   2323   2321   2320   2324     1  0.0000000  1.2552000  3
   2323   2321   2320   2327     1  0.0000000  1.2552000  3
   2323   2321   2333   2345     1  0.0000000  0.6508444  3
   2323   2321   2333   2334     1  0.0000000  0.6508444  3
   2323   2321   2333   2335     1  0.0000000  0.6508444  3
   2324   2320   2327   2328     1  0.0000000  1.2552000  3
   2324   2320   2327   2329     1  0.0000000  1.2552000  3
   2324   2336   2342   2343     1  0.0000000  0.6508444  3
   2324   2336   2342   2344     1  0.0000000  0.6508444  3
   2325   2324   2320   2327     1  0.0000000  1.2552000  3
   2325   2324   2336   2342     1  0.0000000  0.6508444  3
   2325   2324   2336   2337     1  0.0000000  0.6508444  3
   2325   2324   2336   2338     1  0.0000000  0.6508444  3
   2326   2324   2320   2327     1  0.0000000  1.2552000  3
   2326   2324   2336   2342     1  0.0000000  0.6508444  3
   2326   2324   2336   2337     1  0.0000000  0.6508444  3
   2326   2324   2336   2338     1  0.0000000  0.6508444  3
   2327   2330   2339   2340     1  0.0000000  0.6508444  3
   2327   2330   2339   2341     1  0.0000000  0.6508444  3
   2328   2327   2330   2339     1  0.0000000  0.6508444  3
   2328   2327   2330   2331     1  0.0000000  0.6508444  3
   2328   2327   2330   2332     1  0.0000000  0.6508444  3
   2329   2327   2330   2339     1  0.0000000  0.6508444  3
   2329   2327   2330   2331     1  0.0000000  0.6508444  3
   2329   2327   2330   2332     1  0.0000000  0.6508444  3
   2331   2330   2339   2348     1  0.0000000  1.0460000  1
   2331   2330   2339   2348     1  0.0000000  0.0000000  3
   2331   2330   2339   2340     1  0.0000000  0.6508444  3
   2331   2330   2339   2341     1  0.0000000  0.6508444  3
   2332   2330   2339   2348     1  0.0000000  1.0460000  1
   2332   2330   2339   2348     1  0.0000000  0.0000000  3
   2332   2330   2339   2340     1  0.0000000  0.6508444  3
   2332   2330   2339   2341     1  0.0000000  0.6508444  3
   2334   2333   2345   4323     1  0.0000000  1.0460000  1
   2334   2333   2345   4323     1  0.0000000  0.0000000  3
   2334   2333   2345   2346     1  0.0000000  0.6508444  3
   2334   2333   2345   2347     1  0.0000000  0.6508444  3
   2335   2333   2345   4323     1  0.0000000  1.0460000  1
   2335   2333   2345   4323     1  0.0000000  0.0000000  3
   2335   2333   2345   2346     1  0.0000000  0.6508444  3
   2335   2333   2345   2347     1  0.0000000  0.6508444  3
   2337   2336   2342   4300     1  0.0000000  1.0460000  1
   2337   2336   2342   4300     1  0.0000000  0.0000000  3
   2337   2336   2342   2343     1  0.0000000  0.6508444  3
   2337   2336   2342   2344     1  0.0000000  0.6508444  3
   2338   2336   2342   4300     1  0.0000000  1.0460000  1
   2338   2336   2342   4300     1  0.0000000  0.0000000  3
   2338   2336   2342   2343     1  0.0000000  0.6508444  3
   2338   2336   2342   2344     1  0.0000000  0.6508444  3
   2342   4300   4296   4299     1  0.0000000  1.6038667  3
   2343   2342   4300   4296     1  0.0000000  1.6038667  3
   2344   2342   4300   4296     1  0.0000000  1.6038667  3
   2345   4323   4319   4322     1  0.0000000  1.6038667  3
   2346   2345   4323   4319     1  0.0000000  1.6038667  3
   2347   2345   4323   4319     1  0.0000000  1.6038667  3
   2349   2350   2362   2363     1  0.0000000  0.6508444  3
   2349   2350   2362   2364     1  0.0000000  0.6508444  3
   2349   2353   2365   2366     1  0.0000000  0.6508444  3
   2349   2353   2365   2367     1  0.0000000  0.6508444  3
   2349   2356   2359   2360     1  0.0000000  0.6508444  3
   2349   2356   2359   2361     1  0.0000000  0.6508444  3
   2350   2349   2353   2354     1  0.0000000  1.2552000  3
   2350   2349   2353   2355     1  0.0000000  1.2552000  3
   2350   2349   2356   2357     1  0.0000000  1.2552000  3
   2350   2349   2356   2358     1  0.0000000  1.2552000  3
   2350   2362   2374   2375     1  0.0000000  0.6508444  3
   2350   2362   2374   2376     1  0.0000000  0.6508444  3
   2351   2350   2349   2353     1  0.0000000  1.2552000  3
   2351   2350   2349   2356     1  0.0000000  1.2552000  3
   2351   2350   2362   2374     1  0.0000000  0.6508444  3
   2351   2350   2362   2363     1  0.0000000  0.6508444  3
   2351   2350   2362   2364     1  0.0000000  0.6508444  3
   2352   2350   2349   2353     1  0.0000000  1.2552000  3
   2352   2350   2349   2356     1  0.0000000  1.2552000  3
   2352   2350   2362   2374     1  0.0000000  0.6508444  3
   2352   2350   2362   2363     1  0.0000000  0.6508444  3
   2352   2350   2362   2364     1  0.0000000  0.6508444  3
   2353   2349   2356   2357     1  0.0000000  1.2552000  3
   2353   2349   2356   2358     1  0.0000000  1.2552000  3
   2353   2365   2371   2372     1  0.0000000  0.6508444  3
   2353   2365   2371   2373     1  0.0000000  0.6508444  3
   2354   2353   2349   2356     1  0.0000000  1.2552000  3
   2354   2353   2365   2371     1  0.0000000  0.6508444  3
   2354   2353   2365   2366     1  0.0000000  0.6508444  3
   2354   2353   2365   2367     1  0.0000000  0.6508444  3
   2355   2353   2349   2356     1  0.0000000  1.2552000  3
   2355   2353   2365   2371     1  0.0000000  0.6508444  3
   2355   2353   2365   2366     1  0.0000000  0.6508444  3
   2355   2353   2365   2367     1  0.0000000  0.6508444  3
   2356   2359   2368   2369     1  0.0000000  0.6508444  3
   2356   2359   2368   2370     1  0.0000000  0.6508444  3
   2357   2356   2359   2368     1  0.0000000  0.6508444  3
   2357   2356   2359   2360     1  0.0000000  0.6508444  3
   2357   2356   2359   2361     1  0.0000000  0.6508444  3
   2358   2356   2359   2368     1  0.0000000  0.6508444  3
   2358   2356   2359   2360     1  0.0000000  0.6508444  3
   2358   2356   2359   2361     1  0.0000000  0.6508444  3
   2360   2359   2368   2377     1  0.0000000  1.0460000  1
   2360   2359   2368   2377     1  0.0000000  0.0000000  3
   2360   2359   2368   2369     1  0.0000000  0.6508444  3
   2360   2359   2368   2370     1  0.0000000  0.6508444  3
   2361   2359   2368   2377     1  0.0000000  1.0460000  1
   2361   2359   2368   2377     1  0.0000000  0.0000000  3
   2361   2359   2368   2369     1  0.0000000  0.6508444  3
   2361   2359   2368   2370     1  0.0000000  0.6508444  3
   2363   2362   2374   4369     1  0.0000000  1.0460000  1
   2363   2362   2374   4369     1  0.0000000  0.0000000  3
   2363   2362   2374   2375     1  0.0000000  0.6508444  3
   2363   2362   2374   2376     1  0.0000000  0.6508444  3
   2364   2362   2374   4369     1  0.0000000  1.0460000  1
   2364   2362   2374   4369     1  0.0000000  0.0000000  3
   2364   2362   2374   2375     1  0.0000000  0.6508444  3
   2364   2362   2374   2376     1  0.0000000  0.6508444  3
   2366   2365   2371   4346     1  0.0000000  1.0460000  1
   2366   2365   2371   4346     1  0.0000000  0.0000000  3
   2366   2365   2371   2372     1  0.0000000  0.6508444  3
   2366   2365   2371   2373     1  0.0000000  0.6508444  3
   2367   2365   2371   4346     1  0.0000000  1.0460000  1
   2367   2365   2371   4346     1  0.0000000  0.0000000  3
   2367   2365   2371   2372     1  0.0000000  0.6508444  3
   2367   2365   2371   2373     1  0.0000000  0.6508444  3
   2371   4346   4342   4345     1  0.0000000  1.6038667  3
   2372   2371   4346   4342     1  0.0000000  1.6038667  3
   2373   2371   4346   4342     1  0.0000000  1.6038667  3
   2374   4369   4365   4368     1  0.0000000  1.6038667  3
   2375   2374   4369   4365     1  0.0000000  1.6038667  3
   2376   2374   4369   4365     1  0.0000000  1.6038667  3
   2378   2379   2391   2392     1  0.0000000  0.6508444  3
   2378   2379   2391   2393     1  0.0000000  0.6508444  3
   2378   2382   2394   2395     1  0.0000000  0.6508444  3
   2378   2382   2394   2396     1  0.0000000  0.6508444  3
   2378   2385   2388   2389     1  0.0000000  0.6508444  3
   2378   2385   2388   2390     1  0.0000000  0.6508444  3
   2379   2378   2382   2383     1  0.0000000  1.2552000  3
   2379   2378   2382   2384     1  0.0000000  1.2552000  3
   2379   2378   2385   2386     1  0.0000000  1.2552000  3
   2379   2378   2385   2387     1  0.0000000  1.2552000  3
   2379   2391   2403   2404     1  0.0000000  0.6508444  3
   2379   2391   2403   2405     1  0.0000000  0.6508444  3
   2380   2379   2378   2382     1  0.0000000  1.2552000  3
   2380   2379   2378   2385     1  0.0000000  1.2552000  3
   2380   2379   2391   2403     1  0.0000000  0.6508444  3
   2380   2379   2391   2392     1  0.0000000  0.6508444  3
   2380   2379   2391   2393     1  0.0000000  0.6508444  3
   2381   2379   2378   2382     1  0.0000000  1.2552000  3
   2381   2379   2378   2385     1  0.0000000  1.2552000  3
   2381   2379   2391   2403     1  0.0000000  0.6508444  3
   2381   2379   2391   2392     1  0.0000000  0.6508444  3
   2381   2379   2391   2393     1  0.0000000  0.6508444  3
   2382   2378   2385   2386     1  0.0000000  1.2552000  3
   2382   2378   2385   2387     1  0.0000000  1.2552000  3
   2382   2394   2400   2401     1  0.0000000  0.6508444  3
   2382   2394   2400   2402     1  0.0000000  0.6508444  3
   2383   2382   2378   2385     1  0.0000000  1.2552000  3
   2383   2382   2394   2400     1  0.0000000  0.6508444  3
   2383   2382   2394   2395     1  0.0000000  0.6508444  3
   2383   2382   2394   2396     1  0.0000000  0.6508444  3
   2384   2382   2378   2385     1  0.0000000  1.2552000  3
   2384   2382   2394   2400     1  0.0000000  0.6508444  3
   2384   2382   2394   2395     1  0.0000000  0.6508444  3
   2384   2382   2394   2396     1  0.0000000  0.6508444  3
   2385   2388   2397   2398     1  0.0000000  0.6508444  3
   2385   2388   2397   2399     1  0.0000000  0.6508444  3
   2386   2385   2388   2397     1  0.0000000  0.6508444  3
   2386   2385   2388   2389     1  0.0000000  0.6508444  3
   2386   2385   2388   2390     1  0.0000000  0.6508444  3
   2387   2385   2388   2397     1  0.0000000  0.6508444  3
   2387   2385   2388   2389     1  0.0000000  0.6508444  3
   2387   2385   2388   2390     1  0.0000000  0.6508444  3
   2389   2388   2397   2406     1  0.0000000  1.0460000  1
   2389   2388   2397   2406     1  0.0000000  0.0000000  3
   2389   2388   2397   2398     1  0.0000000  0.6508444  3
   2389   2388   2397   2399     1  0.0000000  0.6508444  3
   2390   2388   2397   2406     1  0.0000000  1.0460000  1
   2390   2388   2397   2406     1  0.0000000  0.0000000  3
   2390   2388   2397   2398     1  0.0000000  0.6508444  3
   2390   2388   2397   2399     1  0.0000000  0.6508444  3
   2392   2391   2403   4415     1  0.0000000  1.0460000  1
   2392   2391   2403   4415     1  0.0000000  0.0000000  3
   2392   2391   2403   2404     1  0.0000000  0.6508444  3
   2392   2391   2403   2405     1  0.0000000  0.6508444  3
   2393   2391   2403   4415     1  0.0000000  1.0460000  1
   2393   2391   2403   4415     1  0.0000000  0.0000000  3
   2393   2391   2403   2404     1  0.0000000  0.6508444  3
   2393   2391   2403   2405     1  0.0000000  0.6508444  3
   2395   2394   2400   4392     1  0.0000000  1.0460000  1
   2395   2394   2400   4392     1  0.0000000  0.0000000  3
   2395   2394   2400   2401     1  0.0000000  0.6508444  3
   2395   2394   2400   2402     1  0.0000000  0.6508444  3
   2396   2394   2400   4392     1  0.0000000  1.0460000  1
   2396   2394   2400   4392     1  0.0000000  0.0000000  3
   2396   2394   2400   2401     1  0.0000000  0.6508444  3
   2396   2394   2400   2402     1  0.0000000  0.6508444  3
   2400   4392   4388   4391     1  0.0000000  1.6038667  3
   2401   2400   4392   4388     1  0.0000000  1.6038667  3
   2402   2400   4392   4388     1  0.0000000  1.6038667  3
   2403   4415   4411   4414     1  0.0000000  1.6038667  3
   2404   2403   4415   4411     1  0.0000000  1.6038667  3
   2405   2403   4415   4411     1  0.0000000  1.6038667  3
   2407   2408   2420   2421     1  0.0000000  0.6508444  3
   2407   2408   2420   2422     1  0.0000000  0.6508444  3
   2407   2411   2423   2424     1  0.0000000  0.6508444  3
   2407   2411   2423   2425     1  0.0000000  0.6508444  3
   2407   2414   2417   2418     1  0.0000000  0.6508444  3
   2407   2414   2417   2419     1  0.0000000  0.6508444  3
   2408   2407   2411   2412     1  0.0000000  1.2552000  3
   2408   2407   2411   2413     1  0.0000000  1.2552000  3
   2408   2407   2414   2415     1  0.0000000  1.2552000  3
   2408   2407   2414   2416     1  0.0000000  1.2552000  3
   2408   2420   2432   2433     1  0.0000000  0.6508444  3
   2408   2420   2432   2434     1  0.0000000  0.6508444  3
   2409   2408   2407   2411     1  0.0000000  1.2552000  3
   2409   2408   2407   2414     1  0.0000000  1.2552000  3
   2409   2408   2420   2432     1  0.0000000  0.6508444  3
   2409   2408   2420   2421     1  0.0000000  0.6508444  3
   2409   2408   2420   2422     1  0.0000000  0.6508444  3
   2410   2408   2407   2411     1  0.0000000  1.2552000  3
   2410   2408   2407   2414     1  0.0000000  1.2552000  3
   2410   2408   2420   2432     1  0.0000000  0.6508444  3
   2410   2408   2420   2421     1  0.0000000  0.6508444  3
   2410   2408   2420   2422     1  0.0000000  0.6508444  3
   2411   2407   2414   2415     1  0.0000000  1.2552000  3
   2411   2407   2414   2416     1  0.0000000  1.2552000  3
   2411   2423   2429   2430     1  0.0000000  0.6508444  3
   2411   2423   2429   2431     1  0.0000000  0.6508444  3
   2412   2411   2407   2414     1  0.0000000  1.2552000  3
   2412   2411   2423   2429     1  0.0000000  0.6508444  3
   2412   2411   2423   2424     1  0.0000000  0.6508444  3
   2412   2411   2423   2425     1  0.0000000  0.6508444  3
   2413   2411   2407   2414     1  0.0000000  1.2552000  3
   2413   2411   2423   2429     1  0.0000000  0.6508444  3
   2413   2411   2423   2424     1  0.0000000  0.6508444  3
   2413   2411   2423   2425     1  0.0000000  0.6508444  3
   2414   2417   2426   2427     1  0.0000000  0.6508444  3
   2414   2417   2426   2428     1  0.0000000  0.6508444  3
   2415   2414   2417   2426     1  0.0000000  0.6508444  3
   2415   2414   2417   2418     1  0.0000000  0.6508444  3
   2415   2414   2417   2419     1  0.0000000  0.6508444  3
   2416   2414   2417   2426     1  0.0000000  0.6508444  3
   2416   2414   2417   2418     1  0.0000000  0.6508444  3
   2416   2414   2417   2419     1  0.0000000  0.6508444  3
   2418   2417   2426   2435     1  0.0000000  1.0460000  1
   2418   2417   2426   2435     1  0.0000000  0.0000000  3
   2418   2417   2426   2427     1  0.0000000  0.6508444  3
   2418   2417   2426   2428     1  0.0000000  0.6508444  3
   2419   2417   2426   2435     1  0.0000000  1.0460000  1
   2419   2417   2426   2435     1  0.0000000  0.0000000  3
   2419   2417   2426   2427     1  0.0000000  0.6508444  3
   2419   2417   2426   2428     1  0.0000000  0.6508444  3
   2421   2420   2432   4461     1  0.0000000  1.0460000  1
   2421   2420   2432   4461     1  0.0000000  0.0000000  3
   2421   2420   2432   2433     1  0.0000000  0.6508444  3
   2421   2420   2432   2434     1  0.0000000  0.6508444  3
   2422   2420   2432   4461     1  0.0000000  1.0460000  1
   2422   2420   2432   4461     1  0.0000000  0.0000000  3
   2422   2420   2432   2433     1  0.0000000  0.6508444  3
   2422   2420   2432   2434     1  0.0000000  0.6508444  3
   2424   2423   2429   4438     1  0.0000000  1.0460000  1
   2424   2423   2429   4438     1  0.0000000  0.0000000  3
   2424   2423   2429   2430     1  0.0000000  0.6508444  3
   2424   2423   2429   2431     1  0.0000000  0.6508444  3
   2425   2423   2429   4438     1  0.0000000  1.0460000  1
   2425   2423   2429   4438     1  0.0000000  0.0000000  3
   2425   2423   2429   2430     1  0.0000000  0.6508444  3
   2425   2423   2429   2431     1  0.0000000  0.6508444  3
   2429   4438   4434   4437     1  0.0000000  1.6038667  3
   2430   2429   4438   4434     1  0.0000000  1.6038667  3
   2431   2429   4438   4434     1  0.0000000  1.6038667  3
   2432   4461   4457   4460     1  0.0000000  1.6038667  3
   2433   2432   4461   4457     1  0.0000000  1.6038667  3
   2434   2432   4461   4457     1  0.0000000  1.6038667  3
   2436   2437   2449   2450     1  0.0000000  0.6508444  3
   2436   2437   2449   2451     1  0.0000000  0.6508444  3
   2436   2440   2452   2453     1  0.0000000  0.6508444  3
   2436   2440   2452   2454     1  0.0000000  0.6508444  3
   2436   2443   2446   2447     1  0.0000000  0.6508444  3
   2436   2443   2446   2448     1  0.0000000  0.6508444  3
   2437   2436   2440   2441     1  0.0000000  1.2552000  3
   2437   2436   2440   2442     1  0.0000000  1.2552000  3
   2437   2436   2443   2444     1  0.0000000  1.2552000  3
   2437   2436   2443   2445     1  0.0000000  1.2552000  3
   2437   2449   2461   2462     1  0.0000000  0.6508444  3
   2437   2449   2461   2463     1  0.0000000  0.6508444  3
   2438   2437   2436   2440     1  0.0000000  1.2552000  3
   2438   2437   2436   2443     1  0.0000000  1.2552000  3
   2438   2437   2449   2461     1  0.0000000  0.6508444  3
   2438   2437   2449   2450     1  0.0000000  0.6508444  3
   2438   2437   2449   2451     1  0.0000000  0.6508444  3
   2439   2437   2436   2440     1  0.0000000  1.2552000  3
   2439   2437   2436   2443     1  0.0000000  1.2552000  3
   2439   2437   2449   2461     1  0.0000000  0.6508444  3
   2439   2437   2449   2450     1  0.0000000  0.6508444  3
   2439   2437   2449   2451     1  0.0000000  0.6508444  3
   2440   2436   2443   2444     1  0.0000000  1.2552000  3
   2440   2436   2443   2445     1  0.0000000  1.2552000  3
   2440   2452   2458   2459     1  0.0000000  0.6508444  3
   2440   2452   2458   2460     1  0.0000000  0.6508444  3
   2441   2440   2436   2443     1  0.0000000  1.2552000  3
   2441   2440   2452   2458     1  0.0000000  0.6508444  3
   2441   2440   2452   2453     1  0.0000000  0.6508444  3
   2441   2440   2452   2454     1  0.0000000  0.6508444  3
   2442   2440   2436   2443     1  0.0000000  1.2552000  3
   2442   2440   2452   2458     1  0.0000000  0.6508444  3
   2442   2440   2452   2453     1  0.0000000  0.6508444  3
   2442   2440   2452   2454     1  0.0000000  0.6508444  3
   2443   2446   2455   2456     1  0.0000000  0.6508444  3
   2443   2446   2455   2457     1  0.0000000  0.6508444  3
   2444   2443   2446   2455     1  0.0000000  0.6508444  3
   2444   2443   2446   2447     1  0.0000000  0.6508444  3
   2444   2443   2446   2448     1  0.0000000  0.6508444  3
   2445   2443   2446   2455     1  0.0000000  0.6508444  3
   2445   2443   2446   2447     1  0.0000000  0.6508444  3
   2445   2443   2446   2448     1  0.0000000  0.6508444  3
   2447   2446   2455   2464     1  0.0000000  1.0460000  1
   2447   2446   2455   2464     1  0.0000000  0.0000000  3
   2447   2446   2455   2456     1  0.0000000  0.6508444  3
   2447   2446   2455   2457     1  0.0000000  0.6508444  3
   2448   2446   2455   2464     1  0.0000000  1.0460000  1
   2448   2446   2455   2464     1  0.0000000  0.0000000  3
   2448   2446   2455   2456     1  0.0000000  0.6508444  3
   2448   2446   2455   2457     1  0.0000000  0.6508444  3
   2450   2449   2461   4507     1  0.0000000  1.0460000  1
   2450   2449   2461   4507     1  0.0000000  0.0000000  3
   2450   2449   2461   2462     1  0.0000000  0.6508444  3
   2450   2449   2461   2463     1  0.0000000  0.6508444  3
   2451   2449   2461   4507     1  0.0000000  1.0460000  1
   2451   2449   2461   4507     1  0.0000000  0.0000000  3
   2451   2449   2461   2462     1  0.0000000  0.6508444  3
   2451   2449   2461   2463     1  0.0000000  0.6508444  3
   2453   2452   2458   4484     1  0.0000000  1.0460000  1
   2453   2452   2458   4484     1  0.0000000  0.0000000  3
   2453   2452   2458   2459     1  0.0000000  0.6508444  3
   2453   2452   2458   2460     1  0.0000000  0.6508444  3
   2454   2452   2458   4484     1  0.0000000  1.0460000  1
   2454   2452   2458   4484     1  0.0000000  0.0000000  3
   2454   2452   2458   2459     1  0.0000000  0.6508444  3
   2454   2452   2458   2460     1  0.0000000  0.6508444  3
   2458   4484   4480   4483     1  0.0000000  1.6038667  3
   2459   2458   4484   4480     1  0.0000000  1.6038667  3
   2460   2458   4484   4480     1  0.0000000  1.6038667  3
   2461   4507   4503   4506     1  0.0000000  1.6038667  3
   2462   2461   4507   4503     1  0.0000000  1.6038667  3
   2463   2461   4507   4503     1  0.0000000  1.6038667  3
   2465   2466   2478   2479     1  0.0000000  0.6508444  3
   2465   2466   2478   2480     1  0.0000000  0.6508444  3
   2465   2469   2481   2482     1  0.0000000  0.6508444  3
   2465   2469   2481   2483     1  0.0000000  0.6508444  3
   2465   2472   2475   2476     1  0.0000000  0.6508444  3
   2465   2472   2475   2477     1  0.0000000  0.6508444  3
   2466   2465   2469   2470     1  0.0000000  1.2552000  3
   2466   2465   2469   2471     1  0.0000000  1.2552000  3
   2466   2465   2472   2473     1  0.0000000  1.2552000  3
   2466   2465   2472   2474     1  0.0000000  1.2552000  3
   2466   2478   2490   2491     1  0.0000000  0.6508444  3
   2466   2478   2490   2492     1  0.0000000  0.6508444  3
   2467   2466   2465   2469     1  0.0000000  1.2552000  3
   2467   2466   2465   2472     1  0.0000000  1.2552000  3
   2467   2466   2478   2490     1  0.0000000  0.6508444  3
   2467   2466   2478   2479     1  0.0000000  0.6508444  3
   2467   2466   2478   2480     1  0.0000000  0.6508444  3
   2468   2466   2465   2469     1  0.0000000  1.2552000  3
   2468   2466   2465   2472     1  0.0000000  1.2552000  3
   2468   2466   2478   2490     1  0.0000000  0.6508444  3
   2468   2466   2478   2479     1  0.0000000  0.6508444  3
   2468   2466   2478   2480     1  0.0000000  0.6508444  3
   2469   2465   2472   2473     1  0.0000000  1.2552000  3
   2469   2465   2472   2474     1  0.0000000  1.2552000  3
   2469   2481   2487   2488     1  0.0000000  0.6508444  3
   2469   2481   2487   2489     1  0.0000000  0.6508444  3
   2470   2469   2465   2472     1  0.0000000  1.2552000  3
   2470   2469   2481   2487     1  0.0000000  0.6508444  3
   2470   2469   2481   2482     1  0.0000000  0.6508444  3
   2470   2469   2481   2483     1  0.0000000  0.6508444  3
   2471   2469   2465   2472     1  0.0000000  1.2552000  3
   2471   2469   2481   2487     1  0.0000000  0.6508444  3
   2471   2469   2481   2482     1  0.0000000  0.6508444  3
   2471   2469   2481   2483     1  0.0000000  0.6508444  3
   2472   2475   2484   2485     1  0.0000000  0.6508444  3
   2472   2475   2484   2486     1  0.0000000  0.6508444  3
   2473   2472   2475   2484     1  0.0000000  0.6508444  3
   2473   2472   2475   2476     1  0.0000000  0.6508444  3
   2473   2472   2475   2477     1  0.0000000  0.6508444  3
   2474   2472   2475   2484     1  0.0000000  0.6508444  3
   2474   2472   2475   2476     1  0.0000000  0.6508444  3
   2474   2472   2475   2477     1  0.0000000  0.6508444  3
   2476   2475   2484   2493     1  0.0000000  1.0460000  1
   2476   2475   2484   2493     1  0.0000000  0.0000000  3
   2476   2475   2484   2485     1  0.0000000  0.6508444  3
   2476   2475   2484   2486     1  0.0000000  0.6508444  3
   2477   2475   2484   2493     1  0.0000000  1.0460000  1
   2477   2475   2484   2493     1  0.0000000  0.0000000  3
   2477   2475   2484   2485     1  0.0000000  0.6508444  3
   2477   2475   2484   2486     1  0.0000000  0.6508444  3
   2479   2478   2490   4553     1  0.0000000  1.0460000  1
   2479   2478   2490   4553     1  0.0000000  0.0000000  3
   2479   2478   2490   2491     1  0.0000000  0.6508444  3
   2479   2478   2490   2492     1  0.0000000  0.6508444  3
   2480   2478   2490   4553     1  0.0000000  1.0460000  1
   2480   2478   2490   4553     1  0.0000000  0.0000000  3
   2480   2478   2490   2491     1  0.0000000  0.6508444  3
   2480   2478   2490   2492     1  0.0000000  0.6508444  3
   2482   2481   2487   4530     1  0.0000000  1.0460000  1
   2482   2481   2487   4530     1  0.0000000  0.0000000  3
   2482   2481   2487   2488     1  0.0000000  0.6508444  3
   2482   2481   2487   2489     1  0.0000000  0.6508444  3
   2483   2481   2487   4530     1  0.0000000  1.0460000  1
   2483   2481   2487   4530     1  0.0000000  0.0000000  3
   2483   2481   2487   2488     1  0.0000000  0.6508444  3
   2483   2481   2487   2489     1  0.0000000  0.6508444  3
   2487   4530   4526   4529     1  0.0000000  1.6038667  3
   2488   2487   4530   4526     1  0.0000000  1.6038667  3
   2489   2487   4530   4526     1  0.0000000  1.6038667  3
   2490   4553   4549   4552     1  0.0000000  1.6038667  3
   2491   2490   4553   4549     1  0.0000000  1.6038667  3
   2492   2490   4553   4549     1  0.0000000  1.6038667  3
   2494   2495   2507   2508     1  0.0000000  0.6508444  3
   2494   2495   2507   2509     1  0.0000000  0.6508444  3
   2494   2498   2510   2511     1  0.0000000  0.6508444  3
   2494   2498   2510   2512     1  0.0000000  0.6508444  3
   2494   2501   2504   2505     1  0.0000000  0.6508444  3
   2494   2501   2504   2506     1  0.0000000  0.6508444  3
   2495   2494   2498   2499     1  0.0000000  1.2552000  3
   2495   2494   2498   2500     1  0.0000000  1.2552000  3
   2495   2494   2501   2502     1  0.0000000  1.2552000  3
   2495   2494   2501   2503     1  0.0000000  1.2552000  3
   2495   2507   2519   2520     1  0.0000000  0.6508444  3
   2495   2507   2519   2521     1  0.0000000  0.6508444  3
   2496   2495   2494   2498     1  0.0000000  1.2552000  3
   2496   2495   2494   2501     1  0.0000000  1.2552000  3
   2496   2495   2507   2519     1  0.0000000  0.6508444  3
   2496   2495   2507   2508     1  0.0000000  0.6508444  3
   2496   2495   2507   2509     1  0.0000000  0.6508444  3
   2497   2495   2494   2498     1  0.0000000  1.2552000  3
   2497   2495   2494   2501     1  0.0000000  1.2552000  3
   2497   2495   2507   2519     1  0.0000000  0.6508444  3
   2497   2495   2507   2508     1  0.0000000  0.6508444  3
   2497   2495   2507   2509     1  0.0000000  0.6508444  3
   2498   2494   2501   2502     1  0.0000000  1.2552000  3
   2498   2494   2501   2503     1  0.0000000  1.2552000  3
   2498   2510   2516   2517     1  0.0000000  0.6508444  3
   2498   2510   2516   2518     1  0.0000000  0.6508444  3
   2499   2498   2494   2501     1  0.0000000  1.2552000  3
   2499   2498   2510   2516     1  0.0000000  0.6508444  3
   2499   2498   2510   2511     1  0.0000000  0.6508444  3
   2499   2498   2510   2512     1  0.0000000  0.6508444  3
   2500   2498   2494   2501     1  0.0000000  1.2552000  3
   2500   2498   2510   2516     1  0.0000000  0.6508444  3
   2500   2498   2510   2511     1  0.0000000  0.6508444  3
   2500   2498   2510   2512     1  0.0000000  0.6508444  3
   2501   2504   2513   2514     1  0.0000000  0.6508444  3
   2501   2504   2513   2515     1  0.0000000  0.6508444  3
   2502   2501   2504   2513     1  0.0000000  0.6508444  3
   2502   2501   2504   2505     1  0.0000000  0.6508444  3
   2502   2501   2504   2506     1  0.0000000  0.6508444  3
   2503   2501   2504   2513     1  0.0000000  0.6508444  3
   2503   2501   2504   2505     1  0.0000000  0.6508444  3
   2503   2501   2504   2506     1  0.0000000  0.6508444  3
   2505   2504   2513   2522     1  0.0000000  1.0460000  1
   2505   2504   2513   2522     1  0.0000000  0.0000000  3
   2505   2504   2513   2514     1  0.0000000  0.6508444  3
   2505   2504   2513   2515     1  0.0000000  0.6508444  3
   2506   2504   2513   2522     1  0.0000000  1.0460000  1
   2506   2504   2513   2522     1  0.0000000  0.0000000  3
   2506   2504   2513   2514     1  0.0000000  0.6508444  3
   2506   2504   2513   2515     1  0.0000000  0.6508444  3
   2508   2507   2519   4599     1  0.0000000  1.0460000  1
   2508   2507   2519   4599     1  0.0000000  0.0000000  3
   2508   2507   2519   2520     1  0.0000000  0.6508444  3
   2508   2507   2519   2521     1  0.0000000  0.6508444  3
   2509   2507   2519   4599     1  0.0000000  1.0460000  1
   2509   2507   2519   4599     1  0.0000000  0.0000000  3
   2509   2507   2519   2520     1  0.0000000  0.6508444  3
   2509   2507   2519   2521     1  0.0000000  0.6508444  3
   2511   2510   2516   4576     1  0.0000000  1.0460000  1
   2511   2510   2516   4576     1  0.0000000  0.0000000  3
   2511   2510   2516   2517     1  0.0000000  0.6508444  3
   2511   2510   2516   2518     1  0.0000000  0.6508444  3
   2512   2510   2516   4576     1  0.0000000  1.0460000  1
   2512   2510   2516   4576     1  0.0000000  0.0000000  3
   2512   2510   2516   2517     1  0.0000000  0.6508444  3
   2512   2510   2516   2518     1  0.0000000  0.6508444  3
   2516   4576   4572   4575     1  0.0000000  1.6038667  3
   2517   2516   4576   4572     1  0.0000000  1.6038667  3
   2518   2516   4576   4572     1  0.0000000  1.6038667  3
   2519   4599   4595   4598     1  0.0000000  1.6038667  3
   2520   2519   4599   4595     1  0.0000000  1.6038667  3
   2521   2519   4599   4595     1  0.0000000  1.6038667  3
   2523   2524   2536   2537     1  0.0000000  0.6508444  3
   2523   2524   2536   2538     1  0.0000000  0.6508444  3
   2523   2527   2539   2540     1  0.0000000  0.6508444  3
   2523   2527   2539   2541     1  0.0000000  0.6508444  3
   2523   2530   2533   2534     1  0.0000000  0.6508444  3
   2523   2530   2533   2535     1  0.0000000  0.6508444  3
   2524   2523   2527   2528     1  0.0000000  1.2552000  3
   2524   2523   2527   2529     1  0.0000000  1.2552000  3
   2524   2523   2530   2531     1  0.0000000  1.2552000  3
   2524   2523   2530   2532     1  0.0000000  1.2552000  3
   2524   2536   2548   2549     1  0.0000000  0.6508444  3
   2524   2536   2548   2550     1  0.0000000  0.6508444  3
   2525   2524   2523   2527     1  0.0000000  1.2552000  3
   2525   2524   2523   2530     1  0.0000000  1.2552000  3
   2525   2524   2536   2548     1  0.0000000  0.6508444  3
   2525   2524   2536   2537     1  0.0000000  0.6508444  3
   2525   2524   2536   2538     1  0.0000000  0.6508444  3
   2526   2524   2523   2527     1  0.0000000  1.2552000  3
   2526   2524   2523   2530     1  0.0000000  1.2552000  3
   2526   2524   2536   2548     1  0.0000000  0.6508444  3
   2526   2524   2536   2537     1  0.0000000  0.6508444  3
   2526   2524   2536   2538     1  0.0000000  0.6508444  3
   2527   2523   2530   2531     1  0.0000000  1.2552000  3
   2527   2523   2530   2532     1  0.0000000  1.2552000  3
   2527   2539   2545   2546     1  0.0000000  0.6508444  3
   2527   2539   2545   2547     1  0.0000000  0.6508444  3
   2528   2527   2523   2530     1  0.0000000  1.2552000  3
   2528   2527   2539   2545     1  0.0000000  0.6508444  3
   2528   2527   2539   2540     1  0.0000000  0.6508444  3
   2528   2527   2539   2541     1  0.0000000  0.6508444  3
   2529   2527   2523   2530     1  0.0000000  1.2552000  3
   2529   2527   2539   2545     1  0.0000000  0.6508444  3
   2529   2527   2539   2540     1  0.0000000  0.6508444  3
   2529   2527   2539   2541     1  0.0000000  0.6508444  3
   2530   2533   2542   2543     1  0.0000000  0.6508444  3
   2530   2533   2542   2544     1  0.0000000  0.6508444  3
   2531   2530   2533   2542     1  0.0000000  0.6508444  3
   2531   2530   2533   2534     1  0.0000000  0.6508444  3
   2531   2530   2533   2535     1  0.0000000  0.6508444  3
   2532   2530   2533   2542     1  0.0000000  0.6508444  3
   2532   2530   2533   2534     1  0.0000000  0.6508444  3
   2532   2530   2533   2535     1  0.0000000  0.6508444  3
   2534   2533   2542   2551     1  0.0000000  1.0460000  1
   2534   2533   2542   2551     1  0.0000000  0.0000000  3
   2534   2533   2542   2543     1  0.0000000  0.6508444  3
   2534   2533   2542   2544     1  0.0000000  0.6508444  3
   2535   2533   2542   2551     1  0.0000000  1.0460000  1
   2535   2533   2542   2551     1  0.0000000  0.0000000  3
   2535   2533   2542   2543     1  0.0000000  0.6508444  3
   2535   2533   2542   2544     1  0.0000000  0.6508444  3
   2537   2536   2548   4645     1  0.0000000  1.0460000  1
   2537   2536   2548   4645     1  0.0000000  0.0000000  3
   2537   2536   2548   2549     1  0.0000000  0.6508444  3
   2537   2536   2548   2550     1  0.0000000  0.6508444  3
   2538   2536   2548   4645     1  0.0000000  1.0460000  1
   2538   2536   2548   4645     1  0.0000000  0.0000000  3
   2538   2536   2548   2549     1  0.0000000  0.6508444  3
   2538   2536   2548   2550     1  0.0000000  0.6508444  3
   2540   2539   2545   4622     1  0.0000000  1.0460000  1
   2540   2539   2545   4622     1  0.0000000  0.0000000  3
   2540   2539   2545   2546     1  0.0000000  0.6508444  3
   2540   2539   2545   2547     1  0.0000000  0.6508444  3
   2541   2539   2545   4622     1  0.0000000  1.0460000  1
   2541   2539   2545   4622     1  0.0000000  0.0000000  3
   2541   2539   2545   2546     1  0.0000000  0.6508444  3
   2541   2539   2545   2547     1  0.0000000  0.6508444  3
   2545   4622   4618   4621     1  0.0000000  1.6038667  3
   2546   2545   4622   4618     1  0.0000000  1.6038667  3
   2547   2545   4622   4618     1  0.0000000  1.6038667  3
   2548   4645   4641   4644     1  0.0000000  1.6038667  3
   2549   2548   4645   4641     1  0.0000000  1.6038667  3
   2550   2548   4645   4641     1  0.0000000  1.6038667  3
   2552   2553   2565   2566     1  0.0000000  0.6508444  3
   2552   2553   2565   2567     1  0.0000000  0.6508444  3
   2552   2556   2568   2569     1  0.0000000  0.6508444  3
   2552   2556   2568   2570     1  0.0000000  0.6508444  3
   2552   2559   2562   2563     1  0.0000000  0.6508444  3
   2552   2559   2562   2564     1  0.0000000  0.6508444  3
   2553   2552   2556   2557     1  0.0000000  1.2552000  3
   2553   2552   2556   2558     1  0.0000000  1.2552000  3
   2553   2552   2559   2560     1  0.0000000  1.2552000  3
   2553   2552   2559   2561     1  0.0000000  1.2552000  3
   2553   2565   2577   2578     1  0.0000000  0.6508444  3
   2553   2565   2577   2579     1  0.0000000  0.6508444  3
   2554   2553   2552   2556     1  0.0000000  1.2552000  3
   2554   2553   2552   2559     1  0.0000000  1.2552000  3
   2554   2553   2565   2577     1  0.0000000  0.6508444  3
   2554   2553   2565   2566     1  0.0000000  0.6508444  3
   2554   2553   2565   2567     1  0.0000000  0.6508444  3
   2555   2553   2552   2556     1  0.0000000  1.2552000  3
   2555   2553   2552   2559     1  0.0000000  1.2552000  3
   2555   2553   2565   2577     1  0.0000000  0.6508444  3
   2555   2553   2565   2566     1  0.0000000  0.6508444  3
   2555   2553   2565   2567     1  0.0000000  0.6508444  3
   2556   2552   2559   2560     1  0.0000000  1.2552000  3
   2556   2552   2559   2561     1  0.0000000  1.2552000  3
   2556   2568   2574   2575     1  0.0000000  0.6508444  3
   2556   2568   2574   2576     1  0.0000000  0.6508444  3
   2557   2556   2552   2559     1  0.0000000  1.2552000  3
   2557   2556   2568   2574     1  0.0000000  0.6508444  3
   2557   2556   2568   2569     1  0.0000000  0.6508444  3
   2557   2556   2568   2570     1  0.0000000  0.6508444  3
   2558   2556   2552   2559     1  0.0000000  1.2552000  3
   2558   2556   2568   2574     1  0.0000000  0.6508444  3
   2558   2556   2568   2569     1  0.0000000  0.6508444  3
   2558   2556   2568   2570     1  0.0000000  0.6508444  3
   2559   2562   2571   2572     1  0.0000000  0.6508444  3
   2559   2562   2571   2573     1  0.0000000  0.6508444  3
   2560   2559   2562   2571     1  0.0000000  0.6508444  3
   2560   2559   2562   2563     1  0.0000000  0.6508444  3
   2560   2559   2562   2564     1  0.0000000  0.6508444  3
   2561   2559   2562   2571     1  0.0000000  0.6508444  3
   2561   2559   2562   2563     1  0.0000000  0.6508444  3
   2561   2559   2562   2564     1  0.0000000  0.6508444  3
   2563   2562   2571   2580     1  0.0000000  1.0460000  1
   2563   2562   2571   2580     1  0.0000000  0.0000000  3
   2563   2562   2571   2572     1  0.0000000  0.6508444  3
   2563   2562   2571   2573     1  0.0000000  0.6508444  3
   2564   2562   2571   2580     1  0.0000000  1.0460000  1
   2564   2562   2571   2580     1  0.0000000  0.0000000  3
   2564   2562   2571   2572     1  0.0000000  0.6508444  3
   2564   2562   2571   2573     1  0.0000000  0.6508444  3
   2566   2565   2577   4691     1  0.0000000  1.0460000  1
   2566   2565   2577   4691     1  0.0000000  0.0000000  3
   2566   2565   2577   2578     1  0.0000000  0.6508444  3
   2566   2565   2577   2579     1  0.0000000  0.6508444  3
   2567   2565   2577   4691     1  0.0000000  1.0460000  1
   2567   2565   2577   4691     1  0.0000000  0.0000000  3
   2567   2565   2577   2578     1  0.0000000  0.6508444  3
   2567   2565   2577   2579     1  0.0000000  0.6508444  3
   2569   2568   2574   4668     1  0.0000000  1.0460000  1
   2569   2568   2574   4668     1  0.0000000  0.0000000  3
   2569   2568   2574   2575     1  0.0000000  0.6508444  3
   2569   2568   2574   2576     1  0.0000000  0.6508444  3
   2570   2568   2574   4668     1  0.0000000  1.0460000  1
   2570   2568   2574   4668     1  0.0000000  0.0000000  3
   2570   2568   2574   2575     1  0.0000000  0.6508444  3
   2570   2568   2574   2576     1  0.0000000  0.6508444  3
   2574   4668   4664   4667     1  0.0000000  1.6038667  3
   2575   2574   4668   4664     1  0.0000000  1.6038667  3
   2576   2574   4668   4664     1  0.0000000  1.6038667  3
   2577   4691   4687   4690     1  0.0000000  1.6038667  3
   2578   2577   4691   4687     1  0.0000000  1.6038667  3
   2579   2577   4691   4687     1  0.0000000  1.6038667  3
   2581   2582   2594   2595     1  0.0000000  0.6508444  3
   2581   2582   2594   2596     1  0.0000000  0.6508444  3
   2581   2585   2597   2598     1  0.0000000  0.6508444  3
   2581   2585   2597   2599     1  0.0000000  0.6508444  3
   2581   2588   2591   2592     1  0.0000000  0.6508444  3
   2581   2588   2591   2593     1  0.0000000  0.6508444  3
   2582   2581   2585   2586     1  0.0000000  1.2552000  3
   2582   2581   2585   2587     1  0.0000000  1.2552000  3
   2582   2581   2588   2589     1  0.0000000  1.2552000  3
   2582   2581   2588   2590     1  0.0000000  1.2552000  3
   2582   2594   2606   2607     1  0.0000000  0.6508444  3
   2582   2594   2606   2608     1  0.0000000  0.6508444  3
   2583   2582   2581   2585     1  0.0000000  1.2552000  3
   2583   2582   2581   2588     1  0.0000000  1.2552000  3
   2583   2582   2594   2606     1  0.0000000  0.6508444  3
   2583   2582   2594   2595     1  0.0000000  0.6508444  3
   2583   2582   2594   2596     1  0.0000000  0.6508444  3
   2584   2582   2581   2585     1  0.0000000  1.2552000  3
   2584   2582   2581   2588     1  0.0000000  1.2552000  3
   2584   2582   2594   2606     1  0.0000000  0.6508444  3
   2584   2582   2594   2595     1  0.0000000  0.6508444  3
   2584   2582   2594   2596     1  0.0000000  0.6508444  3
   2585   2581   2588   2589     1  0.0000000  1.2552000  3
   2585   2581   2588   2590     1  0.0000000  1.2552000  3
   2585   2597   2603   2604     1  0.0000000  0.6508444  3
   2585   2597   2603   2605     1  0.0000000  0.6508444  3
   2586   2585   2581   2588     1  0.0000000  1.2552000  3
   2586   2585   2597   2603     1  0.0000000  0.6508444  3
   2586   2585   2597   2598     1  0.0000000  0.6508444  3
   2586   2585   2597   2599     1  0.0000000  0.6508444  3
   2587   2585   2581   2588     1  0.0000000  1.2552000  3
   2587   2585   2597   2603     1  0.0000000  0.6508444  3
   2587   2585   2597   2598     1  0.0000000  0.6508444  3
   2587   2585   2597   2599     1  0.0000000  0.6508444  3
   2588   2591   2600   2601     1  0.0000000  0.6508444  3
   2588   2591   2600   2602     1  0.0000000  0.6508444  3
   2589   2588   2591   2600     1  0.0000000  0.6508444  3
   2589   2588   2591   2592     1  0.0000000  0.6508444  3
   2589   2588   2591   2593     1  0.0000000  0.6508444  3
   2590   2588   2591   2600     1  0.0000000  0.6508444  3
   2590   2588   2591   2592     1  0.0000000  0.6508444  3
   2590   2588   2591   2593     1  0.0000000  0.6508444  3
   2592   2591   2600   2609     1  0.0000000  1.0460000  1
   2592   2591   2600   2609     1  0.0000000  0.0000000  3
   2592   2591   2600   2601     1  0.0000000  0.6508444  3
   2592   2591   2600   2602     1  0.0000000  0.6508444  3
   2593   2591   2600   2609     1  0.0000000  1.0460000  1
   2593   2591   2600   2609     1  0.0000000  0.0000000  3
   2593   2591   2600   2601     1  0.0000000  0.6508444  3
   2593   2591   2600   2602     1  0.0000000  0.6508444  3
   2595   2594   2606   4737     1  0.0000000  1.0460000  1
   2595   2594   2606   4737     1  0.0000000  0.0000000  3
   2595   2594   2606   2607     1  0.0000000  0.6508444  3
   2595   2594   2606   2608     1  0.0000000  0.6508444  3
   2596   2594   2606   4737     1  0.0000000  1.0460000  1
   2596   2594   2606   4737     1  0.0000000  0.0000000  3
   2596   2594   2606   2607     1  0.0000000  0.6508444  3
   2596   2594   2606   2608     1  0.0000000  0.6508444  3
   2598   2597   2603   4714     1  0.0000000  1.0460000  1
   2598   2597   2603   4714     1  0.0000000  0.0000000  3
   2598   2597   2603   2604     1  0.0000000  0.6508444  3
   2598   2597   2603   2605     1  0.0000000  0.6508444  3
   2599   2597   2603   4714     1  0.0000000  1.0460000  1
   2599   2597   2603   4714     1  0.0000000  0.0000000  3
   2599   2597   2603   2604     1  0.0000000  0.6508444  3
   2599   2597   2603   2605     1  0.0000000  0.6508444  3
   2603   4714   4710   4713     1  0.0000000  1.6038667  3
   2604   2603   4714   4710     1  0.0000000  1.6038667  3
   2605   2603   4714   4710     1  0.0000000  1.6038667  3
   2606   4737   4733   4736     1  0.0000000  1.6038667  3
   2607   2606   4737   4733     1  0.0000000  1.6038667  3
   2608   2606   4737   4733     1  0.0000000  1.6038667  3
   2610   2611   2623   2624     1  0.0000000  0.6508444  3
   2610   2611   2623   2625     1  0.0000000  0.6508444  3
   2610   2614   2626   2627     1  0.0000000  0.6508444  3
   2610   2614   2626   2628     1  0.0000000  0.6508444  3
   2610   2617   2620   2621     1  0.0000000  0.6508444  3
   2610   2617   2620   2622     1  0.0000000  0.6508444  3
   2611   2610   2614   2615     1  0.0000000  1.2552000  3
   2611   2610   2614   2616     1  0.0000000  1.2552000  3
   2611   2610   2617   2618     1  0.0000000  1.2552000  3
   2611   2610   2617   2619     1  0.0000000  1.2552000  3
   2611   2623   2635   2636     1  0.0000000  0.6508444  3
   2611   2623   2635   2637     1  0.0000000  0.6508444  3
   2612   2611   2610   2614     1  0.0000000  1.2552000  3
   2612   2611   2610   2617     1  0.0000000  1.2552000  3
   2612   2611   2623   2635     1  0.0000000  0.6508444  3
   2612   2611   2623   2624     1  0.0000000  0.6508444  3
   2612   2611   2623   2625     1  0.0000000  0.6508444  3
   2613   2611   2610   2614     1  0.0000000  1.2552000  3
   2613   2611   2610   2617     1  0.0000000  1.2552000  3
   2613   2611   2623   2635     1  0.0000000  0.6508444  3
   2613   2611   2623   2624     1  0.0000000  0.6508444  3
   2613   2611   2623   2625     1  0.0000000  0.6508444  3
   2614   2610   2617   2618     1  0.0000000  1.2552000  3
   2614   2610   2617   2619     1  0.0000000  1.2552000  3
   2614   2626   2632   2633     1  0.0000000  0.6508444  3
   2614   2626   2632   2634     1  0.0000000  0.6508444  3
   2615   2614   2610   2617     1  0.0000000  1.2552000  3
   2615   2614   2626   2632     1  0.0000000  0.6508444  3
   2615   2614   2626   2627     1  0.0000000  0.6508444  3
   2615   2614   2626   2628     1  0.0000000  0.6508444  3
   2616   2614   2610   2617     1  0.0000000  1.2552000  3
   2616   2614   2626   2632     1  0.0000000  0.6508444  3
   2616   2614   2626   2627     1  0.0000000  0.6508444  3
   2616   2614   2626   2628     1  0.0000000  0.6508444  3
   2617   2620   2629   2630     1  0.0000000  0.6508444  3
   2617   2620   2629   2631     1  0.0000000  0.6508444  3
   2618   2617   2620   2629     1  0.0000000  0.6508444  3
   2618   2617   2620   2621     1  0.0000000  0.6508444  3
   2618   2617   2620   2622     1  0.0000000  0.6508444  3
   2619   2617   2620   2629     1  0.0000000  0.6508444  3
   2619   2617   2620   2621     1  0.0000000  0.6508444  3
   2619   2617   2620   2622     1  0.0000000  0.6508444  3
   2621   2620   2629   2638     1  0.0000000  1.0460000  1
   2621   2620   2629   2638     1  0.0000000  0.0000000  3
   2621   2620   2629   2630     1  0.0000000  0.6508444  3
   2621   2620   2629   2631     1  0.0000000  0.6508444  3
   2622   2620   2629   2638     1  0.0000000  1.0460000  1
   2622   2620   2629   2638     1  0.0000000  0.0000000  3
   2622   2620   2629   2630     1  0.0000000  0.6508444  3
   2622   2620   2629   2631     1  0.0000000  0.6508444  3
   2624   2623   2635   4783     1  0.0000000  1.0460000  1
   2624   2623   2635   4783     1  0.0000000  0.0000000  3
   2624   2623   2635   2636     1  0.0000000  0.6508444  3
   2624   2623   2635   2637     1  0.0000000  0.6508444  3
   2625   2623   2635   4783     1  0.0000000  1.0460000  1
   2625   2623   2635   4783     1  0.0000000  0.0000000  3
   2625   2623   2635   2636     1  0.0000000  0.6508444  3
   2625   2623   2635   2637     1  0.0000000  0.6508444  3
   2627   2626   2632   4760     1  0.0000000  1.0460000  1
   2627   2626   2632   4760     1  0.0000000  0.0000000  3
   2627   2626   2632   2633     1  0.0000000  0.6508444  3
   2627   2626   2632   2634     1  0.0000000  0.6508444  3
   2628   2626   2632   4760     1  0.0000000  1.0460000  1
   2628   2626   2632   4760     1  0.0000000  0.0000000  3
   2628   2626   2632   2633     1  0.0000000  0.6508444  3
   2628   2626   2632   2634     1  0.0000000  0.6508444  3
   2632   4760   4756   4759     1  0.0000000  1.6038667  3
   2633   2632   4760   4756     1  0.0000000  1.6038667  3
   2634   2632   4760   4756     1  0.0000000  1.6038667  3
   2635   4783   4779   4782     1  0.0000000  1.6038667  3
   2636   2635   4783   4779     1  0.0000000  1.6038667  3
   2637   2635   4783   4779     1  0.0000000  1.6038667  3
   2639   2640   2652   2653     1  0.0000000  0.6508444  3
   2639   2640   2652   2654     1  0.0000000  0.6508444  3
   2639   2643   2655   2656     1  0.0000000  0.6508444  3
   2639   2643   2655   2657     1  0.0000000  0.6508444  3
   2639   2646   2649   2650     1  0.0000000  0.6508444  3
   2639   2646   2649   2651     1  0.0000000  0.6508444  3
   2640   2639   2643   2644     1  0.0000000  1.2552000  3
   2640   2639   2643   2645     1  0.0000000  1.2552000  3
   2640   2639   2646   2647     1  0.0000000  1.2552000  3
   2640   2639   2646   2648     1  0.0000000  1.2552000  3
   2640   2652   2664   2665     1  0.0000000  0.6508444  3
   2640   2652   2664   2666     1  0.0000000  0.6508444  3
   2641   2640   2639   2643     1  0.0000000  1.2552000  3
   2641   2640   2639   2646     1  0.0000000  1.2552000  3
   2641   2640   2652   2664     1  0.0000000  0.6508444  3
   2641   2640   2652   2653     1  0.0000000  0.6508444  3
   2641   2640   2652   2654     1  0.0000000  0.6508444  3
   2642   2640   2639   2643     1  0.0000000  1.2552000  3
   2642   2640   2639   2646     1  0.0000000  1.2552000  3
   2642   2640   2652   2664     1  0.0000000  0.6508444  3
   2642   2640   2652   2653     1  0.0000000  0.6508444  3
   2642   2640   2652   2654     1  0.0000000  0.6508444  3
   2643   2639   2646   2647     1  0.0000000  1.2552000  3
   2643   2639   2646   2648     1  0.0000000  1.2552000  3
   2643   2655   2661   2662     1  0.0000000  0.6508444  3
   2643   2655   2661   2663     1  0.0000000  0.6508444  3
   2644   2643   2639   2646     1  0.0000000  1.2552000  3
   2644   2643   2655   2661     1  0.0000000  0.6508444  3
   2644   2643   2655   2656     1  0.0000000  0.6508444  3
   2644   2643   2655   2657     1  0.0000000  0.6508444  3
   2645   2643   2639   2646     1  0.0000000  1.2552000  3
   2645   2643   2655   2661     1  0.0000000  0.6508444  3
   2645   2643   2655   2656     1  0.0000000  0.6508444  3
   2645   2643   2655   2657     1  0.0000000  0.6508444  3
   2646   2649   2658   2659     1  0.0000000  0.6508444  3
   2646   2649   2658   2660     1  0.0000000  0.6508444  3
   2647   2646   2649   2658     1  0.0000000  0.6508444  3
   2647   2646   2649   2650     1  0.0000000  0.6508444  3
   2647   2646   2649   2651     1  0.0000000  0.6508444  3
   2648   2646   2649   2658     1  0.0000000  0.6508444  3
   2648   2646   2649   2650     1  0.0000000  0.6508444  3
   2648   2646   2649   2651     1  0.0000000  0.6508444  3
   2650   2649   2658   2667     1  0.0000000  1.0460000  1
   2650   2649   2658   2667     1  0.0000000  0.0000000  3
   2650   2649   2658   2659     1  0.0000000  0.6508444  3
   2650   2649   2658   2660     1  0.0000000  0.6508444  3
   2651   2649   2658   2667     1  0.0000000  1.0460000  1
   2651   2649   2658   2667     1  0.0000000  0.0000000  3
   2651   2649   2658   2659     1  0.0000000  0.6508444  3
   2651   2649   2658   2660     1  0.0000000  0.6508444  3
   2653   2652   2664   4829     1  0.0000000  1.0460000  1
   2653   2652   2664   4829     1  0.0000000  0.0000000  3
   2653   2652   2664   2665     1  0.0000000  0.6508444  3
   2653   2652   2664   2666     1  0.0000000  0.6508444  3
   2654   2652   2664   4829     1  0.0000000  1.0460000  1
   2654   2652   2664   4829     1  0.0000000  0.0000000  3
   2654   2652   2664   2665     1  0.0000000  0.6508444  3
   2654   2652   2664   2666     1  0.0000000  0.6508444  3
   2656   2655   2661   4806     1  0.0000000  1.0460000  1
   2656   2655   2661   4806     1  0.0000000  0.0000000  3
   2656   2655   2661   2662     1  0.0000000  0.6508444  3
   2656   2655   2661   2663     1  0.0000000  0.6508444  3
   2657   2655   2661   4806     1  0.0000000  1.0460000  1
   2657   2655   2661   4806     1  0.0000000  0.0000000  3
   2657   2655   2661   2662     1  0.0000000  0.6508444  3
   2657   2655   2661   2663     1  0.0000000  0.6508444  3
   2661   4806   4802   4805     1  0.0000000  1.6038667  3
   2662   2661   4806   4802     1  0.0000000  1.6038667  3
   2663   2661   4806   4802     1  0.0000000  1.6038667  3
   2664   4829   4825   4828     1  0.0000000  1.6038667  3
   2665   2664   4829   4825     1  0.0000000  1.6038667  3
   2666   2664   4829   4825     1  0.0000000  1.6038667  3
   2668   2669   2681   2682     1  0.0000000  0.6508444  3
   2668   2669   2681   2683     1  0.0000000  0.6508444  3
   2668   2672   2684   2685     1  0.0000000  0.6508444  3
   2668   2672   2684   2686     1  0.0000000  0.6508444  3
   2668   2675   2678   2679     1  0.0000000  0.6508444  3
   2668   2675   2678   2680     1  0.0000000  0.6508444  3
   2669   2668   2672   2673     1  0.0000000  1.2552000  3
   2669   2668   2672   2674     1  0.0000000  1.2552000  3
   2669   2668   2675   2676     1  0.0000000  1.2552000  3
   2669   2668   2675   2677     1  0.0000000  1.2552000  3
   2669   2681   2693   2694     1  0.0000000  0.6508444  3
   2669   2681   2693   2695     1  0.0000000  0.6508444  3
   2670   2669   2668   2672     1  0.0000000  1.2552000  3
   2670   2669   2668   2675     1  0.0000000  1.2552000  3
   2670   2669   2681   2693     1  0.0000000  0.6508444  3
   2670   2669   2681   2682     1  0.0000000  0.6508444  3
   2670   2669   2681   2683     1  0.0000000  0.6508444  3
   2671   2669   2668   2672     1  0.0000000  1.2552000  3
   2671   2669   2668   2675     1  0.0000000  1.2552000  3
   2671   2669   2681   2693     1  0.0000000  0.6508444  3
   2671   2669   2681   2682     1  0.0000000  0.6508444  3
   2671   2669   2681   2683     1  0.0000000  0.6508444  3
   2672   2668   2675   2676     1  0.0000000  1.2552000  3
   2672   2668   2675   2677     1  0.0000000  1.2552000  3
   2672   2684   2690   2691     1  0.0000000  0.6508444  3
   2672   2684   2690   2692     1  0.0000000  0.6508444  3
   2673   2672   2668   2675     1  0.0000000  1.2552000  3
   2673   2672   2684   2690     1  0.0000000  0.6508444  3
   2673   2672   2684   2685     1  0.0000000  0.6508444  3
   2673   2672   2684   2686     1  0.0000000  0.6508444  3
   2674   2672   2668   2675     1  0.0000000  1.2552000  3
   2674   2672   2684   2690     1  0.0000000  0.6508444  3
   2674   2672   2684   2685     1  0.0000000  0.6508444  3
   2674   2672   2684   2686     1  0.0000000  0.6508444  3
   2675   2678   2687   2688     1  0.0000000  0.6508444  3
   2675   2678   2687   2689     1  0.0000000  0.6508444  3
   2676   2675   2678   2687     1  0.0000000  0.6508444  3
   2676   2675   2678   2679     1  0.0000000  0.6508444  3
   2676   2675   2678   2680     1  0.0000000  0.6508444  3
   2677   2675   2678   2687     1  0.0000000  0.6508444  3
   2677   2675   2678   2679     1  0.0000000  0.6508444  3
   2677   2675   2678   2680     1  0.0000000  0.6508444  3
   2679   2678   2687   2696     1  0.0000000  1.0460000  1
   2679   2678   2687   2696     1  0.0000000  0.0000000  3
   2679   2678   2687   2688     1  0.0000000  0.6508444  3
   2679   2678   2687   2689     1  0.0000000  0.6508444  3
   2680   2678   2687   2696     1  0.0000000  1.0460000  1
   2680   2678   2687   2696     1  0.0000000  0.0000000  3
   2680   2678   2687   2688     1  0.0000000  0.6508444  3
   2680   2678   2687   2689     1  0.0000000  0.6508444  3
   2682   2681   2693   4875     1  0.0000000  1.0460000  1
   2682   2681   2693   4875     1  0.0000000  0.0000000  3
   2682   2681   2693   2694     1  0.0000000  0.6508444  3
   2682   2681   2693   2695     1  0.0000000  0.6508444  3
   2683   2681   2693   4875     1  0.0000000  1.0460000  1
   2683   2681   2693   4875     1  0.0000000  0.0000000  3
   2683   2681   2693   2694     1  0.0000000  0.6508444  3
   2683   2681   2693   2695     1  0.0000000  0.6508444  3
   2685   2684   2690   4852     1  0.0000000  1.0460000  1
   2685   2684   2690   4852     1  0.0000000  0.0000000  3
   2685   2684   2690   2691     1  0.0000000  0.6508444  3
   2685   2684   2690   2692     1  0.0000000  0.6508444  3
   2686   2684   2690   4852     1  0.0000000  1.0460000  1
   2686   2684   2690   4852     1  0.0000000  0.0000000  3
   2686   2684   2690   2691     1  0.0000000  0.6508444  3
   2686   2684   2690   2692     1  0.0000000  0.6508444  3
   2690   4852   4848   4851     1  0.0000000  1.6038667  3
   2691   2690   4852   4848     1  0.0000000  1.6038667  3
   2692   2690   4852   4848     1  0.0000000  1.6038667  3
   2693   4875   4871   4874     1  0.0000000  1.6038667  3
   2694   2693   4875   4871     1  0.0000000  1.6038667  3
   2695   2693   4875   4871     1  0.0000000  1.6038667  3
   2697   2698   2710   2711     1  0.0000000  0.6508444  3
   2697   2698   2710   2712     1  0.0000000  0.6508444  3
   2697   2701   2713   2714     1  0.0000000  0.6508444  3
   2697   2701   2713   2715     1  0.0000000  0.6508444  3
   2697   2704   2707   2708     1  0.0000000  0.6508444  3
   2697   2704   2707   2709     1  0.0000000  0.6508444  3
   2698   2697   2701   2702     1  0.0000000  1.2552000  3
   2698   2697   2701   2703     1  0.0000000  1.2552000  3
   2698   2697   2704   2705     1  0.0000000  1.2552000  3
   2698   2697   2704   2706     1  0.0000000  1.2552000  3
   2698   2710   2722   2723     1  0.0000000  0.6508444  3
   2698   2710   2722   2724     1  0.0000000  0.6508444  3
   2699   2698   2697   2701     1  0.0000000  1.2552000  3
   2699   2698   2697   2704     1  0.0000000  1.2552000  3
   2699   2698   2710   2722     1  0.0000000  0.6508444  3
   2699   2698   2710   2711     1  0.0000000  0.6508444  3
   2699   2698   2710   2712     1  0.0000000  0.6508444  3
   2700   2698   2697   2701     1  0.0000000  1.2552000  3
   2700   2698   2697   2704     1  0.0000000  1.2552000  3
   2700   2698   2710   2722     1  0.0000000  0.6508444  3
   2700   2698   2710   2711     1  0.0000000  0.6508444  3
   2700   2698   2710   2712     1  0.0000000  0.6508444  3
   2701   2697   2704   2705     1  0.0000000  1.2552000  3
   2701   2697   2704   2706     1  0.0000000  1.2552000  3
   2701   2713   2719   2720     1  0.0000000  0.6508444  3
   2701   2713   2719   2721     1  0.0000000  0.6508444  3
   2702   2701   2697   2704     1  0.0000000  1.2552000  3
   2702   2701   2713   2719     1  0.0000000  0.6508444  3
   2702   2701   2713   2714     1  0.0000000  0.6508444  3
   2702   2701   2713   2715     1  0.0000000  0.6508444  3
   2703   2701   2697   2704     1  0.0000000  1.2552000  3
   2703   2701   2713   2719     1  0.0000000  0.6508444  3
   2703   2701   2713   2714     1  0.0000000  0.6508444  3
   2703   2701   2713   2715     1  0.0000000  0.6508444  3
   2704   2707   2716   2717     1  0.0000000  0.6508444  3
   2704   2707   2716   2718     1  0.0000000  0.6508444  3
   2705   2704   2707   2716     1  0.0000000  0.6508444  3
   2705   2704   2707   2708     1  0.0000000  0.6508444  3
   2705   2704   2707   2709     1  0.0000000  0.6508444  3
   2706   2704   2707   2716     1  0.0000000  0.6508444  3
   2706   2704   2707   2708     1  0.0000000  0.6508444  3
   2706   2704   2707   2709     1  0.0000000  0.6508444  3
   2708   2707   2716   2725     1  0.0000000  1.0460000  1
   2708   2707   2716   2725     1  0.0000000  0.0000000  3
   2708   2707   2716   2717     1  0.0000000  0.6508444  3
   2708   2707   2716   2718     1  0.0000000  0.6508444  3
   2709   2707   2716   2725     1  0.0000000  1.0460000  1
   2709   2707   2716   2725     1  0.0000000  0.0000000  3
   2709   2707   2716   2717     1  0.0000000  0.6508444  3
   2709   2707   2716   2718     1  0.0000000  0.6508444  3
   2711   2710   2722   4921     1  0.0000000  1.0460000  1
   2711   2710   2722   4921     1  0.0000000  0.0000000  3
   2711   2710   2722   2723     1  0.0000000  0.6508444  3
   2711   2710   2722   2724     1  0.0000000  0.6508444  3
   2712   2710   2722   4921     1  0.0000000  1.0460000  1
   2712   2710   2722   4921     1  0.0000000  0.0000000  3
   2712   2710   2722   2723     1  0.0000000  0.6508444  3
   2712   2710   2722   2724     1  0.0000000  0.6508444  3
   2714   2713   2719   4898     1  0.0000000  1.0460000  1
   2714   2713   2719   4898     1  0.0000000  0.0000000  3
   2714   2713   2719   2720     1  0.0000000  0.6508444  3
   2714   2713   2719   2721     1  0.0000000  0.6508444  3
   2715   2713   2719   4898     1  0.0000000  1.0460000  1
   2715   2713   2719   4898     1  0.0000000  0.0000000  3
   2715   2713   2719   2720     1  0.0000000  0.6508444  3
   2715   2713   2719   2721     1  0.0000000  0.6508444  3
   2719   4898   4894   4897     1  0.0000000  1.6038667  3
   2720   2719   4898   4894     1  0.0000000  1.6038667  3
   2721   2719   4898   4894     1  0.0000000  1.6038667  3
   2722   4921   4917   4920     1  0.0000000  1.6038667  3
   2723   2722   4921   4917     1  0.0000000  1.6038667  3
   2724   2722   4921   4917     1  0.0000000  1.6038667  3
   2726   2727   2730   2734     1  0.0000000  0.6508444  3
   2726   2727   2739   2742     1  0.0000000  1.0460000  1
   2726   2727   2739   2742     1  0.0000000  0.6694400  3
   2726   2740   2746   2747     1  0.0000000  1.0460000  1
   2726   2740   2746   2747     1  0.0000000  0.6694400  3
   2726   2748   2732   2735     1  0.0000000  1.6038667  3
   2727   2726   2740   2744     1  0.0000000  0.6508444  3
   2727   2726   2740   2745     1  0.0000000  0.6508444  3
   2727   2730   2731   2733     1  0.0000000  0.6508444  3
   2727   2730   2738   2741     1  0.0000000  1.0460000  1
   2727   2730   2738   2741     1  0.0000000  0.6694400  3
   2728   2726   2727   2730     1  0.0000000  0.6508444  3
   2728   2726   2727   2739     1  0.0000000  1.0460000  1
   2728   2726   2727   2739     1  0.0000000  0.0000000  3
   2728   2726   2727   2729     1  0.0000000  0.6508444  3
   2728   2726   2740   2746     1  0.0000000  1.0460000  1
   2728   2726   2740   2746     1  0.0000000  0.0000000  3
   2728   2726   2740   2744     1  0.0000000  0.6508444  3
   2728   2726   2740   2745     1  0.0000000  0.6508444  3
   2728   2726   2748   2732     1  0.0000000  1.6038667  3
   2729   2727   2726   2740     1  0.0000000  0.6508444  3
   2729   2727   2726   2748     1  0.0000000  1.0460000  1
   2729   2727   2726   2748     1  0.0000000  0.0000000  3
   2729   2727   2730   2731     1  0.0000000  0.6508444  3
   2729   2727   2730   2738     1  0.0000000  1.0460000  1
   2729   2727   2730   2738     1  0.0000000  0.0000000  3
   2729   2727   2730   2734     1  0.0000000  0.6508444  3
   2729   2727   2739   2742     1  0.0000000  0.6973333  3
   2730   2727   2739   2742     1  0.0000000  1.0460000  1
   2730   2727   2739   2742     1  0.0000000  0.6694400  3
   2730   2731   2732   2735     1  0.0000000  0.6508444  3
   2730   2731   2737   2743     1  0.0000000  1.0460000  1
   2730   2731   2737   2743     1  0.0000000  0.6694400  3
   2731   2730   2738   2741     1  0.0000000  1.0460000  1
   2731   2730   2738   2741     1  0.0000000  0.6694400  3
   2732   2731   2730   2734     1  0.0000000  0.6508444  3
   2732   2731   2737   2743     1  0.0000000  1.0460000  1
   2732   2731   2737   2743     1  0.0000000  0.6694400  3
   2733   2731   2730   2738     1  0.0000000  1.0460000  1
   2733   2731   2730   2738     1  0.0000000  0.0000000  3
   2733   2731   2730   2734     1  0.0000000  0.6508444  3
   2733   2731   2732   2736     1  0.0000000  1.0460000  1
   2733   2731   2732   2736     1  0.0000000  0.0000000  3
   2733   2731   2732   2748     1  0.0000000  1.0460000  1
   2733   2731   2732   2748     1  0.0000000  0.0000000  3
   2733   2731   2732   2735     1  0.0000000  0.6508444  3
   2733   2731   2737   2743     1  0.0000000  0.6973333  3
   2734   2730   2727   2739     1  0.0000000  1.0460000  1
   2734   2730   2727   2739     1  0.0000000  0.0000000  3
   2734   2730   2731   2737     1  0.0000000  1.0460000  1
   2734   2730   2731   2737     1  0.0000000  0.0000000  3
   2734   2730   2738   2741     1  0.0000000  0.6973333  3
   2735   2732   2731   2737     1  0.0000000  0.6508444  3
   2744   2740   2726   2748     1  0.0000000  1.0460000  1
   2744   2740   2726   2748     1  0.0000000  0.0000000  3
   2744   2740   2746   2747     1  0.0000000  0.6973333  3
   2745   2740   2726   2748     1  0.0000000  1.0460000  1
   2745   2740   2726   2748     1  0.0000000  0.0000000  3
   2745   2740   2746   2747     1  0.0000000  0.6973333  3
   2749   2750   2753   2757     1  0.0000000  0.6508444  3
   2749   2750   2762   2765     1  0.0000000  1.0460000  1
   2749   2750   2762   2765     1  0.0000000  0.6694400  3
   2749   2763   2769   2770     1  0.0000000  1.0460000  1
   2749   2763   2769   2770     1  0.0000000  0.6694400  3
   2749   2771   2755   2758     1  0.0000000  1.6038667  3
   2750   2753   2754   2756     1  0.0000000  0.6508444  3
   2750   2753   2761   2764     1  0.0000000  1.0460000  1
   2750   2753   2761   2764     1  0.0000000  0.6694400  3
   2750   2749   2763   2767     1  0.0000000  0.6508444  3
   2750   2749   2763   2768     1  0.0000000  0.6508444  3
   2751   2749   2750   2753     1  0.0000000  0.6508444  3
   2751   2749   2750   2762     1  0.0000000  1.0460000  1
   2751   2749   2750   2762     1  0.0000000  0.0000000  3
   2751   2749   2750   2752     1  0.0000000  0.6508444  3
   2751   2749   2763   2769     1  0.0000000  1.0460000  1
   2751   2749   2763   2769     1  0.0000000  0.0000000  3
   2751   2749   2763   2767     1  0.0000000  0.6508444  3
   2751   2749   2763   2768     1  0.0000000  0.6508444  3
   2751   2749   2771   2755     1  0.0000000  1.6038667  3
   2752   2750   2753   2754     1  0.0000000  0.6508444  3
   2752   2750   2753   2761     1  0.0000000  1.0460000  1
   2752   2750   2753   2761     1  0.0000000  0.0000000  3
   2752   2750   2753   2757     1  0.0000000  0.6508444  3
   2752   2750   2762   2765     1  0.0000000  0.6973333  3
   2752   2750   2749   2763     1  0.0000000  0.6508444  3
   2752   2750   2749   2771     1  0.0000000  1.0460000  1
   2752   2750   2749   2771     1  0.0000000  0.0000000  3
   2753   2754   2755   2758     1  0.0000000  0.6508444  3
   2753   2754   2760   2766     1  0.0000000  1.0460000  1
   2753   2754   2760   2766     1  0.0000000  0.6694400  3
   2753   2750   2762   2765     1  0.0000000  1.0460000  1
   2753   2750   2762   2765     1  0.0000000  0.6694400  3
   2754   2753   2761   2764     1  0.0000000  1.0460000  1
   2754   2753   2761   2764     1  0.0000000  0.6694400  3
   2755   2754   2760   2766     1  0.0000000  1.0460000  1
   2755   2754   2760   2766     1  0.0000000  0.6694400  3
   2755   2754   2753   2757     1  0.0000000  0.6508444  3
   2756   2754   2755   2759     1  0.0000000  1.0460000  1
   2756   2754   2755   2759     1  0.0000000  0.0000000  3
   2756   2754   2755   2771     1  0.0000000  1.0460000  1
   2756   2754   2755   2771     1  0.0000000  0.0000000  3
   2756   2754   2755   2758     1  0.0000000  0.6508444  3
   2756   2754   2760   2766     1  0.0000000  0.6973333  3
   2756   2754   2753   2761     1  0.0000000  1.0460000  1
   2756   2754   2753   2761     1  0.0000000  0.0000000  3
   2756   2754   2753   2757     1  0.0000000  0.6508444  3
   2757   2753   2754   2760     1  0.0000000  1.0460000  1
   2757   2753   2754   2760     1  0.0000000  0.0000000  3
   2757   2753   2761   2764     1  0.0000000  0.6973333  3
   2757   2753   2750   2762     1  0.0000000  1.0460000  1
   2757   2753   2750   2762     1  0.0000000  0.0000000  3
   2758   2755   2754   2760     1  0.0000000  0.6508444  3
   2767   2763   2769   2770     1  0.0000000  0.6973333  3
   2767   2763   2749   2771     1  0.0000000  1.0460000  1
   2767   2763   2749   2771     1  0.0000000  0.0000000  3
   2768   2763   2769   2770     1  0.0000000  0.6973333  3
   2768   2763   2749   2771     1  0.0000000  1.0460000  1
   2768   2763   2749   2771     1  0.0000000  0.0000000  3
   2772   2773   2776   2780     1  0.0000000  0.6508444  3
   2772   2773   2785   2788     1  0.0000000  1.0460000  1
   2772   2773   2785   2788     1  0.0000000  0.6694400  3
   2772   2786   2792   2793     1  0.0000000  1.0460000  1
   2772   2786   2792   2793     1  0.0000000  0.6694400  3
   2772   2794   2778   2781     1  0.0000000  1.6038667  3
   2773   2772   2786   2790     1  0.0000000  0.6508444  3
   2773   2772   2786   2791     1  0.0000000  0.6508444  3
   2773   2776   2777   2779     1  0.0000000  0.6508444  3
   2773   2776   2784   2787     1  0.0000000  1.0460000  1
   2773   2776   2784   2787     1  0.0000000  0.6694400  3
   2774   2772   2773   2776     1  0.0000000  0.6508444  3
   2774   2772   2773   2785     1  0.0000000  1.0460000  1
   2774   2772   2773   2785     1  0.0000000  0.0000000  3
   2774   2772   2773   2775     1  0.0000000  0.6508444  3
   2774   2772   2786   2792     1  0.0000000  1.0460000  1
   2774   2772   2786   2792     1  0.0000000  0.0000000  3
   2774   2772   2786   2790     1  0.0000000  0.6508444  3
   2774   2772   2786   2791     1  0.0000000  0.6508444  3
   2774   2772   2794   2778     1  0.0000000  1.6038667  3
   2775   2773   2772   2786     1  0.0000000  0.6508444  3
   2775   2773   2772   2794     1  0.0000000  1.0460000  1
   2775   2773   2772   2794     1  0.0000000  0.0000000  3
   2775   2773   2776   2777     1  0.0000000  0.6508444  3
   2775   2773   2776   2784     1  0.0000000  1.0460000  1
   2775   2773   2776   2784     1  0.0000000  0.0000000  3
   2775   2773   2776   2780     1  0.0000000  0.6508444  3
   2775   2773   2785   2788     1  0.0000000  0.6973333  3
   2776   2773   2785   2788     1  0.0000000  1.0460000  1
   2776   2773   2785   2788     1  0.0000000  0.6694400  3
   2776   2777   2778   2781     1  0.0000000  0.6508444  3
   2776   2777   2783   2789     1  0.0000000  1.0460000  1
   2776   2777   2783   2789     1  0.0000000  0.6694400  3
   2777   2776   2784   2787     1  0.0000000  1.0460000  1
   2777   2776   2784   2787     1  0.0000000  0.6694400  3
   2778   2777   2776   2780     1  0.0000000  0.6508444  3
   2778   2777   2783   2789     1  0.0000000  1.0460000  1
   2778   2777   2783   2789     1  0.0000000  0.6694400  3
   2779   2777   2776   2784     1  0.0000000  1.0460000  1
   2779   2777   2776   2784     1  0.0000000  0.0000000  3
   2779   2777   2776   2780     1  0.0000000  0.6508444  3
   2779   2777   2778   2782     1  0.0000000  1.0460000  1
   2779   2777   2778   2782     1  0.0000000  0.0000000  3
   2779   2777   2778   2794     1  0.0000000  1.0460000  1
   2779   2777   2778   2794     1  0.0000000  0.0000000  3
   2779   2777   2778   2781     1  0.0000000  0.6508444  3
   2779   2777   2783   2789     1  0.0000000  0.6973333  3
   2780   2776   2773   2785     1  0.0000000  1.0460000  1
   2780   2776   2773   2785     1  0.0000000  0.0000000  3
   2780   2776   2777   2783     1  0.0000000  1.0460000  1
   2780   2776   2777   2783     1  0.0000000  0.0000000  3
   2780   2776   2784   2787     1  0.0000000  0.6973333  3
   2781   2778   2777   2783     1  0.0000000  0.6508444  3
   2790   2786   2772   2794     1  0.0000000  1.0460000  1
   2790   2786   2772   2794     1  0.0000000  0.0000000  3
   2790   2786   2792   2793     1  0.0000000  0.6973333  3
   2791   2786   2772   2794     1  0.0000000  1.0460000  1
   2791   2786   2772   2794     1  0.0000000  0.0000000  3
   2791   2786   2792   2793     1  0.0000000  0.6973333  3
   2795   2796   2799   2803     1  0.0000000  0.6508444  3
   2795   2796   2808   2811     1  0.0000000  1.0460000  1
   2795   2796   2808   2811     1  0.0000000  0.6694400  3
   2795   2809   2815   2816     1  0.0000000  1.0460000  1
   2795   2809   2815   2816     1  0.0000000  0.6694400  3
   2795   2817   2801   2804     1  0.0000000  1.6038667  3
   2796   2799   2800   2802     1  0.0000000  0.6508444  3
   2796   2799   2807   2810     1  0.0000000  1.0460000  1
   2796   2799   2807   2810     1  0.0000000  0.6694400  3
   2796   2795   2809   2813     1  0.0000000  0.6508444  3
   2796   2795   2809   2814     1  0.0000000  0.6508444  3
   2797   2795   2796   2799     1  0.0000000  0.6508444  3
   2797   2795   2796   2808     1  0.0000000  1.0460000  1
   2797   2795   2796   2808     1  0.0000000  0.0000000  3
   2797   2795   2796   2798     1  0.0000000  0.6508444  3
   2797   2795   2809   2815     1  0.0000000  1.0460000  1
   2797   2795   2809   2815     1  0.0000000  0.0000000  3
   2797   2795   2809   2813     1  0.0000000  0.6508444  3
   2797   2795   2809   2814     1  0.0000000  0.6508444  3
   2797   2795   2817   2801     1  0.0000000  1.6038667  3
   2798   2796   2799   2800     1  0.0000000  0.6508444  3
   2798   2796   2799   2807     1  0.0000000  1.0460000  1
   2798   2796   2799   2807     1  0.0000000  0.0000000  3
   2798   2796   2799   2803     1  0.0000000  0.6508444  3
   2798   2796   2808   2811     1  0.0000000  0.6973333  3
   2798   2796   2795   2809     1  0.0000000  0.6508444  3
   2798   2796   2795   2817     1  0.0000000  1.0460000  1
   2798   2796   2795   2817     1  0.0000000  0.0000000  3
   2799   2800   2801   2804     1  0.0000000  0.6508444  3
   2799   2800   2806   2812     1  0.0000000  1.0460000  1
   2799   2800   2806   2812     1  0.0000000  0.6694400  3
   2799   2796   2808   2811     1  0.0000000  1.0460000  1
   2799   2796   2808   2811     1  0.0000000  0.6694400  3
   2800   2799   2807   2810     1  0.0000000  1.0460000  1
   2800   2799   2807   2810     1  0.0000000  0.6694400  3
   2801   2800   2806   2812     1  0.0000000  1.0460000  1
   2801   2800   2806   2812     1  0.0000000  0.6694400  3
   2801   2800   2799   2803     1  0.0000000  0.6508444  3
   2802   2800   2801   2805     1  0.0000000  1.0460000  1
   2802   2800   2801   2805     1  0.0000000  0.0000000  3
   2802   2800   2801   2817     1  0.0000000  1.0460000  1
   2802   2800   2801   2817     1  0.0000000  0.0000000  3
   2802   2800   2801   2804     1  0.0000000  0.6508444  3
   2802   2800   2806   2812     1  0.0000000  0.6973333  3
   2802   2800   2799   2807     1  0.0000000  1.0460000  1
   2802   2800   2799   2807     1  0.0000000  0.0000000  3
   2802   2800   2799   2803     1  0.0000000  0.6508444  3
   2803   2799   2800   2806     1  0.0000000  1.0460000  1
   2803   2799   2800   2806     1  0.0000000  0.0000000  3
   2803   2799   2807   2810     1  0.0000000  0.6973333  3
   2803   2799   2796   2808     1  0.0000000  1.0460000  1
   2803   2799   2796   2808     1  0.0000000  0.0000000  3
   2804   2801   2800   2806     1  0.0000000  0.6508444  3
   2813   2809   2815   2816     1  0.0000000  0.6973333  3
   2813   2809   2795   2817     1  0.0000000  1.0460000  1
   2813   2809   2795   2817     1  0.0000000  0.0000000  3
   2814   2809   2815   2816     1  0.0000000  0.6973333  3
   2814   2809   2795   2817     1  0.0000000  1.0460000  1
   2814   2809   2795   2817     1  0.0000000  0.0000000  3
   2818   2819   2822   2826     1  0.0000000  0.6508444  3
   2818   2819   2831   2834     1  0.0000000  1.0460000  1
   2818   2819   2831   2834     1  0.0000000  0.6694400  3
   2818   2832   2838   2839     1  0.0000000  1.0460000  1
   2818   2832   2838   2839     1  0.0000000  0.6694400  3
   2818   2840   2824   2827     1  0.0000000  1.6038667  3
   2819   2818   2832   2836     1  0.0000000  0.6508444  3
   2819   2818   2832   2837     1  0.0000000  0.6508444  3
   2819   2822   2823   2825     1  0.0000000  0.6508444  3
   2819   2822   2830   2833     1  0.0000000  1.0460000  1
   2819   2822   2830   2833     1  0.0000000  0.6694400  3
   2820   2818   2819   2822     1  0.0000000  0.6508444  3
   2820   2818   2819   2831     1  0.0000000  1.0460000  1
   2820   2818   2819   2831     1  0.0000000  0.0000000  3
   2820   2818   2819   2821     1  0.0000000  0.6508444  3
   2820   2818   2832   2838     1  0.0000000  1.0460000  1
   2820   2818   2832   2838     1  0.0000000  0.0000000  3
   2820   2818   2832   2836     1  0.0000000  0.6508444  3
   2820   2818   2832   2837     1  0.0000000  0.6508444  3
   2820   2818   2840   2824     1  0.0000000  1.6038667  3
   2821   2819   2818   2832     1  0.0000000  0.6508444  3
   2821   2819   2818   2840     1  0.0000000  1.0460000  1
   2821   2819   2818   2840     1  0.0000000  0.0000000  3
   2821   2819   2822   2823     1  0.0000000  0.6508444  3
   2821   2819   2822   2830     1  0.0000000  1.0460000  1
   2821   2819   2822   2830     1  0.0000000  0.0000000  3
   2821   2819   2822   2826     1  0.0000000  0.6508444  3
   2821   2819   2831   2834     1  0.0000000  0.6973333  3
   2822   2819   2831   2834     1  0.0000000  1.0460000  1
   2822   2819   2831   2834     1  0.0000000  0.6694400  3
   2822   2823   2824   2827     1  0.0000000  0.6508444  3
   2822   2823   2829   2835     1  0.0000000  1.0460000  1
   2822   2823   2829   2835     1  0.0000000  0.6694400  3
   2823   2822   2830   2833     1  0.0000000  1.0460000  1
   2823   2822   2830   2833     1  0.0000000  0.6694400  3
   2824   2823   2822   2826     1  0.0000000  0.6508444  3
   2824   2823   2829   2835     1  0.0000000  1.0460000  1
   2824   2823   2829   2835     1  0.0000000  0.6694400  3
   2825   2823   2822   2830     1  0.0000000  1.0460000  1
   2825   2823   2822   2830     1  0.0000000  0.0000000  3
   2825   2823   2822   2826     1  0.0000000  0.6508444  3
   2825   2823   2824   2828     1  0.0000000  1.0460000  1
   2825   2823   2824   2828     1  0.0000000  0.0000000  3
   2825   2823   2824   2840     1  0.0000000  1.0460000  1
   2825   2823   2824   2840     1  0.0000000  0.0000000  3
   2825   2823   2824   2827     1  0.0000000  0.6508444  3
   2825   2823   2829   2835     1  0.0000000  0.6973333  3
   2826   2822   2819   2831     1  0.0000000  1.0460000  1
   2826   2822   2819   2831     1  0.0000000  0.0000000  3
   2826   2822   2823   2829     1  0.0000000  1.0460000  1
   2826   2822   2823   2829     1  0.0000000  0.0000000  3
   2826   2822   2830   2833     1  0.0000000  0.6973333  3
   2827   2824   2823   2829     1  0.0000000  0.6508444  3
   2836   2832   2818   2840     1  0.0000000  1.0460000  1
   2836   2832   2818   2840     1  0.0000000  0.0000000  3
   2836   2832   2838   2839     1  0.0000000  0.6973333  3
   2837   2832   2818   2840     1  0.0000000  1.0460000  1
   2837   2832   2818   2840     1  0.0000000  0.0000000  3
   2837   2832   2838   2839     1  0.0000000  0.6973333  3
   2841   2842   2845   2849     1  0.0000000  0.6508444  3
   2841   2842   2854   2857     1  0.0000000  1.0460000  1
   2841   2842   2854   2857     1  0.0000000  0.6694400  3
   2841   2855   2861   2862     1  0.0000000  1.0460000  1
   2841   2855   2861   2862     1  0.0000000  0.6694400  3
   2841   2863   2847   2850     1  0.0000000  1.6038667  3
   2842   2845   2846   2848     1  0.0000000  0.6508444  3
   2842   2845   2853   2856     1  0.0000000  1.0460000  1
   2842   2845   2853   2856     1  0.0000000  0.6694400  3
   2842   2841   2855   2859     1  0.0000000  0.6508444  3
   2842   2841   2855   2860     1  0.0000000  0.6508444  3
   2843   2841   2842   2845     1  0.0000000  0.6508444  3
   2843   2841   2842   2854     1  0.0000000  1.0460000  1
   2843   2841   2842   2854     1  0.0000000  0.0000000  3
   2843   2841   2842   2844     1  0.0000000  0.6508444  3
   2843   2841   2855   2861     1  0.0000000  1.0460000  1
   2843   2841   2855   2861     1  0.0000000  0.0000000  3
   2843   2841   2855   2859     1  0.0000000  0.6508444  3
   2843   2841   2855   2860     1  0.0000000  0.6508444  3
   2843   2841   2863   2847     1  0.0000000  1.6038667  3
   2844   2842   2845   2846     1  0.0000000  0.6508444  3
   2844   2842   2845   2853     1  0.0000000  1.0460000  1
   2844   2842   2845   2853     1  0.0000000  0.0000000  3
   2844   2842   2845   2849     1  0.0000000  0.6508444  3
   2844   2842   2854   2857     1  0.0000000  0.6973333  3
   2844   2842   2841   2855     1  0.0000000  0.6508444  3
   2844   2842   2841   2863     1  0.0000000  1.0460000  1
   2844   2842   2841   2863     1  0.0000000  0.0000000  3
   2845   2846   2847   2850     1  0.0000000  0.6508444  3
   2845   2846   2852   2858     1  0.0000000  1.0460000  1
   2845   2846   2852   2858     1  0.0000000  0.6694400  3
   2845   2842   2854   2857     1  0.0000000  1.0460000  1
   2845   2842   2854   2857     1  0.0000000  0.6694400  3
   2846   2845   2853   2856     1  0.0000000  1.0460000  1
   2846   2845   2853   2856     1  0.0000000  0.6694400  3
   2847   2846   2852   2858     1  0.0000000  1.0460000  1
   2847   2846   2852   2858     1  0.0000000  0.6694400  3
   2847   2846   2845   2849     1  0.0000000  0.6508444  3
   2848   2846   2847   2851     1  0.0000000  1.0460000  1
   2848   2846   2847   2851     1  0.0000000  0.0000000  3
   2848   2846   2847   2863     1  0.0000000  1.0460000  1
   2848   2846   2847   2863     1  0.0000000  0.0000000  3
   2848   2846   2847   2850     1  0.0000000  0.6508444  3
   2848   2846   2852   2858     1  0.0000000  0.6973333  3
   2848   2846   2845   2853     1  0.0000000  1.0460000  1
   2848   2846   2845   2853     1  0.0000000  0.0000000  3
   2848   2846   2845   2849     1  0.0000000  0.6508444  3
   2849   2845   2846   2852     1  0.0000000  1.0460000  1
   2849   2845   2846   2852     1  0.0000000  0.0000000  3
   2849   2845   2853   2856     1  0.0000000  0.6973333  3
   2849   2845   2842   2854     1  0.0000000  1.0460000  1
   2849   2845   2842   2854     1  0.0000000  0.0000000  3
   2850   2847   2846   2852     1  0.0000000  0.6508444  3
   2859   2855   2861   2862     1  0.0000000  0.6973333  3
   2859   2855   2841   2863     1  0.0000000  1.0460000  1
   2859   2855   2841   2863     1  0.0000000  0.0000000  3
   2860   2855   2861   2862     1  0.0000000  0.6973333  3
   2860   2855   2841   2863     1  0.0000000  1.0460000  1
   2860   2855   2841   2863     1  0.0000000  0.0000000  3
   2864   2865   2868   2872     1  0.0000000  0.6508444  3
   2864   2865   2877   2880     1  0.0000000  1.0460000  1
   2864   2865   2877   2880     1  0.0000000  0.6694400  3
   2864   2878   2884   2885     1  0.0000000  1.0460000  1
   2864   2878   2884   2885     1  0.0000000  0.6694400  3
   2864   2886   2870   2873     1  0.0000000  1.6038667  3
   2865   2864   2878   2882     1  0.0000000  0.6508444  3
   2865   2864   2878   2883     1  0.0000000  0.6508444  3
   2865   2868   2869   2871     1  0.0000000  0.6508444  3
   2865   2868   2876   2879     1  0.0000000  1.0460000  1
   2865   2868   2876   2879     1  0.0000000  0.6694400  3
   2866   2864   2865   2868     1  0.0000000  0.6508444  3
   2866   2864   2865   2877     1  0.0000000  1.0460000  1
   2866   2864   2865   2877     1  0.0000000  0.0000000  3
   2866   2864   2865   2867     1  0.0000000  0.6508444  3
   2866   2864   2878   2884     1  0.0000000  1.0460000  1
   2866   2864   2878   2884     1  0.0000000  0.0000000  3
   2866   2864   2878   2882     1  0.0000000  0.6508444  3
   2866   2864   2878   2883     1  0.0000000  0.6508444  3
   2866   2864   2886   2870     1  0.0000000  1.6038667  3
   2867   2865   2864   2878     1  0.0000000  0.6508444  3
   2867   2865   2864   2886     1  0.0000000  1.0460000  1
   2867   2865   2864   2886     1  0.0000000  0.0000000  3
   2867   2865   2868   2869     1  0.0000000  0.6508444  3
   2867   2865   2868   2876     1  0.0000000  1.0460000  1
   2867   2865   2868   2876     1  0.0000000  0.0000000  3
   2867   2865   2868   2872     1  0.0000000  0.6508444  3
   2867   2865   2877   2880     1  0.0000000  0.6973333  3
   2868   2865   2877   2880     1  0.0000000  1.0460000  1
   2868   2865   2877   2880     1  0.0000000  0.6694400  3
   2868   2869   2870   2873     1  0.0000000  0.6508444  3
   2868   2869   2875   2881     1  0.0000000  1.0460000  1
   2868   2869   2875   2881     1  0.0000000  0.6694400  3
   2869   2868   2876   2879     1  0.0000000  1.0460000  1
   2869   2868   2876   2879     1  0.0000000  0.6694400  3
   2870   2869   2868   2872     1  0.0000000  0.6508444  3
   2870   2869   2875   2881     1  0.0000000  1.0460000  1
   2870   2869   2875   2881     1  0.0000000  0.6694400  3
   2871   2869   2868   2876     1  0.0000000  1.0460000  1
   2871   2869   2868   2876     1  0.0000000  0.0000000  3
   2871   2869   2868   2872     1  0.0000000  0.6508444  3
   2871   2869   2870   2874     1  0.0000000  1.0460000  1
   2871   2869   2870   2874     1  0.0000000  0.0000000  3
   2871   2869   2870   2886     1  0.0000000  1.0460000  1
   2871   2869   2870   2886     1  0.0000000  0.0000000  3
   2871   2869   2870   2873     1  0.0000000  0.6508444  3
   2871   2869   2875   2881     1  0.0000000  0.6973333  3
   2872   2868   2865   2877     1  0.0000000  1.0460000  1
   2872   2868   2865   2877     1  0.0000000  0.0000000  3
   2872   2868   2869   2875     1  0.0000000  1.0460000  1
   2872   2868   2869   2875     1  0.0000000  0.0000000  3
   2872   2868   2876   2879     1  0.0000000  0.6973333  3
   2873   2870   2869   2875     1  0.0000000  0.6508444  3
   2882   2878   2864   2886     1  0.0000000  1.0460000  1
   2882   2878   2864   2886     1  0.0000000  0.0000000  3
   2882   2878   2884   2885     1  0.0000000  0.6973333  3
   2883   2878   2864   2886     1  0.0000000  1.0460000  1
   2883   2878   2864   2886     1  0.0000000  0.0000000  3
   2883   2878   2884   2885     1  0.0000000  0.6973333  3
   2887   2888   2891   2895     1  0.0000000  0.6508444  3
   2887   2888   2900   2903     1  0.0000000  1.0460000  1
   2887   2888   2900   2903     1  0.0000000  0.6694400  3
   2887   2901   2907   2908     1  0.0000000  1.0460000  1
   2887   2901   2907   2908     1  0.0000000  0.6694400  3
   2887   2909   2893   2896     1  0.0000000  1.6038667  3
   2888   2891   2892   2894     1  0.0000000  0.6508444  3
   2888   2891   2899   2902     1  0.0000000  1.0460000  1
   2888   2891   2899   2902     1  0.0000000  0.6694400  3
   2888   2887   2901   2905     1  0.0000000  0.6508444  3
   2888   2887   2901   2906     1  0.0000000  0.6508444  3
   2889   2887   2888   2891     1  0.0000000  0.6508444  3
   2889   2887   2888   2900     1  0.0000000  1.0460000  1
   2889   2887   2888   2900     1  0.0000000  0.0000000  3
   2889   2887   2888   2890     1  0.0000000  0.6508444  3
   2889   2887   2901   2907     1  0.0000000  1.0460000  1
   2889   2887   2901   2907     1  0.0000000  0.0000000  3
   2889   2887   2901   2905     1  0.0000000  0.6508444  3
   2889   2887   2901   2906     1  0.0000000  0.6508444  3
   2889   2887   2909   2893     1  0.0000000  1.6038667  3
   2890   2888   2891   2892     1  0.0000000  0.6508444  3
   2890   2888   2891   2899     1  0.0000000  1.0460000  1
   2890   2888   2891   2899     1  0.0000000  0.0000000  3
   2890   2888   2891   2895     1  0.0000000  0.6508444  3
   2890   2888   2900   2903     1  0.0000000  0.6973333  3
   2890   2888   2887   2901     1  0.0000000  0.6508444  3
   2890   2888   2887   2909     1  0.0000000  1.0460000  1
   2890   2888   2887   2909     1  0.0000000  0.0000000  3
   2891   2892   2893   2896     1  0.0000000  0.6508444  3
   2891   2892   2898   2904     1  0.0000000  1.0460000  1
   2891   2892   2898   2904     1  0.0000000  0.6694400  3
   2891   2888   2900   2903     1  0.0000000  1.0460000  1
   2891   2888   2900   2903     1  0.0000000  0.6694400  3
   2892   2891   2899   2902     1  0.0000000  1.0460000  1
   2892   2891   2899   2902     1  0.0000000  0.6694400  3
   2893   2892   2898   2904     1  0.0000000  1.0460000  1
   2893   2892   2898   2904     1  0.0000000  0.6694400  3
   2893   2892   2891   2895     1  0.0000000  0.6508444  3
   2894   2892   2893   2897     1  0.0000000  1.0460000  1
   2894   2892   2893   2897     1  0.0000000  0.0000000  3
   2894   2892   2893   2909     1  0.0000000  1.0460000  1
   2894   2892   2893   2909     1  0.0000000  0.0000000  3
   2894   2892   2893   2896     1  0.0000000  0.6508444  3
   2894   2892   2898   2904     1  0.0000000  0.6973333  3
   2894   2892   2891   2899     1  0.0000000  1.0460000  1
   2894   2892   2891   2899     1  0.0000000  0.0000000  3
   2894   2892   2891   2895     1  0.0000000  0.6508444  3
   2895   2891   2892   2898     1  0.0000000  1.0460000  1
   2895   2891   2892   2898     1  0.0000000  0.0000000  3
   2895   2891   2899   2902     1  0.0000000  0.6973333  3
   2895   2891   2888   2900     1  0.0000000  1.0460000  1
   2895   2891   2888   2900     1  0.0000000  0.0000000  3
   2896   2893   2892   2898     1  0.0000000  0.6508444  3
   2905   2901   2907   2908     1  0.0000000  0.6973333  3
   2905   2901   2887   2909     1  0.0000000  1.0460000  1
   2905   2901   2887   2909     1  0.0000000  0.0000000  3
   2906   2901   2907   2908     1  0.0000000  0.6973333  3
   2906   2901   2887   2909     1  0.0000000  1.0460000  1
   2906   2901   2887   2909     1  0.0000000  0.0000000  3
   2910   2911   2914   2918     1  0.0000000  0.6508444  3
   2910   2911   2923   2926     1  0.0000000  1.0460000  1
   2910   2911   2923   2926     1  0.0000000  0.6694400  3
   2910   2924   2930   2931     1  0.0000000  1.0460000  1
   2910   2924   2930   2931     1  0.0000000  0.6694400  3
   2910   2932   2916   2919     1  0.0000000  1.6038667  3
   2911   2910   2924   2928     1  0.0000000  0.6508444  3
   2911   2910   2924   2929     1  0.0000000  0.6508444  3
   2911   2914   2915   2917     1  0.0000000  0.6508444  3
   2911   2914   2922   2925     1  0.0000000  1.0460000  1
   2911   2914   2922   2925     1  0.0000000  0.6694400  3
   2912   2910   2911   2914     1  0.0000000  0.6508444  3
   2912   2910   2911   2923     1  0.0000000  1.0460000  1
   2912   2910   2911   2923     1  0.0000000  0.0000000  3
   2912   2910   2911   2913     1  0.0000000  0.6508444  3
   2912   2910   2924   2930     1  0.0000000  1.0460000  1
   2912   2910   2924   2930     1  0.0000000  0.0000000  3
   2912   2910   2924   2928     1  0.0000000  0.6508444  3
   2912   2910   2924   2929     1  0.0000000  0.6508444  3
   2912   2910   2932   2916     1  0.0000000  1.6038667  3
   2913   2911   2910   2924     1  0.0000000  0.6508444  3
   2913   2911   2910   2932     1  0.0000000  1.0460000  1
   2913   2911   2910   2932     1  0.0000000  0.0000000  3
   2913   2911   2914   2915     1  0.0000000  0.6508444  3
   2913   2911   2914   2922     1  0.0000000  1.0460000  1
   2913   2911   2914   2922     1  0.0000000  0.0000000  3
   2913   2911   2914   2918     1  0.0000000  0.6508444  3
   2913   2911   2923   2926     1  0.0000000  0.6973333  3
   2914   2911   2923   2926     1  0.0000000  1.0460000  1
   2914   2911   2923   2926     1  0.0000000  0.6694400  3
   2914   2915   2916   2919     1  0.0000000  0.6508444  3
   2914   2915   2921   2927     1  0.0000000  1.0460000  1
   2914   2915   2921   2927     1  0.0000000  0.6694400  3
   2915   2914   2922   2925     1  0.0000000  1.0460000  1
   2915   2914   2922   2925     1  0.0000000  0.6694400  3
   2916   2915   2914   2918     1  0.0000000  0.6508444  3
   2916   2915   2921   2927     1  0.0000000  1.0460000  1
   2916   2915   2921   2927     1  0.0000000  0.6694400  3
   2917   2915   2914   2922     1  0.0000000  1.0460000  1
   2917   2915   2914   2922     1  0.0000000  0.0000000  3
   2917   2915   2914   2918     1  0.0000000  0.6508444  3
   2917   2915   2916   2920     1  0.0000000  1.0460000  1
   2917   2915   2916   2920     1  0.0000000  0.0000000  3
   2917   2915   2916   2932     1  0.0000000  1.0460000  1
   2917   2915   2916   2932     1  0.0000000  0.0000000  3
   2917   2915   2916   2919     1  0.0000000  0.6508444  3
   2917   2915   2921   2927     1  0.0000000  0.6973333  3
   2918   2914   2911   2923     1  0.0000000  1.0460000  1
   2918   2914   2911   2923     1  0.0000000  0.0000000  3
   2918   2914   2915   2921     1  0.0000000  1.0460000  1
   2918   2914   2915   2921     1  0.0000000  0.0000000  3
   2918   2914   2922   2925     1  0.0000000  0.6973333  3
   2919   2916   2915   2921     1  0.0000000  0.6508444  3
   2928   2924   2910   2932     1  0.0000000  1.0460000  1
   2928   2924   2910   2932     1  0.0000000  0.0000000  3
   2928   2924   2930   2931     1  0.0000000  0.6973333  3
   2929   2924   2910   2932     1  0.0000000  1.0460000  1
   2929   2924   2910   2932     1  0.0000000  0.0000000  3
   2929   2924   2930   2931     1  0.0000000  0.6973333  3
   2933   2934   2937   2941     1  0.0000000  0.6508444  3
   2933   2934   2946   2949     1  0.0000000  1.0460000  1
   2933   2934   2946   2949     1  0.0000000  0.6694400  3
   2933   2947   2953   2954     1  0.0000000  1.0460000  1
   2933   2947   2953   2954     1  0.0000000  0.6694400  3
   2933   2955   2939   2942     1  0.0000000  1.6038667  3
   2934   2937   2938   2940     1  0.0000000  0.6508444  3
   2934   2937   2945   2948     1  0.0000000  1.0460000  1
   2934   2937   2945   2948     1  0.0000000  0.6694400  3
   2934   2933   2947   2951     1  0.0000000  0.6508444  3
   2934   2933   2947   2952     1  0.0000000  0.6508444  3
   2935   2933   2934   2937     1  0.0000000  0.6508444  3
   2935   2933   2934   2946     1  0.0000000  1.0460000  1
   2935   2933   2934   2946     1  0.0000000  0.0000000  3
   2935   2933   2934   2936     1  0.0000000  0.6508444  3
   2935   2933   2947   2953     1  0.0000000  1.0460000  1
   2935   2933   2947   2953     1  0.0000000  0.0000000  3
   2935   2933   2947   2951     1  0.0000000  0.6508444  3
   2935   2933   2947   2952     1  0.0000000  0.6508444  3
   2935   2933   2955   2939     1  0.0000000  1.6038667  3
   2936   2934   2937   2938     1  0.0000000  0.6508444  3
   2936   2934   2937   2945     1  0.0000000  1.0460000  1
   2936   2934   2937   2945     1  0.0000000  0.0000000  3
   2936   2934   2937   2941     1  0.0000000  0.6508444  3
   2936   2934   2946   2949     1  0.0000000  0.6973333  3
   2936   2934   2933   2947     1  0.0000000  0.6508444  3
   2936   2934   2933   2955     1  0.0000000  1.0460000  1
   2936   2934   2933   2955     1  0.0000000  0.0000000  3
   2937   2938   2939   2942     1  0.0000000  0.6508444  3
   2937   2938   2944   2950     1  0.0000000  1.0460000  1
   2937   2938   2944   2950     1  0.0000000  0.6694400  3
   2937   2934   2946   2949     1  0.0000000  1.0460000  1
   2937   2934   2946   2949     1  0.0000000  0.6694400  3
   2938   2937   2945   2948     1  0.0000000  1.0460000  1
   2938   2937   2945   2948     1  0.0000000  0.6694400  3
   2939   2938   2944   2950     1  0.0000000  1.0460000  1
   2939   2938   2944   2950     1  0.0000000  0.6694400  3
   2939   2938   2937   2941     1  0.0000000  0.6508444  3
   2940   2938   2939   2943     1  0.0000000  1.0460000  1
   2940   2938   2939   2943     1  0.0000000  0.0000000  3
   2940   2938   2939   2955     1  0.0000000  1.0460000  1
   2940   2938   2939   2955     1  0.0000000  0.0000000  3
   2940   2938   2939   2942     1  0.0000000  0.6508444  3
   2940   2938   2944   2950     1  0.0000000  0.6973333  3
   2940   2938   2937   2945     1  0.0000000  1.0460000  1
   2940   2938   2937   2945     1  0.0000000  0.0000000  3
   2940   2938   2937   2941     1  0.0000000  0.6508444  3
   2941   2937   2938   2944     1  0.0000000  1.0460000  1
   2941   2937   2938   2944     1  0.0000000  0.0000000  3
   2941   2937   2945   2948     1  0.0000000  0.6973333  3
   2941   2937   2934   2946     1  0.0000000  1.0460000  1
   2941   2937   2934   2946     1  0.0000000  0.0000000  3
   2942   2939   2938   2944     1  0.0000000  0.6508444  3
   2951   2947   2953   2954     1  0.0000000  0.6973333  3
   2951   2947   2933   2955     1  0.0000000  1.0460000  1
   2951   2947   2933   2955     1  0.0000000  0.0000000  3
   2952   2947   2953   2954     1  0.0000000  0.6973333  3
   2952   2947   2933   2955     1  0.0000000  1.0460000  1
   2952   2947   2933   2955     1  0.0000000  0.0000000  3
   2956   2957   2960   2964     1  0.0000000  0.6508444  3
   2956   2957   2969   2972     1  0.0000000  1.0460000  1
   2956   2957   2969   2972     1  0.0000000  0.6694400  3
   2956   2970   2976   2977     1  0.0000000  1.0460000  1
   2956   2970   2976   2977     1  0.0000000  0.6694400  3
   2956   2978   2962   2965     1  0.0000000  1.6038667  3
   2957   2956   2970   2974     1  0.0000000  0.6508444  3
   2957   2956   2970   2975     1  0.0000000  0.6508444  3
   2957   2960   2961   2963     1  0.0000000  0.6508444  3
   2957   2960   2968   2971     1  0.0000000  1.0460000  1
   2957   2960   2968   2971     1  0.0000000  0.6694400  3
   2958   2956   2957   2960     1  0.0000000  0.6508444  3
   2958   2956   2957   2969     1  0.0000000  1.0460000  1
   2958   2956   2957   2969     1  0.0000000  0.0000000  3
   2958   2956   2957   2959     1  0.0000000  0.6508444  3
   2958   2956   2970   2976     1  0.0000000  1.0460000  1
   2958   2956   2970   2976     1  0.0000000  0.0000000  3
   2958   2956   2970   2974     1  0.0000000  0.6508444  3
   2958   2956   2970   2975     1  0.0000000  0.6508444  3
   2958   2956   2978   2962     1  0.0000000  1.6038667  3
   2959   2957   2956   2970     1  0.0000000  0.6508444  3
   2959   2957   2956   2978     1  0.0000000  1.0460000  1
   2959   2957   2956   2978     1  0.0000000  0.0000000  3
   2959   2957   2960   2961     1  0.0000000  0.6508444  3
   2959   2957   2960   2968     1  0.0000000  1.0460000  1
   2959   2957   2960   2968     1  0.0000000  0.0000000  3
   2959   2957   2960   2964     1  0.0000000  0.6508444  3
   2959   2957   2969   2972     1  0.0000000  0.6973333  3
   2960   2957   2969   2972     1  0.0000000  1.0460000  1
   2960   2957   2969   2972     1  0.0000000  0.6694400  3
   2960   2961   2962   2965     1  0.0000000  0.6508444  3
   2960   2961   2967   2973     1  0.0000000  1.0460000  1
   2960   2961   2967   2973     1  0.0000000  0.6694400  3
   2961   2960   2968   2971     1  0.0000000  1.0460000  1
   2961   2960   2968   2971     1  0.0000000  0.6694400  3
   2962   2961   2960   2964     1  0.0000000  0.6508444  3
   2962   2961   2967   2973     1  0.0000000  1.0460000  1
   2962   2961   2967   2973     1  0.0000000  0.6694400  3
   2963   2961   2960   2968     1  0.0000000  1.0460000  1
   2963   2961   2960   2968     1  0.0000000  0.0000000  3
   2963   2961   2960   2964     1  0.0000000  0.6508444  3
   2963   2961   2962   2966     1  0.0000000  1.0460000  1
   2963   2961   2962   2966     1  0.0000000  0.0000000  3
   2963   2961   2962   2978     1  0.0000000  1.0460000  1
   2963   2961   2962   2978     1  0.0000000  0.0000000  3
   2963   2961   2962   2965     1  0.0000000  0.6508444  3
   2963   2961   2967   2973     1  0.0000000  0.6973333  3
   2964   2960   2957   2969     1  0.0000000  1.0460000  1
   2964   2960   2957   2969     1  0.0000000  0.0000000  3
   2964   2960   2961   2967     1  0.0000000  1.0460000  1
   2964   2960   2961   2967     1  0.0000000  0.0000000  3
   2964   2960   2968   2971     1  0.0000000  0.6973333  3
   2965   2962   2961   2967     1  0.0000000  0.6508444  3
   2974   2970   2956   2978     1  0.0000000  1.0460000  1
   2974   2970   2956   2978     1  0.0000000  0.0000000  3
   2974   2970   2976   2977     1  0.0000000  0.6973333  3
   2975   2970   2956   2978     1  0.0000000  1.0460000  1
   2975   2970   2956   2978     1  0.0000000  0.0000000  3
   2975   2970   2976   2977     1  0.0000000  0.6973333  3
   2979   2980   2983   2987     1  0.0000000  0.6508444  3
   2979   2980   2992   2995     1  0.0000000  1.0460000  1
   2979   2980   2992   2995     1  0.0000000  0.6694400  3
   2979   2993   2999   3000     1  0.0000000  1.0460000  1
   2979   2993   2999   3000     1  0.0000000  0.6694400  3
   2979   3001   2985   2988     1  0.0000000  1.6038667  3
   2980   2983   2984   2986     1  0.0000000  0.6508444  3
   2980   2983   2991   2994     1  0.0000000  1.0460000  1
   2980   2983   2991   2994     1  0.0000000  0.6694400  3
   2980   2979   2993   2997     1  0.0000000  0.6508444  3
   2980   2979   2993   2998     1  0.0000000  0.6508444  3
   2981   2979   2980   2983     1  0.0000000  0.6508444  3
   2981   2979   2980   2992     1  0.0000000  1.0460000  1
   2981   2979   2980   2992     1  0.0000000  0.0000000  3
   2981   2979   2980   2982     1  0.0000000  0.6508444  3
   2981   2979   2993   2999     1  0.0000000  1.0460000  1
   2981   2979   2993   2999     1  0.0000000  0.0000000  3
   2981   2979   2993   2997     1  0.0000000  0.6508444  3
   2981   2979   2993   2998     1  0.0000000  0.6508444  3
   2981   2979   3001   2985     1  0.0000000  1.6038667  3
   2982   2980   2983   2984     1  0.0000000  0.6508444  3
   2982   2980   2983   2991     1  0.0000000  1.0460000  1
   2982   2980   2983   2991     1  0.0000000  0.0000000  3
   2982   2980   2983   2987     1  0.0000000  0.6508444  3
   2982   2980   2992   2995     1  0.0000000  0.6973333  3
   2982   2980   2979   2993     1  0.0000000  0.6508444  3
   2982   2980   2979   3001     1  0.0000000  1.0460000  1
   2982   2980   2979   3001     1  0.0000000  0.0000000  3
   2983   2984   2985   2988     1  0.0000000  0.6508444  3
   2983   2984   2990   2996     1  0.0000000  1.0460000  1
   2983   2984   2990   2996     1  0.0000000  0.6694400  3
   2983   2980   2992   2995     1  0.0000000  1.0460000  1
   2983   2980   2992   2995     1  0.0000000  0.6694400  3
   2984   2983   2991   2994     1  0.0000000  1.0460000  1
   2984   2983   2991   2994     1  0.0000000  0.6694400  3
   2985   2984   2990   2996     1  0.0000000  1.0460000  1
   2985   2984   2990   2996     1  0.0000000  0.6694400  3
   2985   2984   2983   2987     1  0.0000000  0.6508444  3
   2986   2984   2985   2989     1  0.0000000  1.0460000  1
   2986   2984   2985   2989     1  0.0000000  0.0000000  3
   2986   2984   2985   3001     1  0.0000000  1.0460000  1
   2986   2984   2985   3001     1  0.0000000  0.0000000  3
   2986   2984   2985   2988     1  0.0000000  0.6508444  3
   2986   2984   2990   2996     1  0.0000000  0.6973333  3
   2986   2984   2983   2991     1  0.0000000  1.0460000  1
   2986   2984   2983   2991     1  0.0000000  0.0000000  3
   2986   2984   2983   2987     1  0.0000000  0.6508444  3
   2987   2983   2984   2990     1  0.0000000  1.0460000  1
   2987   2983   2984   2990     1  0.0000000  0.0000000  3
   2987   2983   2991   2994     1  0.0000000  0.6973333  3
   2987   2983   2980   2992     1  0.0000000  1.0460000  1
   2987   2983   2980   2992     1  0.0000000  0.0000000  3
   2988   2985   2984   2990     1  0.0000000  0.6508444  3
   2997   2993   2999   3000     1  0.0000000  0.6973333  3
   2997   2993   2979   3001     1  0.0000000  1.0460000  1
   2997   2993   2979   3001     1  0.0000000  0.0000000  3
   2998   2993   2999   3000     1  0.0000000  0.6973333  3
   2998   2993   2979   3001     1  0.0000000  1.0460000  1
   2998   2993   2979   3001     1  0.0000000  0.0000000  3
   3002   3003   3006   3010     1  0.0000000  0.6508444  3
   3002   3003   3015   3018     1  0.0000000  1.0460000  1
   3002   3003   3015   3018     1  0.0000000  0.6694400  3
   3002   3016   3022   3023     1  0.0000000  1.0460000  1
   3002   3016   3022   3023     1  0.0000000  0.6694400  3
   3002   3024   3008   3011     1  0.0000000  1.6038667  3
   3003   3002   3016   3020     1  0.0000000  0.6508444  3
   3003   3002   3016   3021     1  0.0000000  0.6508444  3
   3003   3006   3007   3009     1  0.0000000  0.6508444  3
   3003   3006   3014   3017     1  0.0000000  1.0460000  1
   3003   3006   3014   3017     1  0.0000000  0.6694400  3
   3004   3002   3003   3006     1  0.0000000  0.6508444  3
   3004   3002   3003   3015     1  0.0000000  1.0460000  1
   3004   3002   3003   3015     1  0.0000000  0.0000000  3
   3004   3002   3003   3005     1  0.0000000  0.6508444  3
   3004   3002   3016   3022     1  0.0000000  1.0460000  1
   3004   3002   3016   3022     1  0.0000000  0.0000000  3
   3004   3002   3016   3020     1  0.0000000  0.6508444  3
   3004   3002   3016   3021     1  0.0000000  0.6508444  3
   3004   3002   3024   3008     1  0.0000000  1.6038667  3
   3005   3003   3002   3016     1  0.0000000  0.6508444  3
   3005   3003   3002   3024     1  0.0000000  1.0460000  1
   3005   3003   3002   3024     1  0.0000000  0.0000000  3
   3005   3003   3006   3007     1  0.0000000  0.6508444  3
   3005   3003   3006   3014     1  0.0000000  1.0460000  1
   3005   3003   3006   3014     1  0.0000000  0.0000000  3
   3005   3003   3006   3010     1  0.0000000  0.6508444  3
   3005   3003   3015   3018     1  0.0000000  0.6973333  3
   3006   3003   3015   3018     1  0.0000000  1.0460000  1
   3006   3003   3015   3018     1  0.0000000  0.6694400  3
   3006   3007   3008   3011     1  0.0000000  0.6508444  3
   3006   3007   3013   3019     1  0.0000000  1.0460000  1
   3006   3007   3013   3019     1  0.0000000  0.6694400  3
   3007   3006   3014   3017     1  0.0000000  1.0460000  1
   3007   3006   3014   3017     1  0.0000000  0.6694400  3
   3008   3007   3006   3010     1  0.0000000  0.6508444  3
   3008   3007   3013   3019     1  0.0000000  1.0460000  1
   3008   3007   3013   3019     1  0.0000000  0.6694400  3
   3009   3007   3006   3014     1  0.0000000  1.0460000  1
   3009   3007   3006   3014     1  0.0000000  0.0000000  3
   3009   3007   3006   3010     1  0.0000000  0.6508444  3
   3009   3007   3008   3012     1  0.0000000  1.0460000  1
   3009   3007   3008   3012     1  0.0000000  0.0000000  3
   3009   3007   3008   3024     1  0.0000000  1.0460000  1
   3009   3007   3008   3024     1  0.0000000  0.0000000  3
   3009   3007   3008   3011     1  0.0000000  0.6508444  3
   3009   3007   3013   3019     1  0.0000000  0.6973333  3
   3010   3006   3003   3015     1  0.0000000  1.0460000  1
   3010   3006   3003   3015     1  0.0000000  0.0000000  3
   3010   3006   3007   3013     1  0.0000000  1.0460000  1
   3010   3006   3007   3013     1  0.0000000  0.0000000  3
   3010   3006   3014   3017     1  0.0000000  0.6973333  3
   3011   3008   3007   3013     1  0.0000000  0.6508444  3
   3020   3016   3002   3024     1  0.0000000  1.0460000  1
   3020   3016   3002   3024     1  0.0000000  0.0000000  3
   3020   3016   3022   3023     1  0.0000000  0.6973333  3
   3021   3016   3002   3024     1  0.0000000  1.0460000  1
   3021   3016   3002   3024     1  0.0000000  0.0000000  3
   3021   3016   3022   3023     1  0.0000000  0.6973333  3
   3025   3026   3029   3033     1  0.0000000  0.6508444  3
   3025   3026   3038   3041     1  0.0000000  1.0460000  1
   3025   3026   3038   3041     1  0.0000000  0.6694400  3
   3025   3039   3045   3046     1  0.0000000  1.0460000  1
   3025   3039   3045   3046     1  0.0000000  0.6694400  3
   3025   3047   3031   3034     1  0.0000000  1.6038667  3
   3026   3029   3030   3032     1  0.0000000  0.6508444  3
   3026   3029   3037   3040     1  0.0000000  1.0460000  1
   3026   3029   3037   3040     1  0.0000000  0.6694400  3
   3026   3025   3039   3043     1  0.0000000  0.6508444  3
   3026   3025   3039   3044     1  0.0000000  0.6508444  3
   3027   3025   3026   3029     1  0.0000000  0.6508444  3
   3027   3025   3026   3038     1  0.0000000  1.0460000  1
   3027   3025   3026   3038     1  0.0000000  0.0000000  3
   3027   3025   3026   3028     1  0.0000000  0.6508444  3
   3027   3025   3039   3045     1  0.0000000  1.0460000  1
   3027   3025   3039   3045     1  0.0000000  0.0000000  3
   3027   3025   3039   3043     1  0.0000000  0.6508444  3
   3027   3025   3039   3044     1  0.0000000  0.6508444  3
   3027   3025   3047   3031     1  0.0000000  1.6038667  3
   3028   3026   3029   3030     1  0.0000000  0.6508444  3
   3028   3026   3029   3037     1  0.0000000  1.0460000  1
   3028   3026   3029   3037     1  0.0000000  0.0000000  3
   3028   3026   3029   3033     1  0.0000000  0.6508444  3
   3028   3026   3038   3041     1  0.0000000  0.6973333  3
   3028   3026   3025   3039     1  0.0000000  0.6508444  3
   3028   3026   3025   3047     1  0.0000000  1.0460000  1
   3028   3026   3025   3047     1  0.0000000  0.0000000  3
   3029   3030   3031   3034     1  0.0000000  0.6508444  3
   3029   3030   3036   3042     1  0.0000000  1.0460000  1
   3029   3030   3036   3042     1  0.0000000  0.6694400  3
   3029   3026   3038   3041     1  0.0000000  1.0460000  1
   3029   3026   3038   3041     1  0.0000000  0.6694400  3
   3030   3029   3037   3040     1  0.0000000  1.0460000  1
   3030   3029   3037   3040     1  0.0000000  0.6694400  3
   3031   3030   3036   3042     1  0.0000000  1.0460000  1
   3031   3030   3036   3042     1  0.0000000  0.6694400  3
   3031   3030   3029   3033     1  0.0000000  0.6508444  3
   3032   3030   3031   3035     1  0.0000000  1.0460000  1
   3032   3030   3031   3035     1  0.0000000  0.0000000  3
   3032   3030   3031   3047     1  0.0000000  1.0460000  1
   3032   3030   3031   3047     1  0.0000000  0.0000000  3
   3032   3030   3031   3034     1  0.0000000  0.6508444  3
   3032   3030   3036   3042     1  0.0000000  0.6973333  3
   3032   3030   3029   3037     1  0.0000000  1.0460000  1
   3032   3030   3029   3037     1  0.0000000  0.0000000  3
   3032   3030   3029   3033     1  0.0000000  0.6508444  3
   3033   3029   3030   3036     1  0.0000000  1.0460000  1
   3033   3029   3030   3036     1  0.0000000  0.0000000  3
   3033   3029   3037   3040     1  0.0000000  0.6973333  3
   3033   3029   3026   3038     1  0.0000000  1.0460000  1
   3033   3029   3026   3038     1  0.0000000  0.0000000  3
   3034   3031   3030   3036     1  0.0000000  0.6508444  3
   3043   3039   3045   3046     1  0.0000000  0.6973333  3
   3043   3039   3025   3047     1  0.0000000  1.0460000  1
   3043   3039   3025   3047     1  0.0000000  0.0000000  3
   3044   3039   3045   3046     1  0.0000000  0.6973333  3
   3044   3039   3025   3047     1  0.0000000  1.0460000  1
   3044   3039   3025   3047     1  0.0000000  0.0000000  3
   3048   3049   3052   3056     1  0.0000000  0.6508444  3
   3048   3049   3061   3064     1  0.0000000  1.0460000  1
   3048   3049   3061   3064     1  0.0000000  0.6694400  3
   3048   3062   3068   3069     1  0.0000000  1.0460000  1
   3048   3062   3068   3069     1  0.0000000  0.6694400  3
   3048   3070   3054   3057     1  0.0000000  1.6038667  3
   3049   3048   3062   3066     1  0.0000000  0.6508444  3
   3049   3048   3062   3067     1  0.0000000  0.6508444  3
   3049   3052   3053   3055     1  0.0000000  0.6508444  3
   3049   3052   3060   3063     1  0.0000000  1.0460000  1
   3049   3052   3060   3063     1  0.0000000  0.6694400  3
   3050   3048   3049   3052     1  0.0000000  0.6508444  3
   3050   3048   3049   3061     1  0.0000000  1.0460000  1
   3050   3048   3049   3061     1  0.0000000  0.0000000  3
   3050   3048   3049   3051     1  0.0000000  0.6508444  3
   3050   3048   3062   3068     1  0.0000000  1.0460000  1
   3050   3048   3062   3068     1  0.0000000  0.0000000  3
   3050   3048   3062   3066     1  0.0000000  0.6508444  3
   3050   3048   3062   3067     1  0.0000000  0.6508444  3
   3050   3048   3070   3054     1  0.0000000  1.6038667  3
   3051   3049   3048   3062     1  0.0000000  0.6508444  3
   3051   3049   3048   3070     1  0.0000000  1.0460000  1
   3051   3049   3048   3070     1  0.0000000  0.0000000  3
   3051   3049   3052   3053     1  0.0000000  0.6508444  3
   3051   3049   3052   3060     1  0.0000000  1.0460000  1
   3051   3049   3052   3060     1  0.0000000  0.0000000  3
   3051   3049   3052   3056     1  0.0000000  0.6508444  3
   3051   3049   3061   3064     1  0.0000000  0.6973333  3
   3052   3049   3061   3064     1  0.0000000  1.0460000  1
   3052   3049   3061   3064     1  0.0000000  0.6694400  3
   3052   3053   3054   3057     1  0.0000000  0.6508444  3
   3052   3053   3059   3065     1  0.0000000  1.0460000  1
   3052   3053   3059   3065     1  0.0000000  0.6694400  3
   3053   3052   3060   3063     1  0.0000000  1.0460000  1
   3053   3052   3060   3063     1  0.0000000  0.6694400  3
   3054   3053   3052   3056     1  0.0000000  0.6508444  3
   3054   3053   3059   3065     1  0.0000000  1.0460000  1
   3054   3053   3059   3065     1  0.0000000  0.6694400  3
   3055   3053   3052   3060     1  0.0000000  1.0460000  1
   3055   3053   3052   3060     1  0.0000000  0.0000000  3
   3055   3053   3052   3056     1  0.0000000  0.6508444  3
   3055   3053   3054   3058     1  0.0000000  1.0460000  1
   3055   3053   3054   3058     1  0.0000000  0.0000000  3
   3055   3053   3054   3070     1  0.0000000  1.0460000  1
   3055   3053   3054   3070     1  0.0000000  0.0000000  3
   3055   3053   3054   3057     1  0.0000000  0.6508444  3
   3055   3053   3059   3065     1  0.0000000  0.6973333  3
   3056   3052   3049   3061     1  0.0000000  1.0460000  1
   3056   3052   3049   3061     1  0.0000000  0.0000000  3
   3056   3052   3053   3059     1  0.0000000  1.0460000  1
   3056   3052   3053   3059     1  0.0000000  0.0000000  3
   3056   3052   3060   3063     1  0.0000000  0.6973333  3
   3057   3054   3053   3059     1  0.0000000  0.6508444  3
   3066   3062   3048   3070     1  0.0000000  1.0460000  1
   3066   3062   3048   3070     1  0.0000000  0.0000000  3
   3066   3062   3068   3069     1  0.0000000  0.6973333  3
   3067   3062   3048   3070     1  0.0000000  1.0460000  1
   3067   3062   3048   3070     1  0.0000000  0.0000000  3
   3067   3062   3068   3069     1  0.0000000  0.6973333  3
   3071   3072   3075   3079     1  0.0000000  0.6508444  3
   3071   3072   3084   3087     1  0.0000000  1.0460000  1
   3071   3072   3084   3087     1  0.0000000  0.6694400  3
   3071   3085   3091   3092     1  0.0000000  1.0460000  1
   3071   3085   3091   3092     1  0.0000000  0.6694400  3
   3071   3093   3077   3080     1  0.0000000  1.6038667  3
   3072   3075   3076   3078     1  0.0000000  0.6508444  3
   3072   3075   3083   3086     1  0.0000000  1.0460000  1
   3072   3075   3083   3086     1  0.0000000  0.6694400  3
   3072   3071   3085   3089     1  0.0000000  0.6508444  3
   3072   3071   3085   3090     1  0.0000000  0.6508444  3
   3073   3071   3072   3075     1  0.0000000  0.6508444  3
   3073   3071   3072   3084     1  0.0000000  1.0460000  1
   3073   3071   3072   3084     1  0.0000000  0.0000000  3
   3073   3071   3072   3074     1  0.0000000  0.6508444  3
   3073   3071   3085   3091     1  0.0000000  1.0460000  1
   3073   3071   3085   3091     1  0.0000000  0.0000000  3
   3073   3071   3085   3089     1  0.0000000  0.6508444  3
   3073   3071   3085   3090     1  0.0000000  0.6508444  3
   3073   3071   3093   3077     1  0.0000000  1.6038667  3
   3074   3072   3075   3076     1  0.0000000  0.6508444  3
   3074   3072   3075   3083     1  0.0000000  1.0460000  1
   3074   3072   3075   3083     1  0.0000000  0.0000000  3
   3074   3072   3075   3079     1  0.0000000  0.6508444  3
   3074   3072   3084   3087     1  0.0000000  0.6973333  3
   3074   3072   3071   3085     1  0.0000000  0.6508444  3
   3074   3072   3071   3093     1  0.0000000  1.0460000  1
   3074   3072   3071   3093     1  0.0000000  0.0000000  3
   3075   3076   3077   3080     1  0.0000000  0.6508444  3
   3075   3076   3082   3088     1  0.0000000  1.0460000  1
   3075   3076   3082   3088     1  0.0000000  0.6694400  3
   3075   3072   3084   3087     1  0.0000000  1.0460000  1
   3075   3072   3084   3087     1  0.0000000  0.6694400  3
   3076   3075   3083   3086     1  0.0000000  1.0460000  1
   3076   3075   3083   3086     1  0.0000000  0.6694400  3
   3077   3076   3082   3088     1  0.0000000  1.0460000  1
   3077   3076   3082   3088     1  0.0000000  0.6694400  3
   3077   3076   3075   3079     1  0.0000000  0.6508444  3
   3078   3076   3077   3081     1  0.0000000  1.0460000  1
   3078   3076   3077   3081     1  0.0000000  0.0000000  3
   3078   3076   3077   3093     1  0.0000000  1.0460000  1
   3078   3076   3077   3093     1  0.0000000  0.0000000  3
   3078   3076   3077   3080     1  0.0000000  0.6508444  3
   3078   3076   3082   3088     1  0.0000000  0.6973333  3
   3078   3076   3075   3083     1  0.0000000  1.0460000  1
   3078   3076   3075   3083     1  0.0000000  0.0000000  3
   3078   3076   3075   3079     1  0.0000000  0.6508444  3
   3079   3075   3076   3082     1  0.0000000  1.0460000  1
   3079   3075   3076   3082     1  0.0000000  0.0000000  3
   3079   3075   3083   3086     1  0.0000000  0.6973333  3
   3079   3075   3072   3084     1  0.0000000  1.0460000  1
   3079   3075   3072   3084     1  0.0000000  0.0000000  3
   3080   3077   3076   3082     1  0.0000000  0.6508444  3
   3089   3085   3091   3092     1  0.0000000  0.6973333  3
   3089   3085   3071   3093     1  0.0000000  1.0460000  1
   3089   3085   3071   3093     1  0.0000000  0.0000000  3
   3090   3085   3091   3092     1  0.0000000  0.6973333  3
   3090   3085   3071   3093     1  0.0000000  1.0460000  1
   3090   3085   3071   3093     1  0.0000000  0.0000000  3
   3094   3095   3098   3102     1  0.0000000  0.6508444  3
   3094   3095   3107   3110     1  0.0000000  1.0460000  1
   3094   3095   3107   3110     1  0.0000000  0.6694400  3
   3094   3108   3114   3115     1  0.0000000  1.0460000  1
   3094   3108   3114   3115     1  0.0000000  0.6694400  3
   3094   3116   3100   3103     1  0.0000000  1.6038667  3
   3095   3094   3108   3112     1  0.0000000  0.6508444  3
   3095   3094   3108   3113     1  0.0000000  0.6508444  3
   3095   3098   3099   3101     1  0.0000000  0.6508444  3
   3095   3098   3106   3109     1  0.0000000  1.0460000  1
   3095   3098   3106   3109     1  0.0000000  0.6694400  3
   3096   3094   3095   3098     1  0.0000000  0.6508444  3
   3096   3094   3095   3107     1  0.0000000  1.0460000  1
   3096   3094   3095   3107     1  0.0000000  0.0000000  3
   3096   3094   3095   3097     1  0.0000000  0.6508444  3
   3096   3094   3108   3114     1  0.0000000  1.0460000  1
   3096   3094   3108   3114     1  0.0000000  0.0000000  3
   3096   3094   3108   3112     1  0.0000000  0.6508444  3
   3096   3094   3108   3113     1  0.0000000  0.6508444  3
   3096   3094   3116   3100     1  0.0000000  1.6038667  3
   3097   3095   3094   3108     1  0.0000000  0.6508444  3
   3097   3095   3094   3116     1  0.0000000  1.0460000  1
   3097   3095   3094   3116     1  0.0000000  0.0000000  3
   3097   3095   3098   3099     1  0.0000000  0.6508444  3
   3097   3095   3098   3106     1  0.0000000  1.0460000  1
   3097   3095   3098   3106     1  0.0000000  0.0000000  3
   3097   3095   3098   3102     1  0.0000000  0.6508444  3
   3097   3095   3107   3110     1  0.0000000  0.6973333  3
   3098   3095   3107   3110     1  0.0000000  1.0460000  1
   3098   3095   3107   3110     1  0.0000000  0.6694400  3
   3098   3099   3100   3103     1  0.0000000  0.6508444  3
   3098   3099   3105   3111     1  0.0000000  1.0460000  1
   3098   3099   3105   3111     1  0.0000000  0.6694400  3
   3099   3098   3106   3109     1  0.0000000  1.0460000  1
   3099   3098   3106   3109     1  0.0000000  0.6694400  3
   3100   3099   3098   3102     1  0.0000000  0.6508444  3
   3100   3099   3105   3111     1  0.0000000  1.0460000  1
   3100   3099   3105   3111     1  0.0000000  0.6694400  3
   3101   3099   3098   3106     1  0.0000000  1.0460000  1
   3101   3099   3098   3106     1  0.0000000  0.0000000  3
   3101   3099   3098   3102     1  0.0000000  0.6508444  3
   3101   3099   3100   3104     1  0.0000000  1.0460000  1
   3101   3099   3100   3104     1  0.0000000  0.0000000  3
   3101   3099   3100   3116     1  0.0000000  1.0460000  1
   3101   3099   3100   3116     1  0.0000000  0.0000000  3
   3101   3099   3100   3103     1  0.0000000  0.6508444  3
   3101   3099   3105   3111     1  0.0000000  0.6973333  3
   3102   3098   3095   3107     1  0.0000000  1.0460000  1
   3102   3098   3095   3107     1  0.0000000  0.0000000  3
   3102   3098   3099   3105     1  0.0000000  1.0460000  1
   3102   3098   3099   3105     1  0.0000000  0.0000000  3
   3102   3098   3106   3109     1  0.0000000  0.6973333  3
   3103   3100   3099   3105     1  0.0000000  0.6508444  3
   3112   3108   3094   3116     1  0.0000000  1.0460000  1
   3112   3108   3094   3116     1  0.0000000  0.0000000  3
   3112   3108   3114   3115     1  0.0000000  0.6973333  3
   3113   3108   3094   3116     1  0.0000000  1.0460000  1
   3113   3108   3094   3116     1  0.0000000  0.0000000  3
   3113   3108   3114   3115     1  0.0000000  0.6973333  3
   3117   3118   3121   3125     1  0.0000000  0.6508444  3
   3117   3118   3130   3133     1  0.0000000  1.0460000  1
   3117   3118   3130   3133     1  0.0000000  0.6694400  3
   3117   3131   3137   3138     1  0.0000000  1.0460000  1
   3117   3131   3137   3138     1  0.0000000  0.6694400  3
   3117   3139   3123   3126     1  0.0000000  1.6038667  3
   3118   3121   3122   3124     1  0.0000000  0.6508444  3
   3118   3121   3129   3132     1  0.0000000  1.0460000  1
   3118   3121   3129   3132     1  0.0000000  0.6694400  3
   3118   3117   3131   3135     1  0.0000000  0.6508444  3
   3118   3117   3131   3136     1  0.0000000  0.6508444  3
   3119   3117   3118   3121     1  0.0000000  0.6508444  3
   3119   3117   3118   3130     1  0.0000000  1.0460000  1
   3119   3117   3118   3130     1  0.0000000  0.0000000  3
   3119   3117   3118   3120     1  0.0000000  0.6508444  3
   3119   3117   3131   3137     1  0.0000000  1.0460000  1
   3119   3117   3131   3137     1  0.0000000  0.0000000  3
   3119   3117   3131   3135     1  0.0000000  0.6508444  3
   3119   3117   3131   3136     1  0.0000000  0.6508444  3
   3119   3117   3139   3123     1  0.0000000  1.6038667  3
   3120   3118   3121   3122     1  0.0000000  0.6508444  3
   3120   3118   3121   3129     1  0.0000000  1.0460000  1
   3120   3118   3121   3129     1  0.0000000  0.0000000  3
   3120   3118   3121   3125     1  0.0000000  0.6508444  3
   3120   3118   3130   3133     1  0.0000000  0.6973333  3
   3120   3118   3117   3131     1  0.0000000  0.6508444  3
   3120   3118   3117   3139     1  0.0000000  1.0460000  1
   3120   3118   3117   3139     1  0.0000000  0.0000000  3
   3121   3122   3123   3126     1  0.0000000  0.6508444  3
   3121   3122   3128   3134     1  0.0000000  1.0460000  1
   3121   3122   3128   3134     1  0.0000000  0.6694400  3
   3121   3118   3130   3133     1  0.0000000  1.0460000  1
   3121   3118   3130   3133     1  0.0000000  0.6694400  3
   3122   3121   3129   3132     1  0.0000000  1.0460000  1
   3122   3121   3129   3132     1  0.0000000  0.6694400  3
   3123   3122   3128   3134     1  0.0000000  1.0460000  1
   3123   3122   3128   3134     1  0.0000000  0.6694400  3
   3123   3122   3121   3125     1  0.0000000  0.6508444  3
   3124   3122   3123   3127     1  0.0000000  1.0460000  1
   3124   3122   3123   3127     1  0.0000000  0.0000000  3
   3124   3122   3123   3139     1  0.0000000  1.0460000  1
   3124   3122   3123   3139     1  0.0000000  0.0000000  3
   3124   3122   3123   3126     1  0.0000000  0.6508444  3
   3124   3122   3128   3134     1  0.0000000  0.6973333  3
   3124   3122   3121   3129     1  0.0000000  1.0460000  1
   3124   3122   3121   3129     1  0.0000000  0.0000000  3
   3124   3122   3121   3125     1  0.0000000  0.6508444  3
   3125   3121   3122   3128     1  0.0000000  1.0460000  1
   3125   3121   3122   3128     1  0.0000000  0.0000000  3
   3125   3121   3129   3132     1  0.0000000  0.6973333  3
   3125   3121   3118   3130     1  0.0000000  1.0460000  1
   3125   3121   3118   3130     1  0.0000000  0.0000000  3
   3126   3123   3122   3128     1  0.0000000  0.6508444  3
   3135   3131   3137   3138     1  0.0000000  0.6973333  3
   3135   3131   3117   3139     1  0.0000000  1.0460000  1
   3135   3131   3117   3139     1  0.0000000  0.0000000  3
   3136   3131   3137   3138     1  0.0000000  0.6973333  3
   3136   3131   3117   3139     1  0.0000000  1.0460000  1
   3136   3131   3117   3139     1  0.0000000  0.0000000  3
   3140   3141   3144   3148     1  0.0000000  0.6508444  3
   3140   3141   3153   3156     1  0.0000000  1.0460000  1
   3140   3141   3153   3156     1  0.0000000  0.6694400  3
   3140   3154   3160   3161     1  0.0000000  1.0460000  1
   3140   3154   3160   3161     1  0.0000000  0.6694400  3
   3140   3162   3146   3149     1  0.0000000  1.6038667  3
   3141   3140   3154   3158     1  0.0000000  0.6508444  3
   3141   3140   3154   3159     1  0.0000000  0.6508444  3
   3141   3144   3145   3147     1  0.0000000  0.6508444  3
   3141   3144   3152   3155     1  0.0000000  1.0460000  1
   3141   3144   3152   3155     1  0.0000000  0.6694400  3
   3142   3140   3141   3144     1  0.0000000  0.6508444  3
   3142   3140   3141   3153     1  0.0000000  1.0460000  1
   3142   3140   3141   3153     1  0.0000000  0.0000000  3
   3142   3140   3141   3143     1  0.0000000  0.6508444  3
   3142   3140   3154   3160     1  0.0000000  1.0460000  1
   3142   3140   3154   3160     1  0.0000000  0.0000000  3
   3142   3140   3154   3158     1  0.0000000  0.6508444  3
   3142   3140   3154   3159     1  0.0000000  0.6508444  3
   3142   3140   3162   3146     1  0.0000000  1.6038667  3
   3143   3141   3140   3154     1  0.0000000  0.6508444  3
   3143   3141   3140   3162     1  0.0000000  1.0460000  1
   3143   3141   3140   3162     1  0.0000000  0.0000000  3
   3143   3141   3144   3145     1  0.0000000  0.6508444  3
   3143   3141   3144   3152     1  0.0000000  1.0460000  1
   3143   3141   3144   3152     1  0.0000000  0.0000000  3
   3143   3141   3144   3148     1  0.0000000  0.6508444  3
   3143   3141   3153   3156     1  0.0000000  0.6973333  3
   3144   3141   3153   3156     1  0.0000000  1.0460000  1
   3144   3141   3153   3156     1  0.0000000  0.6694400  3
   3144   3145   3146   3149     1  0.0000000  0.6508444  3
   3144   3145   3151   3157     1  0.0000000  1.0460000  1
   3144   3145   3151   3157     1  0.0000000  0.6694400  3
   3145   3144   3152   3155     1  0.0000000  1.0460000  1
   3145   3144   3152   3155     1  0.0000000  0.6694400  3
   3146   3145   3144   3148     1  0.0000000  0.6508444  3
   3146   3145   3151   3157     1  0.0000000  1.0460000  1
   3146   3145   3151   3157     1  0.0000000  0.6694400  3
   3147   3145   3144   3152     1  0.0000000  1.0460000  1
   3147   3145   3144   3152     1  0.0000000  0.0000000  3
   3147   3145   3144   3148     1  0.0000000  0.6508444  3
   3147   3145   3146   3150     1  0.0000000  1.0460000  1
   3147   3145   3146   3150     1  0.0000000  0.0000000  3
   3147   3145   3146   3162     1  0.0000000  1.0460000  1
   3147   3145   3146   3162     1  0.0000000  0.0000000  3
   3147   3145   3146   3149     1  0.0000000  0.6508444  3
   3147   3145   3151   3157     1  0.0000000  0.6973333  3
   3148   3144   3141   3153     1  0.0000000  1.0460000  1
   3148   3144   3141   3153     1  0.0000000  0.0000000  3
   3148   3144   3145   3151     1  0.0000000  1.0460000  1
   3148   3144   3145   3151     1  0.0000000  0.0000000  3
   3148   3144   3152   3155     1  0.0000000  0.6973333  3
   3149   3146   3145   3151     1  0.0000000  0.6508444  3
   3158   3154   3140   3162     1  0.0000000  1.0460000  1
   3158   3154   3140   3162     1  0.0000000  0.0000000  3
   3158   3154   3160   3161     1  0.0000000  0.6973333  3
   3159   3154   3140   3162     1  0.0000000  1.0460000  1
   3159   3154   3140   3162     1  0.0000000  0.0000000  3
   3159   3154   3160   3161     1  0.0000000  0.6973333  3
   3163   3164   3167   3171     1  0.0000000  0.6508444  3
   3163   3164   3176   3179     1  0.0000000  1.0460000  1
   3163   3164   3176   3179     1  0.0000000  0.6694400  3
   3163   3177   3183   3184     1  0.0000000  1.0460000  1
   3163   3177   3183   3184     1  0.0000000  0.6694400  3
   3163   3185   3169   3172     1  0.0000000  1.6038667  3
   3164   3167   3168   3170     1  0.0000000  0.6508444  3
   3164   3167   3175   3178     1  0.0000000  1.0460000  1
   3164   3167   3175   3178     1  0.0000000  0.6694400  3
   3164   3163   3177   3181     1  0.0000000  0.6508444  3
   3164   3163   3177   3182     1  0.0000000  0.6508444  3
   3165   3163   3164   3167     1  0.0000000  0.6508444  3
   3165   3163   3164   3176     1  0.0000000  1.0460000  1
   3165   3163   3164   3176     1  0.0000000  0.0000000  3
   3165   3163   3164   3166     1  0.0000000  0.6508444  3
   3165   3163   3177   3183     1  0.0000000  1.0460000  1
   3165   3163   3177   3183     1  0.0000000  0.0000000  3
   3165   3163   3177   3181     1  0.0000000  0.6508444  3
   3165   3163   3177   3182     1  0.0000000  0.6508444  3
   3165   3163   3185   3169     1  0.0000000  1.6038667  3
   3166   3164   3167   3168     1  0.0000000  0.6508444  3
   3166   3164   3167   3175     1  0.0000000  1.0460000  1
   3166   3164   3167   3175     1  0.0000000  0.0000000  3
   3166   3164   3167   3171     1  0.0000000  0.6508444  3
   3166   3164   3176   3179     1  0.0000000  0.6973333  3
   3166   3164   3163   3177     1  0.0000000  0.6508444  3
   3166   3164   3163   3185     1  0.0000000  1.0460000  1
   3166   3164   3163   3185     1  0.0000000  0.0000000  3
   3167   3168   3169   3172     1  0.0000000  0.6508444  3
   3167   3168   3174   3180     1  0.0000000  1.0460000  1
   3167   3168   3174   3180     1  0.0000000  0.6694400  3
   3167   3164   3176   3179     1  0.0000000  1.0460000  1
   3167   3164   3176   3179     1  0.0000000  0.6694400  3
   3168   3167   3175   3178     1  0.0000000  1.0460000  1
   3168   3167   3175   3178     1  0.0000000  0.6694400  3
   3169   3168   3174   3180     1  0.0000000  1.0460000  1
   3169   3168   3174   3180     1  0.0000000  0.6694400  3
   3169   3168   3167   3171     1  0.0000000  0.6508444  3
   3170   3168   3169   3173     1  0.0000000  1.0460000  1
   3170   3168   3169   3173     1  0.0000000  0.0000000  3
   3170   3168   3169   3185     1  0.0000000  1.0460000  1
   3170   3168   3169   3185     1  0.0000000  0.0000000  3
   3170   3168   3169   3172     1  0.0000000  0.6508444  3
   3170   3168   3174   3180     1  0.0000000  0.6973333  3
   3170   3168   3167   3175     1  0.0000000  1.0460000  1
   3170   3168   3167   3175     1  0.0000000  0.0000000  3
   3170   3168   3167   3171     1  0.0000000  0.6508444  3
   3171   3167   3168   3174     1  0.0000000  1.0460000  1
   3171   3167   3168   3174     1  0.0000000  0.0000000  3
   3171   3167   3175   3178     1  0.0000000  0.6973333  3
   3171   3167   3164   3176     1  0.0000000  1.0460000  1
   3171   3167   3164   3176     1  0.0000000  0.0000000  3
   3172   3169   3168   3174     1  0.0000000  0.6508444  3
   3181   3177   3183   3184     1  0.0000000  0.6973333  3
   3181   3177   3163   3185     1  0.0000000  1.0460000  1
   3181   3177   3163   3185     1  0.0000000  0.0000000  3
   3182   3177   3183   3184     1  0.0000000  0.6973333  3
   3182   3177   3163   3185     1  0.0000000  1.0460000  1
   3182   3177   3163   3185     1  0.0000000  0.0000000  3
   3186   3187   3190   3194     1  0.0000000  0.6508444  3
   3186   3187   3199   3202     1  0.0000000  1.0460000  1
   3186   3187   3199   3202     1  0.0000000  0.6694400  3
   3186   3200   3206   3207     1  0.0000000  1.0460000  1
   3186   3200   3206   3207     1  0.0000000  0.6694400  3
   3186   3208   3192   3195     1  0.0000000  1.6038667  3
   3187   3186   3200   3204     1  0.0000000  0.6508444  3
   3187   3186   3200   3205     1  0.0000000  0.6508444  3
   3187   3190   3191   3193     1  0.0000000  0.6508444  3
   3187   3190   3198   3201     1  0.0000000  1.0460000  1
   3187   3190   3198   3201     1  0.0000000  0.6694400  3
   3188   3186   3187   3190     1  0.0000000  0.6508444  3
   3188   3186   3187   3199     1  0.0000000  1.0460000  1
   3188   3186   3187   3199     1  0.0000000  0.0000000  3
   3188   3186   3187   3189     1  0.0000000  0.6508444  3
   3188   3186   3200   3206     1  0.0000000  1.0460000  1
   3188   3186   3200   3206     1  0.0000000  0.0000000  3
   3188   3186   3200   3204     1  0.0000000  0.6508444  3
   3188   3186   3200   3205     1  0.0000000  0.6508444  3
   3188   3186   3208   3192     1  0.0000000  1.6038667  3
   3189   3187   3186   3200     1  0.0000000  0.6508444  3
   3189   3187   3186   3208     1  0.0000000  1.0460000  1
   3189   3187   3186   3208     1  0.0000000  0.0000000  3
   3189   3187   3190   3191     1  0.0000000  0.6508444  3
   3189   3187   3190   3198     1  0.0000000  1.0460000  1
   3189   3187   3190   3198     1  0.0000000  0.0000000  3
   3189   3187   3190   3194     1  0.0000000  0.6508444  3
   3189   3187   3199   3202     1  0.0000000  0.6973333  3
   3190   3187   3199   3202     1  0.0000000  1.0460000  1
   3190   3187   3199   3202     1  0.0000000  0.6694400  3
   3190   3191   3192   3195     1  0.0000000  0.6508444  3
   3190   3191   3197   3203     1  0.0000000  1.0460000  1
   3190   3191   3197   3203     1  0.0000000  0.6694400  3
   3191   3190   3198   3201     1  0.0000000  1.0460000  1
   3191   3190   3198   3201     1  0.0000000  0.6694400  3
   3192   3191   3190   3194     1  0.0000000  0.6508444  3
   3192   3191   3197   3203     1  0.0000000  1.0460000  1
   3192   3191   3197   3203     1  0.0000000  0.6694400  3
   3193   3191   3190   3198     1  0.0000000  1.0460000  1
   3193   3191   3190   3198     1  0.0000000  0.0000000  3
   3193   3191   3190   3194     1  0.0000000  0.6508444  3
   3193   3191   3192   3196     1  0.0000000  1.0460000  1
   3193   3191   3192   3196     1  0.0000000  0.0000000  3
   3193   3191   3192   3208     1  0.0000000  1.0460000  1
   3193   3191   3192   3208     1  0.0000000  0.0000000  3
   3193   3191   3192   3195     1  0.0000000  0.6508444  3
   3193   3191   3197   3203     1  0.0000000  0.6973333  3
   3194   3190   3187   3199     1  0.0000000  1.0460000  1
   3194   3190   3187   3199     1  0.0000000  0.0000000  3
   3194   3190   3191   3197     1  0.0000000  1.0460000  1
   3194   3190   3191   3197     1  0.0000000  0.0000000  3
   3194   3190   3198   3201     1  0.0000000  0.6973333  3
   3195   3192   3191   3197     1  0.0000000  0.6508444  3
   3204   3200   3186   3208     1  0.0000000  1.0460000  1
   3204   3200   3186   3208     1  0.0000000  0.0000000  3
   3204   3200   3206   3207     1  0.0000000  0.6973333  3
   3205   3200   3186   3208     1  0.0000000  1.0460000  1
   3205   3200   3186   3208     1  0.0000000  0.0000000  3
   3205   3200   3206   3207     1  0.0000000  0.6973333  3
   3209   3210   3213   3217     1  0.0000000  0.6508444  3
   3209   3210   3222   3225     1  0.0000000  1.0460000  1
   3209   3210   3222   3225     1  0.0000000  0.6694400  3
   3209   3223   3229   3230     1  0.0000000  1.0460000  1
   3209   3223   3229   3230     1  0.0000000  0.6694400  3
   3209   3231   3215   3218     1  0.0000000  1.6038667  3
   3210   3213   3214   3216     1  0.0000000  0.6508444  3
   3210   3213   3221   3224     1  0.0000000  1.0460000  1
   3210   3213   3221   3224     1  0.0000000  0.6694400  3
   3210   3209   3223   3227     1  0.0000000  0.6508444  3
   3210   3209   3223   3228     1  0.0000000  0.6508444  3
   3211   3209   3210   3213     1  0.0000000  0.6508444  3
   3211   3209   3210   3222     1  0.0000000  1.0460000  1
   3211   3209   3210   3222     1  0.0000000  0.0000000  3
   3211   3209   3210   3212     1  0.0000000  0.6508444  3
   3211   3209   3223   3229     1  0.0000000  1.0460000  1
   3211   3209   3223   3229     1  0.0000000  0.0000000  3
   3211   3209   3223   3227     1  0.0000000  0.6508444  3
   3211   3209   3223   3228     1  0.0000000  0.6508444  3
   3211   3209   3231   3215     1  0.0000000  1.6038667  3
   3212   3210   3213   3214     1  0.0000000  0.6508444  3
   3212   3210   3213   3221     1  0.0000000  1.0460000  1
   3212   3210   3213   3221     1  0.0000000  0.0000000  3
   3212   3210   3213   3217     1  0.0000000  0.6508444  3
   3212   3210   3222   3225     1  0.0000000  0.6973333  3
   3212   3210   3209   3223     1  0.0000000  0.6508444  3
   3212   3210   3209   3231     1  0.0000000  1.0460000  1
   3212   3210   3209   3231     1  0.0000000  0.0000000  3
   3213   3214   3215   3218     1  0.0000000  0.6508444  3
   3213   3214   3220   3226     1  0.0000000  1.0460000  1
   3213   3214   3220   3226     1  0.0000000  0.6694400  3
   3213   3210   3222   3225     1  0.0000000  1.0460000  1
   3213   3210   3222   3225     1  0.0000000  0.6694400  3
   3214   3213   3221   3224     1  0.0000000  1.0460000  1
   3214   3213   3221   3224     1  0.0000000  0.6694400  3
   3215   3214   3220   3226     1  0.0000000  1.0460000  1
   3215   3214   3220   3226     1  0.0000000  0.6694400  3
   3215   3214   3213   3217     1  0.0000000  0.6508444  3
   3216   3214   3215   3219     1  0.0000000  1.0460000  1
   3216   3214   3215   3219     1  0.0000000  0.0000000  3
   3216   3214   3215   3231     1  0.0000000  1.0460000  1
   3216   3214   3215   3231     1  0.0000000  0.0000000  3
   3216   3214   3215   3218     1  0.0000000  0.6508444  3
   3216   3214   3220   3226     1  0.0000000  0.6973333  3
   3216   3214   3213   3221     1  0.0000000  1.0460000  1
   3216   3214   3213   3221     1  0.0000000  0.0000000  3
   3216   3214   3213   3217     1  0.0000000  0.6508444  3
   3217   3213   3214   3220     1  0.0000000  1.0460000  1
   3217   3213   3214   3220     1  0.0000000  0.0000000  3
   3217   3213   3221   3224     1  0.0000000  0.6973333  3
   3217   3213   3210   3222     1  0.0000000  1.0460000  1
   3217   3213   3210   3222     1  0.0000000  0.0000000  3
   3218   3215   3214   3220     1  0.0000000  0.6508444  3
   3227   3223   3229   3230     1  0.0000000  0.6973333  3
   3227   3223   3209   3231     1  0.0000000  1.0460000  1
   3227   3223   3209   3231     1  0.0000000  0.0000000  3
   3228   3223   3229   3230     1  0.0000000  0.6973333  3
   3228   3223   3209   3231     1  0.0000000  1.0460000  1
   3228   3223   3209   3231     1  0.0000000  0.0000000  3
   3232   3233   3236   3240     1  0.0000000  0.6508444  3
   3232   3233   3245   3248     1  0.0000000  1.0460000  1
   3232   3233   3245   3248     1  0.0000000  0.6694400  3
   3232   3246   3252   3253     1  0.0000000  1.0460000  1
   3232   3246   3252   3253     1  0.0000000  0.6694400  3
   3232   3254   3238   3241     1  0.0000000  1.6038667  3
   3233   3232   3246   3250     1  0.0000000  0.6508444  3
   3233   3232   3246   3251     1  0.0000000  0.6508444  3
   3233   3236   3237   3239     1  0.0000000  0.6508444  3
   3233   3236   3244   3247     1  0.0000000  1.0460000  1
   3233   3236   3244   3247     1  0.0000000  0.6694400  3
   3234   3232   3233   3236     1  0.0000000  0.6508444  3
   3234   3232   3233   3245     1  0.0000000  1.0460000  1
   3234   3232   3233   3245     1  0.0000000  0.0000000  3
   3234   3232   3233   3235     1  0.0000000  0.6508444  3
   3234   3232   3246   3252     1  0.0000000  1.0460000  1
   3234   3232   3246   3252     1  0.0000000  0.0000000  3
   3234   3232   3246   3250     1  0.0000000  0.6508444  3
   3234   3232   3246   3251     1  0.0000000  0.6508444  3
   3234   3232   3254   3238     1  0.0000000  1.6038667  3
   3235   3233   3232   3246     1  0.0000000  0.6508444  3
   3235   3233   3232   3254     1  0.0000000  1.0460000  1
   3235   3233   3232   3254     1  0.0000000  0.0000000  3
   3235   3233   3236   3237     1  0.0000000  0.6508444  3
   3235   3233   3236   3244     1  0.0000000  1.0460000  1
   3235   3233   3236   3244     1  0.0000000  0.0000000  3
   3235   3233   3236   3240     1  0.0000000  0.6508444  3
   3235   3233   3245   3248     1  0.0000000  0.6973333  3
   3236   3233   3245   3248     1  0.0000000  1.0460000  1
   3236   3233   3245   3248     1  0.0000000  0.6694400  3
   3236   3237   3238   3241     1  0.0000000  0.6508444  3
   3236   3237   3243   3249     1  0.0000000  1.0460000  1
   3236   3237   3243   3249     1  0.0000000  0.6694400  3
   3237   3236   3244   3247     1  0.0000000  1.0460000  1
   3237   3236   3244   3247     1  0.0000000  0.6694400  3
   3238   3237   3236   3240     1  0.0000000  0.6508444  3
   3238   3237   3243   3249     1  0.0000000  1.0460000  1
   3238   3237   3243   3249     1  0.0000000  0.6694400  3
   3239   3237   3236   3244     1  0.0000000  1.0460000  1
   3239   3237   3236   3244     1  0.0000000  0.0000000  3
   3239   3237   3236   3240     1  0.0000000  0.6508444  3
   3239   3237   3238   3242     1  0.0000000  1.0460000  1
   3239   3237   3238   3242     1  0.0000000  0.0000000  3
   3239   3237   3238   3254     1  0.0000000  1.0460000  1
   3239   3237   3238   3254     1  0.0000000  0.0000000  3
   3239   3237   3238   3241     1  0.0000000  0.6508444  3
   3239   3237   3243   3249     1  0.0000000  0.6973333  3
   3240   3236   3233   3245     1  0.0000000  1.0460000  1
   3240   3236   3233   3245     1  0.0000000  0.0000000  3
   3240   3236   3237   3243     1  0.0000000  1.0460000  1
   3240   3236   3237   3243     1  0.0000000  0.0000000  3
   3240   3236   3244   3247     1  0.0000000  0.6973333  3
   3241   3238   3237   3243     1  0.0000000  0.6508444  3
   3250   3246   3232   3254     1  0.0000000  1.0460000  1
   3250   3246   3232   3254     1  0.0000000  0.0000000  3
   3250   3246   3252   3253     1  0.0000000  0.6973333  3
   3251   3246   3232   3254     1  0.0000000  1.0460000  1
   3251   3246   3232   3254     1  0.0000000  0.0000000  3
   3251   3246   3252   3253     1  0.0000000  0.6973333  3
   3255   3256   3259   3263     1  0.0000000  0.6508444  3
   3255   3256   3268   3271     1  0.0000000  1.0460000  1
   3255   3256   3268   3271     1  0.0000000  0.6694400  3
   3255   3269   3275   3276     1  0.0000000  1.0460000  1
   3255   3269   3275   3276     1  0.0000000  0.6694400  3
   3255   3277   3261   3264     1  0.0000000  1.6038667  3
   3256   3259   3260   3262     1  0.0000000  0.6508444  3
   3256   3259   3267   3270     1  0.0000000  1.0460000  1
   3256   3259   3267   3270     1  0.0000000  0.6694400  3
   3256   3255   3269   3273     1  0.0000000  0.6508444  3
   3256   3255   3269   3274     1  0.0000000  0.6508444  3
   3257   3255   3256   3259     1  0.0000000  0.6508444  3
   3257   3255   3256   3268     1  0.0000000  1.0460000  1
   3257   3255   3256   3268     1  0.0000000  0.0000000  3
   3257   3255   3256   3258     1  0.0000000  0.6508444  3
   3257   3255   3269   3275     1  0.0000000  1.0460000  1
   3257   3255   3269   3275     1  0.0000000  0.0000000  3
   3257   3255   3269   3273     1  0.0000000  0.6508444  3
   3257   3255   3269   3274     1  0.0000000  0.6508444  3
   3257   3255   3277   3261     1  0.0000000  1.6038667  3
   3258   3256   3259   3260     1  0.0000000  0.6508444  3
   3258   3256   3259   3267     1  0.0000000  1.0460000  1
   3258   3256   3259   3267     1  0.0000000  0.0000000  3
   3258   3256   3259   3263     1  0.0000000  0.6508444  3
   3258   3256   3268   3271     1  0.0000000  0.6973333  3
   3258   3256   3255   3269     1  0.0000000  0.6508444  3
   3258   3256   3255   3277     1  0.0000000  1.0460000  1
   3258   3256   3255   3277     1  0.0000000  0.0000000  3
   3259   3260   3261   3264     1  0.0000000  0.6508444  3
   3259   3260   3266   3272     1  0.0000000  1.0460000  1
   3259   3260   3266   3272     1  0.0000000  0.6694400  3
   3259   3256   3268   3271     1  0.0000000  1.0460000  1
   3259   3256   3268   3271     1  0.0000000  0.6694400  3
   3260   3259   3267   3270     1  0.0000000  1.0460000  1
   3260   3259   3267   3270     1  0.0000000  0.6694400  3
   3261   3260   3266   3272     1  0.0000000  1.0460000  1
   3261   3260   3266   3272     1  0.0000000  0.6694400  3
   3261   3260   3259   3263     1  0.0000000  0.6508444  3
   3262   3260   3261   3265     1  0.0000000  1.0460000  1
   3262   3260   3261   3265     1  0.0000000  0.0000000  3
   3262   3260   3261   3277     1  0.0000000  1.0460000  1
   3262   3260   3261   3277     1  0.0000000  0.0000000  3
   3262   3260   3261   3264     1  0.0000000  0.6508444  3
   3262   3260   3266   3272     1  0.0000000  0.6973333  3
   3262   3260   3259   3267     1  0.0000000  1.0460000  1
   3262   3260   3259   3267     1  0.0000000  0.0000000  3
   3262   3260   3259   3263     1  0.0000000  0.6508444  3
   3263   3259   3260   3266     1  0.0000000  1.0460000  1
   3263   3259   3260   3266     1  0.0000000  0.0000000  3
   3263   3259   3267   3270     1  0.0000000  0.6973333  3
   3263   3259   3256   3268     1  0.0000000  1.0460000  1
   3263   3259   3256   3268     1  0.0000000  0.0000000  3
   3264   3261   3260   3266     1  0.0000000  0.6508444  3
   3273   3269   3275   3276     1  0.0000000  0.6973333  3
   3273   3269   3255   3277     1  0.0000000  1.0460000  1
   3273   3269   3255   3277     1  0.0000000  0.0000000  3
   3274   3269   3275   3276     1  0.0000000  0.6973333  3
   3274   3269   3255   3277     1  0.0000000  1.0460000  1
   3274   3269   3255   3277     1  0.0000000  0.0000000  3
   3278   3279   3282   3286     1  0.0000000  0.6508444  3
   3278   3279   3291   3294     1  0.0000000  1.0460000  1
   3278   3279   3291   3294     1  0.0000000  0.6694400  3
   3278   3292   3298   3299     1  0.0000000  1.0460000  1
   3278   3292   3298   3299     1  0.0000000  0.6694400  3
   3278   3300   3284   3287     1  0.0000000  1.6038667  3
   3279   3278   3292   3296     1  0.0000000  0.6508444  3
   3279   3278   3292   3297     1  0.0000000  0.6508444  3
   3279   3282   3283   3285     1  0.0000000  0.6508444  3
   3279   3282   3290   3293     1  0.0000000  1.0460000  1
   3279   3282   3290   3293     1  0.0000000  0.6694400  3
   3280   3278   3279   3282     1  0.0000000  0.6508444  3
   3280   3278   3279   3291     1  0.0000000  1.0460000  1
   3280   3278   3279   3291     1  0.0000000  0.0000000  3
   3280   3278   3279   3281     1  0.0000000  0.6508444  3
   3280   3278   3292   3298     1  0.0000000  1.0460000  1
   3280   3278   3292   3298     1  0.0000000  0.0000000  3
   3280   3278   3292   3296     1  0.0000000  0.6508444  3
   3280   3278   3292   3297     1  0.0000000  0.6508444  3
   3280   3278   3300   3284     1  0.0000000  1.6038667  3
   3281   3279   3278   3292     1  0.0000000  0.6508444  3
   3281   3279   3278   3300     1  0.0000000  1.0460000  1
   3281   3279   3278   3300     1  0.0000000  0.0000000  3
   3281   3279   3282   3283     1  0.0000000  0.6508444  3
   3281   3279   3282   3290     1  0.0000000  1.0460000  1
   3281   3279   3282   3290     1  0.0000000  0.0000000  3
   3281   3279   3282   3286     1  0.0000000  0.6508444  3
   3281   3279   3291   3294     1  0.0000000  0.6973333  3
   3282   3279   3291   3294     1  0.0000000  1.0460000  1
   3282   3279   3291   3294     1  0.0000000  0.6694400  3
   3282   3283   3284   3287     1  0.0000000  0.6508444  3
   3282   3283   3289   3295     1  0.0000000  1.0460000  1
   3282   3283   3289   3295     1  0.0000000  0.6694400  3
   3283   3282   3290   3293     1  0.0000000  1.0460000  1
   3283   3282   3290   3293     1  0.0000000  0.6694400  3
   3284   3283   3282   3286     1  0.0000000  0.6508444  3
   3284   3283   3289   3295     1  0.0000000  1.0460000  1
   3284   3283   3289   3295     1  0.0000000  0.6694400  3
   3285   3283   3282   3290     1  0.0000000  1.0460000  1
   3285   3283   3282   3290     1  0.0000000  0.0000000  3
   3285   3283   3282   3286     1  0.0000000  0.6508444  3
   3285   3283   3284   3288     1  0.0000000  1.0460000  1
   3285   3283   3284   3288     1  0.0000000  0.0000000  3
   3285   3283   3284   3300     1  0.0000000  1.0460000  1
   3285   3283   3284   3300     1  0.0000000  0.0000000  3
   3285   3283   3284   3287     1  0.0000000  0.6508444  3
   3285   3283   3289   3295     1  0.0000000  0.6973333  3
   3286   3282   3279   3291     1  0.0000000  1.0460000  1
   3286   3282   3279   3291     1  0.0000000  0.0000000  3
   3286   3282   3283   3289     1  0.0000000  1.0460000  1
   3286   3282   3283   3289     1  0.0000000  0.0000000  3
   3286   3282   3290   3293     1  0.0000000  0.6973333  3
   3287   3284   3283   3289     1  0.0000000  0.6508444  3
   3296   3292   3278   3300     1  0.0000000  1.0460000  1
   3296   3292   3278   3300     1  0.0000000  0.0000000  3
   3296   3292   3298   3299     1  0.0000000  0.6973333  3
   3297   3292   3278   3300     1  0.0000000  1.0460000  1
   3297   3292   3278   3300     1  0.0000000  0.0000000  3
   3297   3292   3298   3299     1  0.0000000  0.6973333  3
   3301   3302   3305   3309     1  0.0000000  0.6508444  3
   3301   3302   3314   3317     1  0.0000000  1.0460000  1
   3301   3302   3314   3317     1  0.0000000  0.6694400  3
   3301   3315   3321   3322     1  0.0000000  1.0460000  1
   3301   3315   3321   3322     1  0.0000000  0.6694400  3
   3301   3323   3307   3310     1  0.0000000  1.6038667  3
   3302   3305   3306   3308     1  0.0000000  0.6508444  3
   3302   3305   3313   3316     1  0.0000000  1.0460000  1
   3302   3305   3313   3316     1  0.0000000  0.6694400  3
   3302   3301   3315   3319     1  0.0000000  0.6508444  3
   3302   3301   3315   3320     1  0.0000000  0.6508444  3
   3303   3301   3302   3305     1  0.0000000  0.6508444  3
   3303   3301   3302   3314     1  0.0000000  1.0460000  1
   3303   3301   3302   3314     1  0.0000000  0.0000000  3
   3303   3301   3302   3304     1  0.0000000  0.6508444  3
   3303   3301   3315   3321     1  0.0000000  1.0460000  1
   3303   3301   3315   3321     1  0.0000000  0.0000000  3
   3303   3301   3315   3319     1  0.0000000  0.6508444  3
   3303   3301   3315   3320     1  0.0000000  0.6508444  3
   3303   3301   3323   3307     1  0.0000000  1.6038667  3
   3304   3302   3305   3306     1  0.0000000  0.6508444  3
   3304   3302   3305   3313     1  0.0000000  1.0460000  1
   3304   3302   3305   3313     1  0.0000000  0.0000000  3
   3304   3302   3305   3309     1  0.0000000  0.6508444  3
   3304   3302   3314   3317     1  0.0000000  0.6973333  3
   3304   3302   3301   3315     1  0.0000000  0.6508444  3
   3304   3302   3301   3323     1  0.0000000  1.0460000  1
   3304   3302   3301   3323     1  0.0000000  0.0000000  3
   3305   3306   3307   3310     1  0.0000000  0.6508444  3
   3305   3306   3312   3318     1  0.0000000  1.0460000  1
   3305   3306   3312   3318     1  0.0000000  0.6694400  3
   3305   3302   3314   3317     1  0.0000000  1.0460000  1
   3305   3302   3314   3317     1  0.0000000  0.6694400  3
   3306   3305   3313   3316     1  0.0000000  1.0460000  1
   3306   3305   3313   3316     1  0.0000000  0.6694400  3
   3307   3306   3312   3318     1  0.0000000  1.0460000  1
   3307   3306   3312   3318     1  0.0000000  0.6694400  3
   3307   3306   3305   3309     1  0.0000000  0.6508444  3
   3308   3306   3307   3311     1  0.0000000  1.0460000  1
   3308   3306   3307   3311     1  0.0000000  0.0000000  3
   3308   3306   3307   3323     1  0.0000000  1.0460000  1
   3308   3306   3307   3323     1  0.0000000  0.0000000  3
   3308   3306   3307   3310     1  0.0000000  0.6508444  3
   3308   3306   3312   3318     1  0.0000000  0.6973333  3
   3308   3306   3305   3313     1  0.0000000  1.0460000  1
   3308   3306   3305   3313     1  0.0000000  0.0000000  3
   3308   3306   3305   3309     1  0.0000000  0.6508444  3
   3309   3305   3306   3312     1  0.0000000  1.0460000  1
   3309   3305   3306   3312     1  0.0000000  0.0000000  3
   3309   3305   3313   3316     1  0.0000000  0.6973333  3
   3309   3305   3302   3314     1  0.0000000  1.0460000  1
   3309   3305   3302   3314     1  0.0000000  0.0000000  3
   3310   3307   3306   3312     1  0.0000000  0.6508444  3
   3319   3315   3321   3322     1  0.0000000  0.6973333  3
   3319   3315   3301   3323     1  0.0000000  1.0460000  1
   3319   3315   3301   3323     1  0.0000000  0.0000000  3
   3320   3315   3321   3322     1  0.0000000  0.6973333  3
   3320   3315   3301   3323     1  0.0000000  1.0460000  1
   3320   3315   3301   3323     1  0.0000000  0.0000000  3
   3324   3325   3328   3332     1  0.0000000  0.6508444  3
   3324   3325   3337   3340     1  0.0000000  1.0460000  1
   3324   3325   3337   3340     1  0.0000000  0.6694400  3
   3324   3338   3344   3345     1  0.0000000  1.0460000  1
   3324   3338   3344   3345     1  0.0000000  0.6694400  3
   3324   3346   3330   3333     1  0.0000000  1.6038667  3
   3325   3324   3338   3342     1  0.0000000  0.6508444  3
   3325   3324   3338   3343     1  0.0000000  0.6508444  3
   3325   3328   3329   3331     1  0.0000000  0.6508444  3
   3325   3328   3336   3339     1  0.0000000  1.0460000  1
   3325   3328   3336   3339     1  0.0000000  0.6694400  3
   3326   3324   3325   3328     1  0.0000000  0.6508444  3
   3326   3324   3325   3337     1  0.0000000  1.0460000  1
   3326   3324   3325   3337     1  0.0000000  0.0000000  3
   3326   3324   3325   3327     1  0.0000000  0.6508444  3
   3326   3324   3338   3344     1  0.0000000  1.0460000  1
   3326   3324   3338   3344     1  0.0000000  0.0000000  3
   3326   3324   3338   3342     1  0.0000000  0.6508444  3
   3326   3324   3338   3343     1  0.0000000  0.6508444  3
   3326   3324   3346   3330     1  0.0000000  1.6038667  3
   3327   3325   3324   3338     1  0.0000000  0.6508444  3
   3327   3325   3324   3346     1  0.0000000  1.0460000  1
   3327   3325   3324   3346     1  0.0000000  0.0000000  3
   3327   3325   3328   3329     1  0.0000000  0.6508444  3
   3327   3325   3328   3336     1  0.0000000  1.0460000  1
   3327   3325   3328   3336     1  0.0000000  0.0000000  3
   3327   3325   3328   3332     1  0.0000000  0.6508444  3
   3327   3325   3337   3340     1  0.0000000  0.6973333  3
   3328   3325   3337   3340     1  0.0000000  1.0460000  1
   3328   3325   3337   3340     1  0.0000000  0.6694400  3
   3328   3329   3330   3333     1  0.0000000  0.6508444  3
   3328   3329   3335   3341     1  0.0000000  1.0460000  1
   3328   3329   3335   3341     1  0.0000000  0.6694400  3
   3329   3328   3336   3339     1  0.0000000  1.0460000  1
   3329   3328   3336   3339     1  0.0000000  0.6694400  3
   3330   3329   3328   3332     1  0.0000000  0.6508444  3
   3330   3329   3335   3341     1  0.0000000  1.0460000  1
   3330   3329   3335   3341     1  0.0000000  0.6694400  3
   3331   3329   3328   3336     1  0.0000000  1.0460000  1
   3331   3329   3328   3336     1  0.0000000  0.0000000  3
   3331   3329   3328   3332     1  0.0000000  0.6508444  3
   3331   3329   3330   3334     1  0.0000000  1.0460000  1
   3331   3329   3330   3334     1  0.0000000  0.0000000  3
   3331   3329   3330   3346     1  0.0000000  1.0460000  1
   3331   3329   3330   3346     1  0.0000000  0.0000000  3
   3331   3329   3330   3333     1  0.0000000  0.6508444  3
   3331   3329   3335   3341     1  0.0000000  0.6973333  3
   3332   3328   3325   3337     1  0.0000000  1.0460000  1
   3332   3328   3325   3337     1  0.0000000  0.0000000  3
   3332   3328   3329   3335     1  0.0000000  1.0460000  1
   3332   3328   3329   3335     1  0.0000000  0.0000000  3
   3332   3328   3336   3339     1  0.0000000  0.6973333  3
   3333   3330   3329   3335     1  0.0000000  0.6508444  3
   3342   3338   3324   3346     1  0.0000000  1.0460000  1
   3342   3338   3324   3346     1  0.0000000  0.0000000  3
   3342   3338   3344   3345     1  0.0000000  0.6973333  3
   3343   3338   3324   3346     1  0.0000000  1.0460000  1
   3343   3338   3324   3346     1  0.0000000  0.0000000  3
   3343   3338   3344   3345     1  0.0000000  0.6973333  3
   3347   3348   3351   3355     1  0.0000000  0.6508444  3
   3347   3348   3360   3363     1  0.0000000  1.0460000  1
   3347   3348   3360   3363     1  0.0000000  0.6694400  3
   3347   3361   3367   3368     1  0.0000000  1.0460000  1
   3347   3361   3367   3368     1  0.0000000  0.6694400  3
   3347   3369   3353   3356     1  0.0000000  1.6038667  3
   3348   3351   3352   3354     1  0.0000000  0.6508444  3
   3348   3351   3359   3362     1  0.0000000  1.0460000  1
   3348   3351   3359   3362     1  0.0000000  0.6694400  3
   3348   3347   3361   3365     1  0.0000000  0.6508444  3
   3348   3347   3361   3366     1  0.0000000  0.6508444  3
   3349   3347   3348   3351     1  0.0000000  0.6508444  3
   3349   3347   3348   3360     1  0.0000000  1.0460000  1
   3349   3347   3348   3360     1  0.0000000  0.0000000  3
   3349   3347   3348   3350     1  0.0000000  0.6508444  3
   3349   3347   3361   3367     1  0.0000000  1.0460000  1
   3349   3347   3361   3367     1  0.0000000  0.0000000  3
   3349   3347   3361   3365     1  0.0000000  0.6508444  3
   3349   3347   3361   3366     1  0.0000000  0.6508444  3
   3349   3347   3369   3353     1  0.0000000  1.6038667  3
   3350   3348   3351   3352     1  0.0000000  0.6508444  3
   3350   3348   3351   3359     1  0.0000000  1.0460000  1
   3350   3348   3351   3359     1  0.0000000  0.0000000  3
   3350   3348   3351   3355     1  0.0000000  0.6508444  3
   3350   3348   3360   3363     1  0.0000000  0.6973333  3
   3350   3348   3347   3361     1  0.0000000  0.6508444  3
   3350   3348   3347   3369     1  0.0000000  1.0460000  1
   3350   3348   3347   3369     1  0.0000000  0.0000000  3
   3351   3352   3353   3356     1  0.0000000  0.6508444  3
   3351   3352   3358   3364     1  0.0000000  1.0460000  1
   3351   3352   3358   3364     1  0.0000000  0.6694400  3
   3351   3348   3360   3363     1  0.0000000  1.0460000  1
   3351   3348   3360   3363     1  0.0000000  0.6694400  3
   3352   3351   3359   3362     1  0.0000000  1.0460000  1
   3352   3351   3359   3362     1  0.0000000  0.6694400  3
   3353   3352   3358   3364     1  0.0000000  1.0460000  1
   3353   3352   3358   3364     1  0.0000000  0.6694400  3
   3353   3352   3351   3355     1  0.0000000  0.6508444  3
   3354   3352   3353   3357     1  0.0000000  1.0460000  1
   3354   3352   3353   3357     1  0.0000000  0.0000000  3
   3354   3352   3353   3369     1  0.0000000  1.0460000  1
   3354   3352   3353   3369     1  0.0000000  0.0000000  3
   3354   3352   3353   3356     1  0.0000000  0.6508444  3
   3354   3352   3358   3364     1  0.0000000  0.6973333  3
   3354   3352   3351   3359     1  0.0000000  1.0460000  1
   3354   3352   3351   3359     1  0.0000000  0.0000000  3
   3354   3352   3351   3355     1  0.0000000  0.6508444  3
   3355   3351   3352   3358     1  0.0000000  1.0460000  1
   3355   3351   3352   3358     1  0.0000000  0.0000000  3
   3355   3351   3359   3362     1  0.0000000  0.6973333  3
   3355   3351   3348   3360     1  0.0000000  1.0460000  1
   3355   3351   3348   3360     1  0.0000000  0.0000000  3
   3356   3353   3352   3358     1  0.0000000  0.6508444  3
   3365   3361   3367   3368     1  0.0000000  0.6973333  3
   3365   3361   3347   3369     1  0.0000000  1.0460000  1
   3365   3361   3347   3369     1  0.0000000  0.0000000  3
   3366   3361   3367   3368     1  0.0000000  0.6973333  3
   3366   3361   3347   3369     1  0.0000000  1.0460000  1
   3366   3361   3347   3369     1  0.0000000  0.0000000  3
   3370   3371   3374   3378     1  0.0000000  0.6508444  3
   3370   3371   3383   3386     1  0.0000000  1.0460000  1
   3370   3371   3383   3386     1  0.0000000  0.6694400  3
   3370   3384   3390   3391     1  0.0000000  1.0460000  1
   3370   3384   3390   3391     1  0.0000000  0.6694400  3
   3370   3392   3376   3379     1  0.0000000  1.6038667  3
   3371   3370   3384   3388     1  0.0000000  0.6508444  3
   3371   3370   3384   3389     1  0.0000000  0.6508444  3
   3371   3374   3375   3377     1  0.0000000  0.6508444  3
   3371   3374   3382   3385     1  0.0000000  1.0460000  1
   3371   3374   3382   3385     1  0.0000000  0.6694400  3
   3372   3370   3371   3374     1  0.0000000  0.6508444  3
   3372   3370   3371   3383     1  0.0000000  1.0460000  1
   3372   3370   3371   3383     1  0.0000000  0.0000000  3
   3372   3370   3371   3373     1  0.0000000  0.6508444  3
   3372   3370   3384   3390     1  0.0000000  1.0460000  1
   3372   3370   3384   3390     1  0.0000000  0.0000000  3
   3372   3370   3384   3388     1  0.0000000  0.6508444  3
   3372   3370   3384   3389     1  0.0000000  0.6508444  3
   3372   3370   3392   3376     1  0.0000000  1.6038667  3
   3373   3371   3370   3384     1  0.0000000  0.6508444  3
   3373   3371   3370   3392     1  0.0000000  1.0460000  1
   3373   3371   3370   3392     1  0.0000000  0.0000000  3
   3373   3371   3374   3375     1  0.0000000  0.6508444  3
   3373   3371   3374   3382     1  0.0000000  1.0460000  1
   3373   3371   3374   3382     1  0.0000000  0.0000000  3
   3373   3371   3374   3378     1  0.0000000  0.6508444  3
   3373   3371   3383   3386     1  0.0000000  0.6973333  3
   3374   3371   3383   3386     1  0.0000000  1.0460000  1
   3374   3371   3383   3386     1  0.0000000  0.6694400  3
   3374   3375   3376   3379     1  0.0000000  0.6508444  3
   3374   3375   3381   3387     1  0.0000000  1.0460000  1
   3374   3375   3381   3387     1  0.0000000  0.6694400  3
   3375   3374   3382   3385     1  0.0000000  1.0460000  1
   3375   3374   3382   3385     1  0.0000000  0.6694400  3
   3376   3375   3374   3378     1  0.0000000  0.6508444  3
   3376   3375   3381   3387     1  0.0000000  1.0460000  1
   3376   3375   3381   3387     1  0.0000000  0.6694400  3
   3377   3375   3374   3382     1  0.0000000  1.0460000  1
   3377   3375   3374   3382     1  0.0000000  0.0000000  3
   3377   3375   3374   3378     1  0.0000000  0.6508444  3
   3377   3375   3376   3380     1  0.0000000  1.0460000  1
   3377   3375   3376   3380     1  0.0000000  0.0000000  3
   3377   3375   3376   3392     1  0.0000000  1.0460000  1
   3377   3375   3376   3392     1  0.0000000  0.0000000  3
   3377   3375   3376   3379     1  0.0000000  0.6508444  3
   3377   3375   3381   3387     1  0.0000000  0.6973333  3
   3378   3374   3371   3383     1  0.0000000  1.0460000  1
   3378   3374   3371   3383     1  0.0000000  0.0000000  3
   3378   3374   3375   3381     1  0.0000000  1.0460000  1
   3378   3374   3375   3381     1  0.0000000  0.0000000  3
   3378   3374   3382   3385     1  0.0000000  0.6973333  3
   3379   3376   3375   3381     1  0.0000000  0.6508444  3
   3388   3384   3370   3392     1  0.0000000  1.0460000  1
   3388   3384   3370   3392     1  0.0000000  0.0000000  3
   3388   3384   3390   3391     1  0.0000000  0.6973333  3
   3389   3384   3370   3392     1  0.0000000  1.0460000  1
   3389   3384   3370   3392     1  0.0000000  0.0000000  3
   3389   3384   3390   3391     1  0.0000000  0.6973333  3
   3393   3394   3397   3401     1  0.0000000  0.6508444  3
   3393   3394   3406   3409     1  0.0000000  1.0460000  1
   3393   3394   3406   3409     1  0.0000000  0.6694400  3
   3393   3407   3413   3414     1  0.0000000  1.0460000  1
   3393   3407   3413   3414     1  0.0000000  0.6694400  3
   3393   3415   3399   3402     1  0.0000000  1.6038667  3
   3394   3397   3398   3400     1  0.0000000  0.6508444  3
   3394   3397   3405   3408     1  0.0000000  1.0460000  1
   3394   3397   3405   3408     1  0.0000000  0.6694400  3
   3394   3393   3407   3411     1  0.0000000  0.6508444  3
   3394   3393   3407   3412     1  0.0000000  0.6508444  3
   3395   3393   3394   3397     1  0.0000000  0.6508444  3
   3395   3393   3394   3406     1  0.0000000  1.0460000  1
   3395   3393   3394   3406     1  0.0000000  0.0000000  3
   3395   3393   3394   3396     1  0.0000000  0.6508444  3
   3395   3393   3407   3413     1  0.0000000  1.0460000  1
   3395   3393   3407   3413     1  0.0000000  0.0000000  3
   3395   3393   3407   3411     1  0.0000000  0.6508444  3
   3395   3393   3407   3412     1  0.0000000  0.6508444  3
   3395   3393   3415   3399     1  0.0000000  1.6038667  3
   3396   3394   3397   3398     1  0.0000000  0.6508444  3
   3396   3394   3397   3405     1  0.0000000  1.0460000  1
   3396   3394   3397   3405     1  0.0000000  0.0000000  3
   3396   3394   3397   3401     1  0.0000000  0.6508444  3
   3396   3394   3406   3409     1  0.0000000  0.6973333  3
   3396   3394   3393   3407     1  0.0000000  0.6508444  3
   3396   3394   3393   3415     1  0.0000000  1.0460000  1
   3396   3394   3393   3415     1  0.0000000  0.0000000  3
   3397   3398   3399   3402     1  0.0000000  0.6508444  3
   3397   3398   3404   3410     1  0.0000000  1.0460000  1
   3397   3398   3404   3410     1  0.0000000  0.6694400  3
   3397   3394   3406   3409     1  0.0000000  1.0460000  1
   3397   3394   3406   3409     1  0.0000000  0.6694400  3
   3398   3397   3405   3408     1  0.0000000  1.0460000  1
   3398   3397   3405   3408     1  0.0000000  0.6694400  3
   3399   3398   3404   3410     1  0.0000000  1.0460000  1
   3399   3398   3404   3410     1  0.0000000  0.6694400  3
   3399   3398   3397   3401     1  0.0000000  0.6508444  3
   3400   3398   3399   3403     1  0.0000000  1.0460000  1
   3400   3398   3399   3403     1  0.0000000  0.0000000  3
   3400   3398   3399   3415     1  0.0000000  1.0460000  1
   3400   3398   3399   3415     1  0.0000000  0.0000000  3
   3400   3398   3399   3402     1  0.0000000  0.6508444  3
   3400   3398   3404   3410     1  0.0000000  0.6973333  3
   3400   3398   3397   3405     1  0.0000000  1.0460000  1
   3400   3398   3397   3405     1  0.0000000  0.0000000  3
   3400   3398   3397   3401     1  0.0000000  0.6508444  3
   3401   3397   3398   3404     1  0.0000000  1.0460000  1
   3401   3397   3398   3404     1  0.0000000  0.0000000  3
   3401   3397   3405   3408     1  0.0000000  0.6973333  3
   3401   3397   3394   3406     1  0.0000000  1.0460000  1
   3401   3397   3394   3406     1  0.0000000  0.0000000  3
   3402   3399   3398   3404     1  0.0000000  0.6508444  3
   3411   3407   3413   3414     1  0.0000000  0.6973333  3
   3411   3407   3393   3415     1  0.0000000  1.0460000  1
   3411   3407   3393   3415     1  0.0000000  0.0000000  3
   3412   3407   3413   3414     1  0.0000000  0.6973333  3
   3412   3407   3393   3415     1  0.0000000  1.0460000  1
   3412   3407   3393   3415     1  0.0000000  0.0000000  3
   3416   3417   3420   3424     1  0.0000000  0.6508444  3
   3416   3417   3429   3432     1  0.0000000  1.0460000  1
   3416   3417   3429   3432     1  0.0000000  0.6694400  3
   3416   3430   3436   3437     1  0.0000000  1.0460000  1
   3416   3430   3436   3437     1  0.0000000  0.6694400  3
   3416   3438   3422   3425     1  0.0000000  1.6038667  3
   3417   3416   3430   3434     1  0.0000000  0.6508444  3
   3417   3416   3430   3435     1  0.0000000  0.6508444  3
   3417   3420   3421   3423     1  0.0000000  0.6508444  3
   3417   3420   3428   3431     1  0.0000000  1.0460000  1
   3417   3420   3428   3431     1  0.0000000  0.6694400  3
   3418   3416   3417   3420     1  0.0000000  0.6508444  3
   3418   3416   3417   3429     1  0.0000000  1.0460000  1
   3418   3416   3417   3429     1  0.0000000  0.0000000  3
   3418   3416   3417   3419     1  0.0000000  0.6508444  3
   3418   3416   3430   3436     1  0.0000000  1.0460000  1
   3418   3416   3430   3436     1  0.0000000  0.0000000  3
   3418   3416   3430   3434     1  0.0000000  0.6508444  3
   3418   3416   3430   3435     1  0.0000000  0.6508444  3
   3418   3416   3438   3422     1  0.0000000  1.6038667  3
   3419   3417   3416   3430     1  0.0000000  0.6508444  3
   3419   3417   3416   3438     1  0.0000000  1.0460000  1
   3419   3417   3416   3438     1  0.0000000  0.0000000  3
   3419   3417   3420   3421     1  0.0000000  0.6508444  3
   3419   3417   3420   3428     1  0.0000000  1.0460000  1
   3419   3417   3420   3428     1  0.0000000  0.0000000  3
   3419   3417   3420   3424     1  0.0000000  0.6508444  3
   3419   3417   3429   3432     1  0.0000000  0.6973333  3
   3420   3417   3429   3432     1  0.0000000  1.0460000  1
   3420   3417   3429   3432     1  0.0000000  0.6694400  3
   3420   3421   3422   3425     1  0.0000000  0.6508444  3
   3420   3421   3427   3433     1  0.0000000  1.0460000  1
   3420   3421   3427   3433     1  0.0000000  0.6694400  3
   3421   3420   3428   3431     1  0.0000000  1.0460000  1
   3421   3420   3428   3431     1  0.0000000  0.6694400  3
   3422   3421   3420   3424     1  0.0000000  0.6508444  3
   3422   3421   3427   3433     1  0.0000000  1.0460000  1
   3422   3421   3427   3433     1  0.0000000  0.6694400  3
   3423   3421   3420   3428     1  0.0000000  1.0460000  1
   3423   3421   3420   3428     1  0.0000000  0.0000000  3
   3423   3421   3420   3424     1  0.0000000  0.6508444  3
   3423   3421   3422   3426     1  0.0000000  1.0460000  1
   3423   3421   3422   3426     1  0.0000000  0.0000000  3
   3423   3421   3422   3438     1  0.0000000  1.0460000  1
   3423   3421   3422   3438     1  0.0000000  0.0000000  3
   3423   3421   3422   3425     1  0.0000000  0.6508444  3
   3423   3421   3427   3433     1  0.0000000  0.6973333  3
   3424   3420   3417   3429     1  0.0000000  1.0460000  1
   3424   3420   3417   3429     1  0.0000000  0.0000000  3
   3424   3420   3421   3427     1  0.0000000  1.0460000  1
   3424   3420   3421   3427     1  0.0000000  0.0000000  3
   3424   3420   3428   3431     1  0.0000000  0.6973333  3
   3425   3422   3421   3427     1  0.0000000  0.6508444  3
   3434   3430   3416   3438     1  0.0000000  1.0460000  1
   3434   3430   3416   3438     1  0.0000000  0.0000000  3
   3434   3430   3436   3437     1  0.0000000  0.6973333  3
   3435   3430   3416   3438     1  0.0000000  1.0460000  1
   3435   3430   3416   3438     1  0.0000000  0.0000000  3
   3435   3430   3436   3437     1  0.0000000  0.6973333  3
   3439   3440   3443   3447     1  0.0000000  0.6508444  3
   3439   3440   3452   3455     1  0.0000000  1.0460000  1
   3439   3440   3452   3455     1  0.0000000  0.6694400  3
   3439   3453   3459   3460     1  0.0000000  1.0460000  1
   3439   3453   3459   3460     1  0.0000000  0.6694400  3
   3439   3461   3445   3448     1  0.0000000  1.6038667  3
   3440   3443   3444   3446     1  0.0000000  0.6508444  3
   3440   3443   3451   3454     1  0.0000000  1.0460000  1
   3440   3443   3451   3454     1  0.0000000  0.6694400  3
   3440   3439   3453   3457     1  0.0000000  0.6508444  3
   3440   3439   3453   3458     1  0.0000000  0.6508444  3
   3441   3439   3440   3443     1  0.0000000  0.6508444  3
   3441   3439   3440   3452     1  0.0000000  1.0460000  1
   3441   3439   3440   3452     1  0.0000000  0.0000000  3
   3441   3439   3440   3442     1  0.0000000  0.6508444  3
   3441   3439   3453   3459     1  0.0000000  1.0460000  1
   3441   3439   3453   3459     1  0.0000000  0.0000000  3
   3441   3439   3453   3457     1  0.0000000  0.6508444  3
   3441   3439   3453   3458     1  0.0000000  0.6508444  3
   3441   3439   3461   3445     1  0.0000000  1.6038667  3
   3442   3440   3443   3444     1  0.0000000  0.6508444  3
   3442   3440   3443   3451     1  0.0000000  1.0460000  1
   3442   3440   3443   3451     1  0.0000000  0.0000000  3
   3442   3440   3443   3447     1  0.0000000  0.6508444  3
   3442   3440   3452   3455     1  0.0000000  0.6973333  3
   3442   3440   3439   3453     1  0.0000000  0.6508444  3
   3442   3440   3439   3461     1  0.0000000  1.0460000  1
   3442   3440   3439   3461     1  0.0000000  0.0000000  3
   3443   3444   3445   3448     1  0.0000000  0.6508444  3
   3443   3444   3450   3456     1  0.0000000  1.0460000  1
   3443   3444   3450   3456     1  0.0000000  0.6694400  3
   3443   3440   3452   3455     1  0.0000000  1.0460000  1
   3443   3440   3452   3455     1  0.0000000  0.6694400  3
   3444   3443   3451   3454     1  0.0000000  1.0460000  1
   3444   3443   3451   3454     1  0.0000000  0.6694400  3
   3445   3444   3450   3456     1  0.0000000  1.0460000  1
   3445   3444   3450   3456     1  0.0000000  0.6694400  3
   3445   3444   3443   3447     1  0.0000000  0.6508444  3
   3446   3444   3445   3449     1  0.0000000  1.0460000  1
   3446   3444   3445   3449     1  0.0000000  0.0000000  3
   3446   3444   3445   3461     1  0.0000000  1.0460000  1
   3446   3444   3445   3461     1  0.0000000  0.0000000  3
   3446   3444   3445   3448     1  0.0000000  0.6508444  3
   3446   3444   3450   3456     1  0.0000000  0.6973333  3
   3446   3444   3443   3451     1  0.0000000  1.0460000  1
   3446   3444   3443   3451     1  0.0000000  0.0000000  3
   3446   3444   3443   3447     1  0.0000000  0.6508444  3
   3447   3443   3444   3450     1  0.0000000  1.0460000  1
   3447   3443   3444   3450     1  0.0000000  0.0000000  3
   3447   3443   3451   3454     1  0.0000000  0.6973333  3
   3447   3443   3440   3452     1  0.0000000  1.0460000  1
   3447   3443   3440   3452     1  0.0000000  0.0000000  3
   3448   3445   3444   3450     1  0.0000000  0.6508444  3
   3457   3453   3459   3460     1  0.0000000  0.6973333  3
   3457   3453   3439   3461     1  0.0000000  1.0460000  1
   3457   3453   3439   3461     1  0.0000000  0.0000000  3
   3458   3453   3459   3460     1  0.0000000  0.6973333  3
   3458   3453   3439   3461     1  0.0000000  1.0460000  1
   3458   3453   3439   3461     1  0.0000000  0.0000000  3
   3462   3463   3466   3470     1  0.0000000  0.6508444  3
   3462   3463   3475   3478     1  0.0000000  1.0460000  1
   3462   3463   3475   3478     1  0.0000000  0.6694400  3
   3462   3476   3482   3483     1  0.0000000  1.0460000  1
   3462   3476   3482   3483     1  0.0000000  0.6694400  3
   3462   3484   3468   3471     1  0.0000000  1.6038667  3
   3463   3462   3476   3480     1  0.0000000  0.6508444  3
   3463   3462   3476   3481     1  0.0000000  0.6508444  3
   3463   3466   3467   3469     1  0.0000000  0.6508444  3
   3463   3466   3474   3477     1  0.0000000  1.0460000  1
   3463   3466   3474   3477     1  0.0000000  0.6694400  3
   3464   3462   3463   3466     1  0.0000000  0.6508444  3
   3464   3462   3463   3475     1  0.0000000  1.0460000  1
   3464   3462   3463   3475     1  0.0000000  0.0000000  3
   3464   3462   3463   3465     1  0.0000000  0.6508444  3
   3464   3462   3476   3482     1  0.0000000  1.0460000  1
   3464   3462   3476   3482     1  0.0000000  0.0000000  3
   3464   3462   3476   3480     1  0.0000000  0.6508444  3
   3464   3462   3476   3481     1  0.0000000  0.6508444  3
   3464   3462   3484   3468     1  0.0000000  1.6038667  3
   3465   3463   3462   3476     1  0.0000000  0.6508444  3
   3465   3463   3462   3484     1  0.0000000  1.0460000  1
   3465   3463   3462   3484     1  0.0000000  0.0000000  3
   3465   3463   3466   3467     1  0.0000000  0.6508444  3
   3465   3463   3466   3474     1  0.0000000  1.0460000  1
   3465   3463   3466   3474     1  0.0000000  0.0000000  3
   3465   3463   3466   3470     1  0.0000000  0.6508444  3
   3465   3463   3475   3478     1  0.0000000  0.6973333  3
   3466   3463   3475   3478     1  0.0000000  1.0460000  1
   3466   3463   3475   3478     1  0.0000000  0.6694400  3
   3466   3467   3468   3471     1  0.0000000  0.6508444  3
   3466   3467   3473   3479     1  0.0000000  1.0460000  1
   3466   3467   3473   3479     1  0.0000000  0.6694400  3
   3467   3466   3474   3477     1  0.0000000  1.0460000  1
   3467   3466   3474   3477     1  0.0000000  0.6694400  3
   3468   3467   3466   3470     1  0.0000000  0.6508444  3
   3468   3467   3473   3479     1  0.0000000  1.0460000  1
   3468   3467   3473   3479     1  0.0000000  0.6694400  3
   3469   3467   3466   3474     1  0.0000000  1.0460000  1
   3469   3467   3466   3474     1  0.0000000  0.0000000  3
   3469   3467   3466   3470     1  0.0000000  0.6508444  3
   3469   3467   3468   3472     1  0.0000000  1.0460000  1
   3469   3467   3468   3472     1  0.0000000  0.0000000  3
   3469   3467   3468   3484     1  0.0000000  1.0460000  1
   3469   3467   3468   3484     1  0.0000000  0.0000000  3
   3469   3467   3468   3471     1  0.0000000  0.6508444  3
   3469   3467   3473   3479     1  0.0000000  0.6973333  3
   3470   3466   3463   3475     1  0.0000000  1.0460000  1
   3470   3466   3463   3475     1  0.0000000  0.0000000  3
   3470   3466   3467   3473     1  0.0000000  1.0460000  1
   3470   3466   3467   3473     1  0.0000000  0.0000000  3
   3470   3466   3474   3477     1  0.0000000  0.6973333  3
   3471   3468   3467   3473     1  0.0000000  0.6508444  3
   3480   3476   3462   3484     1  0.0000000  1.0460000  1
   3480   3476   3462   3484     1  0.0000000  0.0000000  3
   3480   3476   3482   3483     1  0.0000000  0.6973333  3
   3481   3476   3462   3484     1  0.0000000  1.0460000  1
   3481   3476   3462   3484     1  0.0000000  0.0000000  3
   3481   3476   3482   3483     1  0.0000000  0.6973333  3
   3485   3486   3489   3493     1  0.0000000  0.6508444  3
   3485   3486   3498   3501     1  0.0000000  1.0460000  1
   3485   3486   3498   3501     1  0.0000000  0.6694400  3
   3485   3499   3505   3506     1  0.0000000  1.0460000  1
   3485   3499   3505   3506     1  0.0000000  0.6694400  3
   3485   3507   3491   3494     1  0.0000000  1.6038667  3
   3486   3489   3490   3492     1  0.0000000  0.6508444  3
   3486   3489   3497   3500     1  0.0000000  1.0460000  1
   3486   3489   3497   3500     1  0.0000000  0.6694400  3
   3486   3485   3499   3503     1  0.0000000  0.6508444  3
   3486   3485   3499   3504     1  0.0000000  0.6508444  3
   3487   3485   3486   3489     1  0.0000000  0.6508444  3
   3487   3485   3486   3498     1  0.0000000  1.0460000  1
   3487   3485   3486   3498     1  0.0000000  0.0000000  3
   3487   3485   3486   3488     1  0.0000000  0.6508444  3
   3487   3485   3499   3505     1  0.0000000  1.0460000  1
   3487   3485   3499   3505     1  0.0000000  0.0000000  3
   3487   3485   3499   3503     1  0.0000000  0.6508444  3
   3487   3485   3499   3504     1  0.0000000  0.6508444  3
   3487   3485   3507   3491     1  0.0000000  1.6038667  3
   3488   3486   3489   3490     1  0.0000000  0.6508444  3
   3488   3486   3489   3497     1  0.0000000  1.0460000  1
   3488   3486   3489   3497     1  0.0000000  0.0000000  3
   3488   3486   3489   3493     1  0.0000000  0.6508444  3
   3488   3486   3498   3501     1  0.0000000  0.6973333  3
   3488   3486   3485   3499     1  0.0000000  0.6508444  3
   3488   3486   3485   3507     1  0.0000000  1.0460000  1
   3488   3486   3485   3507     1  0.0000000  0.0000000  3
   3489   3490   3491   3494     1  0.0000000  0.6508444  3
   3489   3490   3496   3502     1  0.0000000  1.0460000  1
   3489   3490   3496   3502     1  0.0000000  0.6694400  3
   3489   3486   3498   3501     1  0.0000000  1.0460000  1
   3489   3486   3498   3501     1  0.0000000  0.6694400  3
   3490   3489   3497   3500     1  0.0000000  1.0460000  1
   3490   3489   3497   3500     1  0.0000000  0.6694400  3
   3491   3490   3496   3502     1  0.0000000  1.0460000  1
   3491   3490   3496   3502     1  0.0000000  0.6694400  3
   3491   3490   3489   3493     1  0.0000000  0.6508444  3
   3492   3490   3491   3495     1  0.0000000  1.0460000  1
   3492   3490   3491   3495     1  0.0000000  0.0000000  3
   3492   3490   3491   3507     1  0.0000000  1.0460000  1
   3492   3490   3491   3507     1  0.0000000  0.0000000  3
   3492   3490   3491   3494     1  0.0000000  0.6508444  3
   3492   3490   3496   3502     1  0.0000000  0.6973333  3
   3492   3490   3489   3497     1  0.0000000  1.0460000  1
   3492   3490   3489   3497     1  0.0000000  0.0000000  3
   3492   3490   3489   3493     1  0.0000000  0.6508444  3
   3493   3489   3490   3496     1  0.0000000  1.0460000  1
   3493   3489   3490   3496     1  0.0000000  0.0000000  3
   3493   3489   3497   3500     1  0.0000000  0.6973333  3
   3493   3489   3486   3498     1  0.0000000  1.0460000  1
   3493   3489   3486   3498     1  0.0000000  0.0000000  3
   3494   3491   3490   3496     1  0.0000000  0.6508444  3
   3503   3499   3505   3506     1  0.0000000  0.6973333  3
   3503   3499   3485   3507     1  0.0000000  1.0460000  1
   3503   3499   3485   3507     1  0.0000000  0.0000000  3
   3504   3499   3505   3506     1  0.0000000  0.6973333  3
   3504   3499   3485   3507     1  0.0000000  1.0460000  1
   3504   3499   3485   3507     1  0.0000000  0.0000000  3
   3508   3509   3512   3516     1  0.0000000  0.6508444  3
   3508   3509   3521   3524     1  0.0000000  1.0460000  1
   3508   3509   3521   3524     1  0.0000000  0.6694400  3
   3508   3522   3528   3529     1  0.0000000  1.0460000  1
   3508   3522   3528   3529     1  0.0000000  0.6694400  3
   3508   3530   3514   3517     1  0.0000000  1.6038667  3
   3509   3508   3522   3526     1  0.0000000  0.6508444  3
   3509   3508   3522   3527     1  0.0000000  0.6508444  3
   3509   3512   3513   3515     1  0.0000000  0.6508444  3
   3509   3512   3520   3523     1  0.0000000  1.0460000  1
   3509   3512   3520   3523     1  0.0000000  0.6694400  3
   3510   3508   3509   3512     1  0.0000000  0.6508444  3
   3510   3508   3509   3521     1  0.0000000  1.0460000  1
   3510   3508   3509   3521     1  0.0000000  0.0000000  3
   3510   3508   3509   3511     1  0.0000000  0.6508444  3
   3510   3508   3522   3528     1  0.0000000  1.0460000  1
   3510   3508   3522   3528     1  0.0000000  0.0000000  3
   3510   3508   3522   3526     1  0.0000000  0.6508444  3
   3510   3508   3522   3527     1  0.0000000  0.6508444  3
   3510   3508   3530   3514     1  0.0000000  1.6038667  3
   3511   3509   3508   3522     1  0.0000000  0.6508444  3
   3511   3509   3508   3530     1  0.0000000  1.0460000  1
   3511   3509   3508   3530     1  0.0000000  0.0000000  3
   3511   3509   3512   3513     1  0.0000000  0.6508444  3
   3511   3509   3512   3520     1  0.0000000  1.0460000  1
   3511   3509   3512   3520     1  0.0000000  0.0000000  3
   3511   3509   3512   3516     1  0.0000000  0.6508444  3
   3511   3509   3521   3524     1  0.0000000  0.6973333  3
   3512   3509   3521   3524     1  0.0000000  1.0460000  1
   3512   3509   3521   3524     1  0.0000000  0.6694400  3
   3512   3513   3514   3517     1  0.0000000  0.6508444  3
   3512   3513   3519   3525     1  0.0000000  1.0460000  1
   3512   3513   3519   3525     1  0.0000000  0.6694400  3
   3513   3512   3520   3523     1  0.0000000  1.0460000  1
   3513   3512   3520   3523     1  0.0000000  0.6694400  3
   3514   3513   3512   3516     1  0.0000000  0.6508444  3
   3514   3513   3519   3525     1  0.0000000  1.0460000  1
   3514   3513   3519   3525     1  0.0000000  0.6694400  3
   3515   3513   3512   3520     1  0.0000000  1.0460000  1
   3515   3513   3512   3520     1  0.0000000  0.0000000  3
   3515   3513   3512   3516     1  0.0000000  0.6508444  3
   3515   3513   3514   3518     1  0.0000000  1.0460000  1
   3515   3513   3514   3518     1  0.0000000  0.0000000  3
   3515   3513   3514   3530     1  0.0000000  1.0460000  1
   3515   3513   3514   3530     1  0.0000000  0.0000000  3
   3515   3513   3514   3517     1  0.0000000  0.6508444  3
   3515   3513   3519   3525     1  0.0000000  0.6973333  3
   3516   3512   3509   3521     1  0.0000000  1.0460000  1
   3516   3512   3509   3521     1  0.0000000  0.0000000  3
   3516   3512   3513   3519     1  0.0000000  1.0460000  1
   3516   3512   3513   3519     1  0.0000000  0.0000000  3
   3516   3512   3520   3523     1  0.0000000  0.6973333  3
   3517   3514   3513   3519     1  0.0000000  0.6508444  3
   3526   3522   3508   3530     1  0.0000000  1.0460000  1
   3526   3522   3508   3530     1  0.0000000  0.0000000  3
   3526   3522   3528   3529     1  0.0000000  0.6973333  3
   3527   3522   3508   3530     1  0.0000000  1.0460000  1
   3527   3522   3508   3530     1  0.0000000  0.0000000  3
   3527   3522   3528   3529     1  0.0000000  0.6973333  3
   3531   3532   3535   3539     1  0.0000000  0.6508444  3
   3531   3532   3544   3547     1  0.0000000  1.0460000  1
   3531   3532   3544   3547     1  0.0000000  0.6694400  3
   3531   3545   3551   3552     1  0.0000000  1.0460000  1
   3531   3545   3551   3552     1  0.0000000  0.6694400  3
   3531   3553   3537   3540     1  0.0000000  1.6038667  3
   3532   3535   3536   3538     1  0.0000000  0.6508444  3
   3532   3535   3543   3546     1  0.0000000  1.0460000  1
   3532   3535   3543   3546     1  0.0000000  0.6694400  3
   3532   3531   3545   3549     1  0.0000000  0.6508444  3
   3532   3531   3545   3550     1  0.0000000  0.6508444  3
   3533   3531   3532   3535     1  0.0000000  0.6508444  3
   3533   3531   3532   3544     1  0.0000000  1.0460000  1
   3533   3531   3532   3544     1  0.0000000  0.0000000  3
   3533   3531   3532   3534     1  0.0000000  0.6508444  3
   3533   3531   3545   3551     1  0.0000000  1.0460000  1
   3533   3531   3545   3551     1  0.0000000  0.0000000  3
   3533   3531   3545   3549     1  0.0000000  0.6508444  3
   3533   3531   3545   3550     1  0.0000000  0.6508444  3
   3533   3531   3553   3537     1  0.0000000  1.6038667  3
   3534   3532   3535   3536     1  0.0000000  0.6508444  3
   3534   3532   3535   3543     1  0.0000000  1.0460000  1
   3534   3532   3535   3543     1  0.0000000  0.0000000  3
   3534   3532   3535   3539     1  0.0000000  0.6508444  3
   3534   3532   3544   3547     1  0.0000000  0.6973333  3
   3534   3532   3531   3545     1  0.0000000  0.6508444  3
   3534   3532   3531   3553     1  0.0000000  1.0460000  1
   3534   3532   3531   3553     1  0.0000000  0.0000000  3
   3535   3536   3537   3540     1  0.0000000  0.6508444  3
   3535   3536   3542   3548     1  0.0000000  1.0460000  1
   3535   3536   3542   3548     1  0.0000000  0.6694400  3
   3535   3532   3544   3547     1  0.0000000  1.0460000  1
   3535   3532   3544   3547     1  0.0000000  0.6694400  3
   3536   3535   3543   3546     1  0.0000000  1.0460000  1
   3536   3535   3543   3546     1  0.0000000  0.6694400  3
   3537   3536   3542   3548     1  0.0000000  1.0460000  1
   3537   3536   3542   3548     1  0.0000000  0.6694400  3
   3537   3536   3535   3539     1  0.0000000  0.6508444  3
   3538   3536   3537   3541     1  0.0000000  1.0460000  1
   3538   3536   3537   3541     1  0.0000000  0.0000000  3
   3538   3536   3537   3553     1  0.0000000  1.0460000  1
   3538   3536   3537   3553     1  0.0000000  0.0000000  3
   3538   3536   3537   3540     1  0.0000000  0.6508444  3
   3538   3536   3542   3548     1  0.0000000  0.6973333  3
   3538   3536   3535   3543     1  0.0000000  1.0460000  1
   3538   3536   3535   3543     1  0.0000000  0.0000000  3
   3538   3536   3535   3539     1  0.0000000  0.6508444  3
   3539   3535   3536   3542     1  0.0000000  1.0460000  1
   3539   3535   3536   3542     1  0.0000000  0.0000000  3
   3539   3535   3543   3546     1  0.0000000  0.6973333  3
   3539   3535   3532   3544     1  0.0000000  1.0460000  1
   3539   3535   3532   3544     1  0.0000000  0.0000000  3
   3540   3537   3536   3542     1  0.0000000  0.6508444  3
   3549   3545   3551   3552     1  0.0000000  0.6973333  3
   3549   3545   3531   3553     1  0.0000000  1.0460000  1
   3549   3545   3531   3553     1  0.0000000  0.0000000  3
   3550   3545   3551   3552     1  0.0000000  0.6973333  3
   3550   3545   3531   3553     1  0.0000000  1.0460000  1
   3550   3545   3531   3553     1  0.0000000  0.0000000  3
   3554   3555   3558   3562     1  0.0000000  0.6508444  3
   3554   3555   3567   3570     1  0.0000000  1.0460000  1
   3554   3555   3567   3570     1  0.0000000  0.6694400  3
   3554   3568   3574   3575     1  0.0000000  1.0460000  1
   3554   3568   3574   3575     1  0.0000000  0.6694400  3
   3554   3576   3560   3563     1  0.0000000  1.6038667  3
   3555   3554   3568   3572     1  0.0000000  0.6508444  3
   3555   3554   3568   3573     1  0.0000000  0.6508444  3
   3555   3558   3559   3561     1  0.0000000  0.6508444  3
   3555   3558   3566   3569     1  0.0000000  1.0460000  1
   3555   3558   3566   3569     1  0.0000000  0.6694400  3
   3556   3554   3555   3558     1  0.0000000  0.6508444  3
   3556   3554   3555   3567     1  0.0000000  1.0460000  1
   3556   3554   3555   3567     1  0.0000000  0.0000000  3
   3556   3554   3555   3557     1  0.0000000  0.6508444  3
   3556   3554   3568   3574     1  0.0000000  1.0460000  1
   3556   3554   3568   3574     1  0.0000000  0.0000000  3
   3556   3554   3568   3572     1  0.0000000  0.6508444  3
   3556   3554   3568   3573     1  0.0000000  0.6508444  3
   3556   3554   3576   3560     1  0.0000000  1.6038667  3
   3557   3555   3554   3568     1  0.0000000  0.6508444  3
   3557   3555   3554   3576     1  0.0000000  1.0460000  1
   3557   3555   3554   3576     1  0.0000000  0.0000000  3
   3557   3555   3558   3559     1  0.0000000  0.6508444  3
   3557   3555   3558   3566     1  0.0000000  1.0460000  1
   3557   3555   3558   3566     1  0.0000000  0.0000000  3
   3557   3555   3558   3562     1  0.0000000  0.6508444  3
   3557   3555   3567   3570     1  0.0000000  0.6973333  3
   3558   3555   3567   3570     1  0.0000000  1.0460000  1
   3558   3555   3567   3570     1  0.0000000  0.6694400  3
   3558   3559   3560   3563     1  0.0000000  0.6508444  3
   3558   3559   3565   3571     1  0.0000000  1.0460000  1
   3558   3559   3565   3571     1  0.0000000  0.6694400  3
   3559   3558   3566   3569     1  0.0000000  1.0460000  1
   3559   3558   3566   3569     1  0.0000000  0.6694400  3
   3560   3559   3558   3562     1  0.0000000  0.6508444  3
   3560   3559   3565   3571     1  0.0000000  1.0460000  1
   3560   3559   3565   3571     1  0.0000000  0.6694400  3
   3561   3559   3558   3566     1  0.0000000  1.0460000  1
   3561   3559   3558   3566     1  0.0000000  0.0000000  3
   3561   3559   3558   3562     1  0.0000000  0.6508444  3
   3561   3559   3560   3564     1  0.0000000  1.0460000  1
   3561   3559   3560   3564     1  0.0000000  0.0000000  3
   3561   3559   3560   3576     1  0.0000000  1.0460000  1
   3561   3559   3560   3576     1  0.0000000  0.0000000  3
   3561   3559   3560   3563     1  0.0000000  0.6508444  3
   3561   3559   3565   3571     1  0.0000000  0.6973333  3
   3562   3558   3555   3567     1  0.0000000  1.0460000  1
   3562   3558   3555   3567     1  0.0000000  0.0000000  3
   3562   3558   3559   3565     1  0.0000000  1.0460000  1
   3562   3558   3559   3565     1  0.0000000  0.0000000  3
   3562   3558   3566   3569     1  0.0000000  0.6973333  3
   3563   3560   3559   3565     1  0.0000000  0.6508444  3
   3572   3568   3554   3576     1  0.0000000  1.0460000  1
   3572   3568   3554   3576     1  0.0000000  0.0000000  3
   3572   3568   3574   3575     1  0.0000000  0.6973333  3
   3573   3568   3554   3576     1  0.0000000  1.0460000  1
   3573   3568   3554   3576     1  0.0000000  0.0000000  3
   3573   3568   3574   3575     1  0.0000000  0.6973333  3
   3577   3578   3581   3585     1  0.0000000  0.6508444  3
   3577   3578   3590   3593     1  0.0000000  1.0460000  1
   3577   3578   3590   3593     1  0.0000000  0.6694400  3
   3577   3591   3597   3598     1  0.0000000  1.0460000  1
   3577   3591   3597   3598     1  0.0000000  0.6694400  3
   3577   3599   3583   3586     1  0.0000000  1.6038667  3
   3578   3581   3582   3584     1  0.0000000  0.6508444  3
   3578   3581   3589   3592     1  0.0000000  1.0460000  1
   3578   3581   3589   3592     1  0.0000000  0.6694400  3
   3578   3577   3591   3595     1  0.0000000  0.6508444  3
   3578   3577   3591   3596     1  0.0000000  0.6508444  3
   3579   3577   3578   3581     1  0.0000000  0.6508444  3
   3579   3577   3578   3590     1  0.0000000  1.0460000  1
   3579   3577   3578   3590     1  0.0000000  0.0000000  3
   3579   3577   3578   3580     1  0.0000000  0.6508444  3
   3579   3577   3591   3597     1  0.0000000  1.0460000  1
   3579   3577   3591   3597     1  0.0000000  0.0000000  3
   3579   3577   3591   3595     1  0.0000000  0.6508444  3
   3579   3577   3591   3596     1  0.0000000  0.6508444  3
   3579   3577   3599   3583     1  0.0000000  1.6038667  3
   3580   3578   3581   3582     1  0.0000000  0.6508444  3
   3580   3578   3581   3589     1  0.0000000  1.0460000  1
   3580   3578   3581   3589     1  0.0000000  0.0000000  3
   3580   3578   3581   3585     1  0.0000000  0.6508444  3
   3580   3578   3590   3593     1  0.0000000  0.6973333  3
   3580   3578   3577   3591     1  0.0000000  0.6508444  3
   3580   3578   3577   3599     1  0.0000000  1.0460000  1
   3580   3578   3577   3599     1  0.0000000  0.0000000  3
   3581   3582   3583   3586     1  0.0000000  0.6508444  3
   3581   3582   3588   3594     1  0.0000000  1.0460000  1
   3581   3582   3588   3594     1  0.0000000  0.6694400  3
   3581   3578   3590   3593     1  0.0000000  1.0460000  1
   3581   3578   3590   3593     1  0.0000000  0.6694400  3
   3582   3581   3589   3592     1  0.0000000  1.0460000  1
   3582   3581   3589   3592     1  0.0000000  0.6694400  3
   3583   3582   3588   3594     1  0.0000000  1.0460000  1
   3583   3582   3588   3594     1  0.0000000  0.6694400  3
   3583   3582   3581   3585     1  0.0000000  0.6508444  3
   3584   3582   3583   3587     1  0.0000000  1.0460000  1
   3584   3582   3583   3587     1  0.0000000  0.0000000  3
   3584   3582   3583   3599     1  0.0000000  1.0460000  1
   3584   3582   3583   3599     1  0.0000000  0.0000000  3
   3584   3582   3583   3586     1  0.0000000  0.6508444  3
   3584   3582   3588   3594     1  0.0000000  0.6973333  3
   3584   3582   3581   3589     1  0.0000000  1.0460000  1
   3584   3582   3581   3589     1  0.0000000  0.0000000  3
   3584   3582   3581   3585     1  0.0000000  0.6508444  3
   3585   3581   3582   3588     1  0.0000000  1.0460000  1
   3585   3581   3582   3588     1  0.0000000  0.0000000  3
   3585   3581   3589   3592     1  0.0000000  0.6973333  3
   3585   3581   3578   3590     1  0.0000000  1.0460000  1
   3585   3581   3578   3590     1  0.0000000  0.0000000  3
   3586   3583   3582   3588     1  0.0000000  0.6508444  3
   3595   3591   3597   3598     1  0.0000000  0.6973333  3
   3595   3591   3577   3599     1  0.0000000  1.0460000  1
   3595   3591   3577   3599     1  0.0000000  0.0000000  3
   3596   3591   3597   3598     1  0.0000000  0.6973333  3
   3596   3591   3577   3599     1  0.0000000  1.0460000  1
   3596   3591   3577   3599     1  0.0000000  0.0000000  3
   3600   3601   3604   3608     1  0.0000000  0.6508444  3
   3600   3601   3613   3616     1  0.0000000  1.0460000  1
   3600   3601   3613   3616     1  0.0000000  0.6694400  3
   3600   3614   3620   3621     1  0.0000000  1.0460000  1
   3600   3614   3620   3621     1  0.0000000  0.6694400  3
   3600   3622   3606   3609     1  0.0000000  1.6038667  3
   3601   3600   3614   3618     1  0.0000000  0.6508444  3
   3601   3600   3614   3619     1  0.0000000  0.6508444  3
   3601   3604   3605   3607     1  0.0000000  0.6508444  3
   3601   3604   3612   3615     1  0.0000000  1.0460000  1
   3601   3604   3612   3615     1  0.0000000  0.6694400  3
   3602   3600   3601   3604     1  0.0000000  0.6508444  3
   3602   3600   3601   3613     1  0.0000000  1.0460000  1
   3602   3600   3601   3613     1  0.0000000  0.0000000  3
   3602   3600   3601   3603     1  0.0000000  0.6508444  3
   3602   3600   3614   3620     1  0.0000000  1.0460000  1
   3602   3600   3614   3620     1  0.0000000  0.0000000  3
   3602   3600   3614   3618     1  0.0000000  0.6508444  3
   3602   3600   3614   3619     1  0.0000000  0.6508444  3
   3602   3600   3622   3606     1  0.0000000  1.6038667  3
   3603   3601   3600   3614     1  0.0000000  0.6508444  3
   3603   3601   3600   3622     1  0.0000000  1.0460000  1
   3603   3601   3600   3622     1  0.0000000  0.0000000  3
   3603   3601   3604   3605     1  0.0000000  0.6508444  3
   3603   3601   3604   3612     1  0.0000000  1.0460000  1
   3603   3601   3604   3612     1  0.0000000  0.0000000  3
   3603   3601   3604   3608     1  0.0000000  0.6508444  3
   3603   3601   3613   3616     1  0.0000000  0.6973333  3
   3604   3601   3613   3616     1  0.0000000  1.0460000  1
   3604   3601   3613   3616     1  0.0000000  0.6694400  3
   3604   3605   3606   3609     1  0.0000000  0.6508444  3
   3604   3605   3611   3617     1  0.0000000  1.0460000  1
   3604   3605   3611   3617     1  0.0000000  0.6694400  3
   3605   3604   3612   3615     1  0.0000000  1.0460000  1
   3605   3604   3612   3615     1  0.0000000  0.6694400  3
   3606   3605   3604   3608     1  0.0000000  0.6508444  3
   3606   3605   3611   3617     1  0.0000000  1.0460000  1
   3606   3605   3611   3617     1  0.0000000  0.6694400  3
   3607   3605   3604   3612     1  0.0000000  1.0460000  1
   3607   3605   3604   3612     1  0.0000000  0.0000000  3
   3607   3605   3604   3608     1  0.0000000  0.6508444  3
   3607   3605   3606   3610     1  0.0000000  1.0460000  1
   3607   3605   3606   3610     1  0.0000000  0.0000000  3
   3607   3605   3606   3622     1  0.0000000  1.0460000  1
   3607   3605   3606   3622     1  0.0000000  0.0000000  3
   3607   3605   3606   3609     1  0.0000000  0.6508444  3
   3607   3605   3611   3617     1  0.0000000  0.6973333  3
   3608   3604   3601   3613     1  0.0000000  1.0460000  1
   3608   3604   3601   3613     1  0.0000000  0.0000000  3
   3608   3604   3605   3611     1  0.0000000  1.0460000  1
   3608   3604   3605   3611     1  0.0000000  0.0000000  3
   3608   3604   3612   3615     1  0.0000000  0.6973333  3
   3609   3606   3605   3611     1  0.0000000  0.6508444  3
   3618   3614   3600   3622     1  0.0000000  1.0460000  1
   3618   3614   3600   3622     1  0.0000000  0.0000000  3
   3618   3614   3620   3621     1  0.0000000  0.6973333  3
   3619   3614   3600   3622     1  0.0000000  1.0460000  1
   3619   3614   3600   3622     1  0.0000000  0.0000000  3
   3619   3614   3620   3621     1  0.0000000  0.6973333  3
   3623   3624   3627   3631     1  0.0000000  0.6508444  3
   3623   3624   3636   3639     1  0.0000000  1.0460000  1
   3623   3624   3636   3639     1  0.0000000  0.6694400  3
   3623   3637   3643   3644     1  0.0000000  1.0460000  1
   3623   3637   3643   3644     1  0.0000000  0.6694400  3
   3623   3645   3629   3632     1  0.0000000  1.6038667  3
   3624   3627   3628   3630     1  0.0000000  0.6508444  3
   3624   3627   3635   3638     1  0.0000000  1.0460000  1
   3624   3627   3635   3638     1  0.0000000  0.6694400  3
   3624   3623   3637   3641     1  0.0000000  0.6508444  3
   3624   3623   3637   3642     1  0.0000000  0.6508444  3
   3625   3623   3624   3627     1  0.0000000  0.6508444  3
   3625   3623   3624   3636     1  0.0000000  1.0460000  1
   3625   3623   3624   3636     1  0.0000000  0.0000000  3
   3625   3623   3624   3626     1  0.0000000  0.6508444  3
   3625   3623   3637   3643     1  0.0000000  1.0460000  1
   3625   3623   3637   3643     1  0.0000000  0.0000000  3
   3625   3623   3637   3641     1  0.0000000  0.6508444  3
   3625   3623   3637   3642     1  0.0000000  0.6508444  3
   3625   3623   3645   3629     1  0.0000000  1.6038667  3
   3626   3624   3627   3628     1  0.0000000  0.6508444  3
   3626   3624   3627   3635     1  0.0000000  1.0460000  1
   3626   3624   3627   3635     1  0.0000000  0.0000000  3
   3626   3624   3627   3631     1  0.0000000  0.6508444  3
   3626   3624   3636   3639     1  0.0000000  0.6973333  3
   3626   3624   3623   3637     1  0.0000000  0.6508444  3
   3626   3624   3623   3645     1  0.0000000  1.0460000  1
   3626   3624   3623   3645     1  0.0000000  0.0000000  3
   3627   3628   3629   3632     1  0.0000000  0.6508444  3
   3627   3628   3634   3640     1  0.0000000  1.0460000  1
   3627   3628   3634   3640     1  0.0000000  0.6694400  3
   3627   3624   3636   3639     1  0.0000000  1.0460000  1
   3627   3624   3636   3639     1  0.0000000  0.6694400  3
   3628   3627   3635   3638     1  0.0000000  1.0460000  1
   3628   3627   3635   3638     1  0.0000000  0.6694400  3
   3629   3628   3634   3640     1  0.0000000  1.0460000  1
   3629   3628   3634   3640     1  0.0000000  0.6694400  3
   3629   3628   3627   3631     1  0.0000000  0.6508444  3
   3630   3628   3629   3633     1  0.0000000  1.0460000  1
   3630   3628   3629   3633     1  0.0000000  0.0000000  3
   3630   3628   3629   3645     1  0.0000000  1.0460000  1
   3630   3628   3629   3645     1  0.0000000  0.0000000  3
   3630   3628   3629   3632     1  0.0000000  0.6508444  3
   3630   3628   3634   3640     1  0.0000000  0.6973333  3
   3630   3628   3627   3635     1  0.0000000  1.0460000  1
   3630   3628   3627   3635     1  0.0000000  0.0000000  3
   3630   3628   3627   3631     1  0.0000000  0.6508444  3
   3631   3627   3628   3634     1  0.0000000  1.0460000  1
   3631   3627   3628   3634     1  0.0000000  0.0000000  3
   3631   3627   3635   3638     1  0.0000000  0.6973333  3
   3631   3627   3624   3636     1  0.0000000  1.0460000  1
   3631   3627   3624   3636     1  0.0000000  0.0000000  3
   3632   3629   3628   3634     1  0.0000000  0.6508444  3
   3641   3637   3643   3644     1  0.0000000  0.6973333  3
   3641   3637   3623   3645     1  0.0000000  1.0460000  1
   3641   3637   3623   3645     1  0.0000000  0.0000000  3
   3642   3637   3643   3644     1  0.0000000  0.6973333  3
   3642   3637   3623   3645     1  0.0000000  1.0460000  1
   3642   3637   3623   3645     1  0.0000000  0.0000000  3
   3646   3647   3650   3654     1  0.0000000  0.6508444  3
   3646   3647   3659   3662     1  0.0000000  1.0460000  1
   3646   3647   3659   3662     1  0.0000000  0.6694400  3
   3646   3660   3666   3667     1  0.0000000  1.0460000  1
   3646   3660   3666   3667     1  0.0000000  0.6694400  3
   3646   3668   3652   3655     1  0.0000000  1.6038667  3
   3647   3646   3660   3664     1  0.0000000  0.6508444  3
   3647   3646   3660   3665     1  0.0000000  0.6508444  3
   3647   3650   3651   3653     1  0.0000000  0.6508444  3
   3647   3650   3658   3661     1  0.0000000  1.0460000  1
   3647   3650   3658   3661     1  0.0000000  0.6694400  3
   3648   3646   3647   3650     1  0.0000000  0.6508444  3
   3648   3646   3647   3659     1  0.0000000  1.0460000  1
   3648   3646   3647   3659     1  0.0000000  0.0000000  3
   3648   3646   3647   3649     1  0.0000000  0.6508444  3
   3648   3646   3660   3666     1  0.0000000  1.0460000  1
   3648   3646   3660   3666     1  0.0000000  0.0000000  3
   3648   3646   3660   3664     1  0.0000000  0.6508444  3
   3648   3646   3660   3665     1  0.0000000  0.6508444  3
   3648   3646   3668   3652     1  0.0000000  1.6038667  3
   3649   3647   3646   3660     1  0.0000000  0.6508444  3
   3649   3647   3646   3668     1  0.0000000  1.0460000  1
   3649   3647   3646   3668     1  0.0000000  0.0000000  3
   3649   3647   3650   3651     1  0.0000000  0.6508444  3
   3649   3647   3650   3658     1  0.0000000  1.0460000  1
   3649   3647   3650   3658     1  0.0000000  0.0000000  3
   3649   3647   3650   3654     1  0.0000000  0.6508444  3
   3649   3647   3659   3662     1  0.0000000  0.6973333  3
   3650   3647   3659   3662     1  0.0000000  1.0460000  1
   3650   3647   3659   3662     1  0.0000000  0.6694400  3
   3650   3651   3652   3655     1  0.0000000  0.6508444  3
   3650   3651   3657   3663     1  0.0000000  1.0460000  1
   3650   3651   3657   3663     1  0.0000000  0.6694400  3
   3651   3650   3658   3661     1  0.0000000  1.0460000  1
   3651   3650   3658   3661     1  0.0000000  0.6694400  3
   3652   3651   3650   3654     1  0.0000000  0.6508444  3
   3652   3651   3657   3663     1  0.0000000  1.0460000  1
   3652   3651   3657   3663     1  0.0000000  0.6694400  3
   3653   3651   3650   3658     1  0.0000000  1.0460000  1
   3653   3651   3650   3658     1  0.0000000  0.0000000  3
   3653   3651   3650   3654     1  0.0000000  0.6508444  3
   3653   3651   3652   3656     1  0.0000000  1.0460000  1
   3653   3651   3652   3656     1  0.0000000  0.0000000  3
   3653   3651   3652   3668     1  0.0000000  1.0460000  1
   3653   3651   3652   3668     1  0.0000000  0.0000000  3
   3653   3651   3652   3655     1  0.0000000  0.6508444  3
   3653   3651   3657   3663     1  0.0000000  0.6973333  3
   3654   3650   3647   3659     1  0.0000000  1.0460000  1
   3654   3650   3647   3659     1  0.0000000  0.0000000  3
   3654   3650   3651   3657     1  0.0000000  1.0460000  1
   3654   3650   3651   3657     1  0.0000000  0.0000000  3
   3654   3650   3658   3661     1  0.0000000  0.6973333  3
   3655   3652   3651   3657     1  0.0000000  0.6508444  3
   3664   3660   3646   3668     1  0.0000000  1.0460000  1
   3664   3660   3646   3668     1  0.0000000  0.0000000  3
   3664   3660   3666   3667     1  0.0000000  0.6973333  3
   3665   3660   3646   3668     1  0.0000000  1.0460000  1
   3665   3660   3646   3668     1  0.0000000  0.0000000  3
   3665   3660   3666   3667     1  0.0000000  0.6973333  3
   3669   3670   3673   3677     1  0.0000000  0.6508444  3
   3669   3670   3682   3685     1  0.0000000  1.0460000  1
   3669   3670   3682   3685     1  0.0000000  0.6694400  3
   3669   3683   3689   3690     1  0.0000000  1.0460000  1
   3669   3683   3689   3690     1  0.0000000  0.6694400  3
   3669   3691   3675   3678     1  0.0000000  1.6038667  3
   3670   3673   3674   3676     1  0.0000000  0.6508444  3
   3670   3673   3681   3684     1  0.0000000  1.0460000  1
   3670   3673   3681   3684     1  0.0000000  0.6694400  3
   3670   3669   3683   3687     1  0.0000000  0.6508444  3
   3670   3669   3683   3688     1  0.0000000  0.6508444  3
   3671   3669   3670   3673     1  0.0000000  0.6508444  3
   3671   3669   3670   3682     1  0.0000000  1.0460000  1
   3671   3669   3670   3682     1  0.0000000  0.0000000  3
   3671   3669   3670   3672     1  0.0000000  0.6508444  3
   3671   3669   3683   3689     1  0.0000000  1.0460000  1
   3671   3669   3683   3689     1  0.0000000  0.0000000  3
   3671   3669   3683   3687     1  0.0000000  0.6508444  3
   3671   3669   3683   3688     1  0.0000000  0.6508444  3
   3671   3669   3691   3675     1  0.0000000  1.6038667  3
   3672   3670   3673   3674     1  0.0000000  0.6508444  3
   3672   3670   3673   3681     1  0.0000000  1.0460000  1
   3672   3670   3673   3681     1  0.0000000  0.0000000  3
   3672   3670   3673   3677     1  0.0000000  0.6508444  3
   3672   3670   3682   3685     1  0.0000000  0.6973333  3
   3672   3670   3669   3683     1  0.0000000  0.6508444  3
   3672   3670   3669   3691     1  0.0000000  1.0460000  1
   3672   3670   3669   3691     1  0.0000000  0.0000000  3
   3673   3674   3675   3678     1  0.0000000  0.6508444  3
   3673   3674   3680   3686     1  0.0000000  1.0460000  1
   3673   3674   3680   3686     1  0.0000000  0.6694400  3
   3673   3670   3682   3685     1  0.0000000  1.0460000  1
   3673   3670   3682   3685     1  0.0000000  0.6694400  3
   3674   3673   3681   3684     1  0.0000000  1.0460000  1
   3674   3673   3681   3684     1  0.0000000  0.6694400  3
   3675   3674   3680   3686     1  0.0000000  1.0460000  1
   3675   3674   3680   3686     1  0.0000000  0.6694400  3
   3675   3674   3673   3677     1  0.0000000  0.6508444  3
   3676   3674   3675   3679     1  0.0000000  1.0460000  1
   3676   3674   3675   3679     1  0.0000000  0.0000000  3
   3676   3674   3675   3691     1  0.0000000  1.0460000  1
   3676   3674   3675   3691     1  0.0000000  0.0000000  3
   3676   3674   3675   3678     1  0.0000000  0.6508444  3
   3676   3674   3680   3686     1  0.0000000  0.6973333  3
   3676   3674   3673   3681     1  0.0000000  1.0460000  1
   3676   3674   3673   3681     1  0.0000000  0.0000000  3
   3676   3674   3673   3677     1  0.0000000  0.6508444  3
   3677   3673   3674   3680     1  0.0000000  1.0460000  1
   3677   3673   3674   3680     1  0.0000000  0.0000000  3
   3677   3673   3681   3684     1  0.0000000  0.6973333  3
   3677   3673   3670   3682     1  0.0000000  1.0460000  1
   3677   3673   3670   3682     1  0.0000000  0.0000000  3
   3678   3675   3674   3680     1  0.0000000  0.6508444  3
   3687   3683   3689   3690     1  0.0000000  0.6973333  3
   3687   3683   3669   3691     1  0.0000000  1.0460000  1
   3687   3683   3669   3691     1  0.0000000  0.0000000  3
   3688   3683   3689   3690     1  0.0000000  0.6973333  3
   3688   3683   3669   3691     1  0.0000000  1.0460000  1
   3688   3683   3669   3691     1  0.0000000  0.0000000  3
   3692   3693   3696   3700     1  0.0000000  0.6508444  3
   3692   3693   3705   3708     1  0.0000000  1.0460000  1
   3692   3693   3705   3708     1  0.0000000  0.6694400  3
   3692   3706   3712   3713     1  0.0000000  1.0460000  1
   3692   3706   3712   3713     1  0.0000000  0.6694400  3
   3692   3714   3698   3701     1  0.0000000  1.6038667  3
   3693   3692   3706   3710     1  0.0000000  0.6508444  3
   3693   3692   3706   3711     1  0.0000000  0.6508444  3
   3693   3696   3697   3699     1  0.0000000  0.6508444  3
   3693   3696   3704   3707     1  0.0000000  1.0460000  1
   3693   3696   3704   3707     1  0.0000000  0.6694400  3
   3694   3692   3693   3696     1  0.0000000  0.6508444  3
   3694   3692   3693   3705     1  0.0000000  1.0460000  1
   3694   3692   3693   3705     1  0.0000000  0.0000000  3
   3694   3692   3693   3695     1  0.0000000  0.6508444  3
   3694   3692   3706   3712     1  0.0000000  1.0460000  1
   3694   3692   3706   3712     1  0.0000000  0.0000000  3
   3694   3692   3706   3710     1  0.0000000  0.6508444  3
   3694   3692   3706   3711     1  0.0000000  0.6508444  3
   3694   3692   3714   3698     1  0.0000000  1.6038667  3
   3695   3693   3692   3706     1  0.0000000  0.6508444  3
   3695   3693   3692   3714     1  0.0000000  1.0460000  1
   3695   3693   3692   3714     1  0.0000000  0.0000000  3
   3695   3693   3696   3697     1  0.0000000  0.6508444  3
   3695   3693   3696   3704     1  0.0000000  1.0460000  1
   3695   3693   3696   3704     1  0.0000000  0.0000000  3
   3695   3693   3696   3700     1  0.0000000  0.6508444  3
   3695   3693   3705   3708     1  0.0000000  0.6973333  3
   3696   3693   3705   3708     1  0.0000000  1.0460000  1
   3696   3693   3705   3708     1  0.0000000  0.6694400  3
   3696   3697   3698   3701     1  0.0000000  0.6508444  3
   3696   3697   3703   3709     1  0.0000000  1.0460000  1
   3696   3697   3703   3709     1  0.0000000  0.6694400  3
   3697   3696   3704   3707     1  0.0000000  1.0460000  1
   3697   3696   3704   3707     1  0.0000000  0.6694400  3
   3698   3697   3696   3700     1  0.0000000  0.6508444  3
   3698   3697   3703   3709     1  0.0000000  1.0460000  1
   3698   3697   3703   3709     1  0.0000000  0.6694400  3
   3699   3697   3696   3704     1  0.0000000  1.0460000  1
   3699   3697   3696   3704     1  0.0000000  0.0000000  3
   3699   3697   3696   3700     1  0.0000000  0.6508444  3
   3699   3697   3698   3702     1  0.0000000  1.0460000  1
   3699   3697   3698   3702     1  0.0000000  0.0000000  3
   3699   3697   3698   3714     1  0.0000000  1.0460000  1
   3699   3697   3698   3714     1  0.0000000  0.0000000  3
   3699   3697   3698   3701     1  0.0000000  0.6508444  3
   3699   3697   3703   3709     1  0.0000000  0.6973333  3
   3700   3696   3693   3705     1  0.0000000  1.0460000  1
   3700   3696   3693   3705     1  0.0000000  0.0000000  3
   3700   3696   3697   3703     1  0.0000000  1.0460000  1
   3700   3696   3697   3703     1  0.0000000  0.0000000  3
   3700   3696   3704   3707     1  0.0000000  0.6973333  3
   3701   3698   3697   3703     1  0.0000000  0.6508444  3
   3710   3706   3692   3714     1  0.0000000  1.0460000  1
   3710   3706   3692   3714     1  0.0000000  0.0000000  3
   3710   3706   3712   3713     1  0.0000000  0.6973333  3
   3711   3706   3692   3714     1  0.0000000  1.0460000  1
   3711   3706   3692   3714     1  0.0000000  0.0000000  3
   3711   3706   3712   3713     1  0.0000000  0.6973333  3
   3715   3716   3719   3723     1  0.0000000  0.6508444  3
   3715   3716   3728   3731     1  0.0000000  1.0460000  1
   3715   3716   3728   3731     1  0.0000000  0.6694400  3
   3715   3729   3735   3736     1  0.0000000  1.0460000  1
   3715   3729   3735   3736     1  0.0000000  0.6694400  3
   3715   3737   3721   3724     1  0.0000000  1.6038667  3
   3716   3719   3720   3722     1  0.0000000  0.6508444  3
   3716   3719   3727   3730     1  0.0000000  1.0460000  1
   3716   3719   3727   3730     1  0.0000000  0.6694400  3
   3716   3715   3729   3733     1  0.0000000  0.6508444  3
   3716   3715   3729   3734     1  0.0000000  0.6508444  3
   3717   3715   3716   3719     1  0.0000000  0.6508444  3
   3717   3715   3716   3728     1  0.0000000  1.0460000  1
   3717   3715   3716   3728     1  0.0000000  0.0000000  3
   3717   3715   3716   3718     1  0.0000000  0.6508444  3
   3717   3715   3729   3735     1  0.0000000  1.0460000  1
   3717   3715   3729   3735     1  0.0000000  0.0000000  3
   3717   3715   3729   3733     1  0.0000000  0.6508444  3
   3717   3715   3729   3734     1  0.0000000  0.6508444  3
   3717   3715   3737   3721     1  0.0000000  1.6038667  3
   3718   3716   3719   3720     1  0.0000000  0.6508444  3
   3718   3716   3719   3727     1  0.0000000  1.0460000  1
   3718   3716   3719   3727     1  0.0000000  0.0000000  3
   3718   3716   3719   3723     1  0.0000000  0.6508444  3
   3718   3716   3728   3731     1  0.0000000  0.6973333  3
   3718   3716   3715   3729     1  0.0000000  0.6508444  3
   3718   3716   3715   3737     1  0.0000000  1.0460000  1
   3718   3716   3715   3737     1  0.0000000  0.0000000  3
   3719   3720   3721   3724     1  0.0000000  0.6508444  3
   3719   3720   3726   3732     1  0.0000000  1.0460000  1
   3719   3720   3726   3732     1  0.0000000  0.6694400  3
   3719   3716   3728   3731     1  0.0000000  1.0460000  1
   3719   3716   3728   3731     1  0.0000000  0.6694400  3
   3720   3719   3727   3730     1  0.0000000  1.0460000  1
   3720   3719   3727   3730     1  0.0000000  0.6694400  3
   3721   3720   3726   3732     1  0.0000000  1.0460000  1
   3721   3720   3726   3732     1  0.0000000  0.6694400  3
   3721   3720   3719   3723     1  0.0000000  0.6508444  3
   3722   3720   3721   3725     1  0.0000000  1.0460000  1
   3722   3720   3721   3725     1  0.0000000  0.0000000  3
   3722   3720   3721   3737     1  0.0000000  1.0460000  1
   3722   3720   3721   3737     1  0.0000000  0.0000000  3
   3722   3720   3721   3724     1  0.0000000  0.6508444  3
   3722   3720   3726   3732     1  0.0000000  0.6973333  3
   3722   3720   3719   3727     1  0.0000000  1.0460000  1
   3722   3720   3719   3727     1  0.0000000  0.0000000  3
   3722   3720   3719   3723     1  0.0000000  0.6508444  3
   3723   3719   3720   3726     1  0.0000000  1.0460000  1
   3723   3719   3720   3726     1  0.0000000  0.0000000  3
   3723   3719   3727   3730     1  0.0000000  0.6973333  3
   3723   3719   3716   3728     1  0.0000000  1.0460000  1
   3723   3719   3716   3728     1  0.0000000  0.0000000  3
   3724   3721   3720   3726     1  0.0000000  0.6508444  3
   3733   3729   3735   3736     1  0.0000000  0.6973333  3
   3733   3729   3715   3737     1  0.0000000  1.0460000  1
   3733   3729   3715   3737     1  0.0000000  0.0000000  3
   3734   3729   3735   3736     1  0.0000000  0.6973333  3
   3734   3729   3715   3737     1  0.0000000  1.0460000  1
   3734   3729   3715   3737     1  0.0000000  0.0000000  3
   3738   3739   3742   3746     1  0.0000000  0.6508444  3
   3738   3739   3751   3754     1  0.0000000  1.0460000  1
   3738   3739   3751   3754     1  0.0000000  0.6694400  3
   3738   3752   3758   3759     1  0.0000000  1.0460000  1
   3738   3752   3758   3759     1  0.0000000  0.6694400  3
   3738   3760   3744   3747     1  0.0000000  1.6038667  3
   3739   3738   3752   3756     1  0.0000000  0.6508444  3
   3739   3738   3752   3757     1  0.0000000  0.6508444  3
   3739   3742   3743   3745     1  0.0000000  0.6508444  3
   3739   3742   3750   3753     1  0.0000000  1.0460000  1
   3739   3742   3750   3753     1  0.0000000  0.6694400  3
   3740   3738   3739   3742     1  0.0000000  0.6508444  3
   3740   3738   3739   3751     1  0.0000000  1.0460000  1
   3740   3738   3739   3751     1  0.0000000  0.0000000  3
   3740   3738   3739   3741     1  0.0000000  0.6508444  3
   3740   3738   3752   3758     1  0.0000000  1.0460000  1
   3740   3738   3752   3758     1  0.0000000  0.0000000  3
   3740   3738   3752   3756     1  0.0000000  0.6508444  3
   3740   3738   3752   3757     1  0.0000000  0.6508444  3
   3740   3738   3760   3744     1  0.0000000  1.6038667  3
   3741   3739   3738   3752     1  0.0000000  0.6508444  3
   3741   3739   3738   3760     1  0.0000000  1.0460000  1
   3741   3739   3738   3760     1  0.0000000  0.0000000  3
   3741   3739   3742   3743     1  0.0000000  0.6508444  3
   3741   3739   3742   3750     1  0.0000000  1.0460000  1
   3741   3739   3742   3750     1  0.0000000  0.0000000  3
   3741   3739   3742   3746     1  0.0000000  0.6508444  3
   3741   3739   3751   3754     1  0.0000000  0.6973333  3
   3742   3739   3751   3754     1  0.0000000  1.0460000  1
   3742   3739   3751   3754     1  0.0000000  0.6694400  3
   3742   3743   3744   3747     1  0.0000000  0.6508444  3
   3742   3743   3749   3755     1  0.0000000  1.0460000  1
   3742   3743   3749   3755     1  0.0000000  0.6694400  3
   3743   3742   3750   3753     1  0.0000000  1.0460000  1
   3743   3742   3750   3753     1  0.0000000  0.6694400  3
   3744   3743   3742   3746     1  0.0000000  0.6508444  3
   3744   3743   3749   3755     1  0.0000000  1.0460000  1
   3744   3743   3749   3755     1  0.0000000  0.6694400  3
   3745   3743   3742   3750     1  0.0000000  1.0460000  1
   3745   3743   3742   3750     1  0.0000000  0.0000000  3
   3745   3743   3742   3746     1  0.0000000  0.6508444  3
   3745   3743   3744   3748     1  0.0000000  1.0460000  1
   3745   3743   3744   3748     1  0.0000000  0.0000000  3
   3745   3743   3744   3760     1  0.0000000  1.0460000  1
   3745   3743   3744   3760     1  0.0000000  0.0000000  3
   3745   3743   3744   3747     1  0.0000000  0.6508444  3
   3745   3743   3749   3755     1  0.0000000  0.6973333  3
   3746   3742   3739   3751     1  0.0000000  1.0460000  1
   3746   3742   3739   3751     1  0.0000000  0.0000000  3
   3746   3742   3743   3749     1  0.0000000  1.0460000  1
   3746   3742   3743   3749     1  0.0000000  0.0000000  3
   3746   3742   3750   3753     1  0.0000000  0.6973333  3
   3747   3744   3743   3749     1  0.0000000  0.6508444  3
   3756   3752   3738   3760     1  0.0000000  1.0460000  1
   3756   3752   3738   3760     1  0.0000000  0.0000000  3
   3756   3752   3758   3759     1  0.0000000  0.6973333  3
   3757   3752   3738   3760     1  0.0000000  1.0460000  1
   3757   3752   3738   3760     1  0.0000000  0.0000000  3
   3757   3752   3758   3759     1  0.0000000  0.6973333  3
   3761   3762   3765   3769     1  0.0000000  0.6508444  3
   3761   3762   3774   3777     1  0.0000000  1.0460000  1
   3761   3762   3774   3777     1  0.0000000  0.6694400  3
   3761   3775   3781   3782     1  0.0000000  1.0460000  1
   3761   3775   3781   3782     1  0.0000000  0.6694400  3
   3761   3783   3767   3770     1  0.0000000  1.6038667  3
   3762   3765   3766   3768     1  0.0000000  0.6508444  3
   3762   3765   3773   3776     1  0.0000000  1.0460000  1
   3762   3765   3773   3776     1  0.0000000  0.6694400  3
   3762   3761   3775   3779     1  0.0000000  0.6508444  3
   3762   3761   3775   3780     1  0.0000000  0.6508444  3
   3763   3761   3762   3765     1  0.0000000  0.6508444  3
   3763   3761   3762   3774     1  0.0000000  1.0460000  1
   3763   3761   3762   3774     1  0.0000000  0.0000000  3
   3763   3761   3762   3764     1  0.0000000  0.6508444  3
   3763   3761   3775   3781     1  0.0000000  1.0460000  1
   3763   3761   3775   3781     1  0.0000000  0.0000000  3
   3763   3761   3775   3779     1  0.0000000  0.6508444  3
   3763   3761   3775   3780     1  0.0000000  0.6508444  3
   3763   3761   3783   3767     1  0.0000000  1.6038667  3
   3764   3762   3765   3766     1  0.0000000  0.6508444  3
   3764   3762   3765   3773     1  0.0000000  1.0460000  1
   3764   3762   3765   3773     1  0.0000000  0.0000000  3
   3764   3762   3765   3769     1  0.0000000  0.6508444  3
   3764   3762   3774   3777     1  0.0000000  0.6973333  3
   3764   3762   3761   3775     1  0.0000000  0.6508444  3
   3764   3762   3761   3783     1  0.0000000  1.0460000  1
   3764   3762   3761   3783     1  0.0000000  0.0000000  3
   3765   3766   3767   3770     1  0.0000000  0.6508444  3
   3765   3766   3772   3778     1  0.0000000  1.0460000  1
   3765   3766   3772   3778     1  0.0000000  0.6694400  3
   3765   3762   3774   3777     1  0.0000000  1.0460000  1
   3765   3762   3774   3777     1  0.0000000  0.6694400  3
   3766   3765   3773   3776     1  0.0000000  1.0460000  1
   3766   3765   3773   3776     1  0.0000000  0.6694400  3
   3767   3766   3772   3778     1  0.0000000  1.0460000  1
   3767   3766   3772   3778     1  0.0000000  0.6694400  3
   3767   3766   3765   3769     1  0.0000000  0.6508444  3
   3768   3766   3767   3771     1  0.0000000  1.0460000  1
   3768   3766   3767   3771     1  0.0000000  0.0000000  3
   3768   3766   3767   3783     1  0.0000000  1.0460000  1
   3768   3766   3767   3783     1  0.0000000  0.0000000  3
   3768   3766   3767   3770     1  0.0000000  0.6508444  3
   3768   3766   3772   3778     1  0.0000000  0.6973333  3
   3768   3766   3765   3773     1  0.0000000  1.0460000  1
   3768   3766   3765   3773     1  0.0000000  0.0000000  3
   3768   3766   3765   3769     1  0.0000000  0.6508444  3
   3769   3765   3766   3772     1  0.0000000  1.0460000  1
   3769   3765   3766   3772     1  0.0000000  0.0000000  3
   3769   3765   3773   3776     1  0.0000000  0.6973333  3
   3769   3765   3762   3774     1  0.0000000  1.0460000  1
   3769   3765   3762   3774     1  0.0000000  0.0000000  3
   3770   3767   3766   3772     1  0.0000000  0.6508444  3
   3779   3775   3781   3782     1  0.0000000  0.6973333  3
   3779   3775   3761   3783     1  0.0000000  1.0460000  1
   3779   3775   3761   3783     1  0.0000000  0.0000000  3
   3780   3775   3781   3782     1  0.0000000  0.6973333  3
   3780   3775   3761   3783     1  0.0000000  1.0460000  1
   3780   3775   3761   3783     1  0.0000000  0.0000000  3
   3784   3785   3788   3792     1  0.0000000  0.6508444  3
   3784   3785   3797   3800     1  0.0000000  1.0460000  1
   3784   3785   3797   3800     1  0.0000000  0.6694400  3
   3784   3798   3804   3805     1  0.0000000  1.0460000  1
   3784   3798   3804   3805     1  0.0000000  0.6694400  3
   3784   3806   3790   3793     1  0.0000000  1.6038667  3
   3785   3784   3798   3802     1  0.0000000  0.6508444  3
   3785   3784   3798   3803     1  0.0000000  0.6508444  3
   3785   3788   3789   3791     1  0.0000000  0.6508444  3
   3785   3788   3796   3799     1  0.0000000  1.0460000  1
   3785   3788   3796   3799     1  0.0000000  0.6694400  3
   3786   3784   3785   3788     1  0.0000000  0.6508444  3
   3786   3784   3785   3797     1  0.0000000  1.0460000  1
   3786   3784   3785   3797     1  0.0000000  0.0000000  3
   3786   3784   3785   3787     1  0.0000000  0.6508444  3
   3786   3784   3798   3804     1  0.0000000  1.0460000  1
   3786   3784   3798   3804     1  0.0000000  0.0000000  3
   3786   3784   3798   3802     1  0.0000000  0.6508444  3
   3786   3784   3798   3803     1  0.0000000  0.6508444  3
   3786   3784   3806   3790     1  0.0000000  1.6038667  3
   3787   3785   3784   3798     1  0.0000000  0.6508444  3
   3787   3785   3784   3806     1  0.0000000  1.0460000  1
   3787   3785   3784   3806     1  0.0000000  0.0000000  3
   3787   3785   3788   3789     1  0.0000000  0.6508444  3
   3787   3785   3788   3796     1  0.0000000  1.0460000  1
   3787   3785   3788   3796     1  0.0000000  0.0000000  3
   3787   3785   3788   3792     1  0.0000000  0.6508444  3
   3787   3785   3797   3800     1  0.0000000  0.6973333  3
   3788   3785   3797   3800     1  0.0000000  1.0460000  1
   3788   3785   3797   3800     1  0.0000000  0.6694400  3
   3788   3789   3790   3793     1  0.0000000  0.6508444  3
   3788   3789   3795   3801     1  0.0000000  1.0460000  1
   3788   3789   3795   3801     1  0.0000000  0.6694400  3
   3789   3788   3796   3799     1  0.0000000  1.0460000  1
   3789   3788   3796   3799     1  0.0000000  0.6694400  3
   3790   3789   3788   3792     1  0.0000000  0.6508444  3
   3790   3789   3795   3801     1  0.0000000  1.0460000  1
   3790   3789   3795   3801     1  0.0000000  0.6694400  3
   3791   3789   3788   3796     1  0.0000000  1.0460000  1
   3791   3789   3788   3796     1  0.0000000  0.0000000  3
   3791   3789   3788   3792     1  0.0000000  0.6508444  3
   3791   3789   3790   3794     1  0.0000000  1.0460000  1
   3791   3789   3790   3794     1  0.0000000  0.0000000  3
   3791   3789   3790   3806     1  0.0000000  1.0460000  1
   3791   3789   3790   3806     1  0.0000000  0.0000000  3
   3791   3789   3790   3793     1  0.0000000  0.6508444  3
   3791   3789   3795   3801     1  0.0000000  0.6973333  3
   3792   3788   3785   3797     1  0.0000000  1.0460000  1
   3792   3788   3785   3797     1  0.0000000  0.0000000  3
   3792   3788   3789   3795     1  0.0000000  1.0460000  1
   3792   3788   3789   3795     1  0.0000000  0.0000000  3
   3792   3788   3796   3799     1  0.0000000  0.6973333  3
   3793   3790   3789   3795     1  0.0000000  0.6508444  3
   3802   3798   3784   3806     1  0.0000000  1.0460000  1
   3802   3798   3784   3806     1  0.0000000  0.0000000  3
   3802   3798   3804   3805     1  0.0000000  0.6973333  3
   3803   3798   3784   3806     1  0.0000000  1.0460000  1
   3803   3798   3784   3806     1  0.0000000  0.0000000  3
   3803   3798   3804   3805     1  0.0000000  0.6973333  3
   3807   3808   3811   3815     1  0.0000000  0.6508444  3
   3807   3808   3820   3823     1  0.0000000  1.0460000  1
   3807   3808   3820   3823     1  0.0000000  0.6694400  3
   3807   3821   3827   3828     1  0.0000000  1.0460000  1
   3807   3821   3827   3828     1  0.0000000  0.6694400  3
   3807   3829   3813   3816     1  0.0000000  1.6038667  3
   3808   3811   3812   3814     1  0.0000000  0.6508444  3
   3808   3811   3819   3822     1  0.0000000  1.0460000  1
   3808   3811   3819   3822     1  0.0000000  0.6694400  3
   3808   3807   3821   3825     1  0.0000000  0.6508444  3
   3808   3807   3821   3826     1  0.0000000  0.6508444  3
   3809   3807   3808   3811     1  0.0000000  0.6508444  3
   3809   3807   3808   3820     1  0.0000000  1.0460000  1
   3809   3807   3808   3820     1  0.0000000  0.0000000  3
   3809   3807   3808   3810     1  0.0000000  0.6508444  3
   3809   3807   3821   3827     1  0.0000000  1.0460000  1
   3809   3807   3821   3827     1  0.0000000  0.0000000  3
   3809   3807   3821   3825     1  0.0000000  0.6508444  3
   3809   3807   3821   3826     1  0.0000000  0.6508444  3
   3809   3807   3829   3813     1  0.0000000  1.6038667  3
   3810   3808   3811   3812     1  0.0000000  0.6508444  3
   3810   3808   3811   3819     1  0.0000000  1.0460000  1
   3810   3808   3811   3819     1  0.0000000  0.0000000  3
   3810   3808   3811   3815     1  0.0000000  0.6508444  3
   3810   3808   3820   3823     1  0.0000000  0.6973333  3
   3810   3808   3807   3821     1  0.0000000  0.6508444  3
   3810   3808   3807   3829     1  0.0000000  1.0460000  1
   3810   3808   3807   3829     1  0.0000000  0.0000000  3
   3811   3812   3813   3816     1  0.0000000  0.6508444  3
   3811   3812   3818   3824     1  0.0000000  1.0460000  1
   3811   3812   3818   3824     1  0.0000000  0.6694400  3
   3811   3808   3820   3823     1  0.0000000  1.0460000  1
   3811   3808   3820   3823     1  0.0000000  0.6694400  3
   3812   3811   3819   3822     1  0.0000000  1.0460000  1
   3812   3811   3819   3822     1  0.0000000  0.6694400  3
   3813   3812   3818   3824     1  0.0000000  1.0460000  1
   3813   3812   3818   3824     1  0.0000000  0.6694400  3
   3813   3812   3811   3815     1  0.0000000  0.6508444  3
   3814   3812   3813   3817     1  0.0000000  1.0460000  1
   3814   3812   3813   3817     1  0.0000000  0.0000000  3
   3814   3812   3813   3829     1  0.0000000  1.0460000  1
   3814   3812   3813   3829     1  0.0000000  0.0000000  3
   3814   3812   3813   3816     1  0.0000000  0.6508444  3
   3814   3812   3818   3824     1  0.0000000  0.6973333  3
   3814   3812   3811   3819     1  0.0000000  1.0460000  1
   3814   3812   3811   3819     1  0.0000000  0.0000000  3
   3814   3812   3811   3815     1  0.0000000  0.6508444  3
   3815   3811   3812   3818     1  0.0000000  1.0460000  1
   3815   3811   3812   3818     1  0.0000000  0.0000000  3
   3815   3811   3819   3822     1  0.0000000  0.6973333  3
   3815   3811   3808   3820     1  0.0000000  1.0460000  1
   3815   3811   3808   3820     1  0.0000000  0.0000000  3
   3816   3813   3812   3818     1  0.0000000  0.6508444  3
   3825   3821   3827   3828     1  0.0000000  0.6973333  3
   3825   3821   3807   3829     1  0.0000000  1.0460000  1
   3825   3821   3807   3829     1  0.0000000  0.0000000  3
   3826   3821   3827   3828     1  0.0000000  0.6973333  3
   3826   3821   3807   3829     1  0.0000000  1.0460000  1
   3826   3821   3807   3829     1  0.0000000  0.0000000  3
   3830   3831   3834   3838     1  0.0000000  0.6508444  3
   3830   3831   3843   3846     1  0.0000000  1.0460000  1
   3830   3831   3843   3846     1  0.0000000  0.6694400  3
   3830   3844   3850   3851     1  0.0000000  1.0460000  1
   3830   3844   3850   3851     1  0.0000000  0.6694400  3
   3830   3852   3836   3839     1  0.0000000  1.6038667  3
   3831   3830   3844   3848     1  0.0000000  0.6508444  3
   3831   3830   3844   3849     1  0.0000000  0.6508444  3
   3831   3834   3835   3837     1  0.0000000  0.6508444  3
   3831   3834   3842   3845     1  0.0000000  1.0460000  1
   3831   3834   3842   3845     1  0.0000000  0.6694400  3
   3832   3830   3831   3834     1  0.0000000  0.6508444  3
   3832   3830   3831   3843     1  0.0000000  1.0460000  1
   3832   3830   3831   3843     1  0.0000000  0.0000000  3
   3832   3830   3831   3833     1  0.0000000  0.6508444  3
   3832   3830   3844   3850     1  0.0000000  1.0460000  1
   3832   3830   3844   3850     1  0.0000000  0.0000000  3
   3832   3830   3844   3848     1  0.0000000  0.6508444  3
   3832   3830   3844   3849     1  0.0000000  0.6508444  3
   3832   3830   3852   3836     1  0.0000000  1.6038667  3
   3833   3831   3830   3844     1  0.0000000  0.6508444  3
   3833   3831   3830   3852     1  0.0000000  1.0460000  1
   3833   3831   3830   3852     1  0.0000000  0.0000000  3
   3833   3831   3834   3835     1  0.0000000  0.6508444  3
   3833   3831   3834   3842     1  0.0000000  1.0460000  1
   3833   3831   3834   3842     1  0.0000000  0.0000000  3
   3833   3831   3834   3838     1  0.0000000  0.6508444  3
   3833   3831   3843   3846     1  0.0000000  0.6973333  3
   3834   3831   3843   3846     1  0.0000000  1.0460000  1
   3834   3831   3843   3846     1  0.0000000  0.6694400  3
   3834   3835   3836   3839     1  0.0000000  0.6508444  3
   3834   3835   3841   3847     1  0.0000000  1.0460000  1
   3834   3835   3841   3847     1  0.0000000  0.6694400  3
   3835   3834   3842   3845     1  0.0000000  1.0460000  1
   3835   3834   3842   3845     1  0.0000000  0.6694400  3
   3836   3835   3834   3838     1  0.0000000  0.6508444  3
   3836   3835   3841   3847     1  0.0000000  1.0460000  1
   3836   3835   3841   3847     1  0.0000000  0.6694400  3
   3837   3835   3834   3842     1  0.0000000  1.0460000  1
   3837   3835   3834   3842     1  0.0000000  0.0000000  3
   3837   3835   3834   3838     1  0.0000000  0.6508444  3
   3837   3835   3836   3840     1  0.0000000  1.0460000  1
   3837   3835   3836   3840     1  0.0000000  0.0000000  3
   3837   3835   3836   3852     1  0.0000000  1.0460000  1
   3837   3835   3836   3852     1  0.0000000  0.0000000  3
   3837   3835   3836   3839     1  0.0000000  0.6508444  3
   3837   3835   3841   3847     1  0.0000000  0.6973333  3
   3838   3834   3831   3843     1  0.0000000  1.0460000  1
   3838   3834   3831   3843     1  0.0000000  0.0000000  3
   3838   3834   3835   3841     1  0.0000000  1.0460000  1
   3838   3834   3835   3841     1  0.0000000  0.0000000  3
   3838   3834   3842   3845     1  0.0000000  0.6973333  3
   3839   3836   3835   3841     1  0.0000000  0.6508444  3
   3848   3844   3830   3852     1  0.0000000  1.0460000  1
   3848   3844   3830   3852     1  0.0000000  0.0000000  3
   3848   3844   3850   3851     1  0.0000000  0.6973333  3
   3849   3844   3830   3852     1  0.0000000  1.0460000  1
   3849   3844   3830   3852     1  0.0000000  0.0000000  3
   3849   3844   3850   3851     1  0.0000000  0.6973333  3
   3853   3854   3857   3861     1  0.0000000  0.6508444  3
   3853   3854   3866   3869     1  0.0000000  1.0460000  1
   3853   3854   3866   3869     1  0.0000000  0.6694400  3
   3853   3867   3873   3874     1  0.0000000  1.0460000  1
   3853   3867   3873   3874     1  0.0000000  0.6694400  3
   3853   3875   3859   3862     1  0.0000000  1.6038667  3
   3854   3857   3858   3860     1  0.0000000  0.6508444  3
   3854   3857   3865   3868     1  0.0000000  1.0460000  1
   3854   3857   3865   3868     1  0.0000000  0.6694400  3
   3854   3853   3867   3871     1  0.0000000  0.6508444  3
   3854   3853   3867   3872     1  0.0000000  0.6508444  3
   3855   3853   3854   3857     1  0.0000000  0.6508444  3
   3855   3853   3854   3866     1  0.0000000  1.0460000  1
   3855   3853   3854   3866     1  0.0000000  0.0000000  3
   3855   3853   3854   3856     1  0.0000000  0.6508444  3
   3855   3853   3867   3873     1  0.0000000  1.0460000  1
   3855   3853   3867   3873     1  0.0000000  0.0000000  3
   3855   3853   3867   3871     1  0.0000000  0.6508444  3
   3855   3853   3867   3872     1  0.0000000  0.6508444  3
   3855   3853   3875   3859     1  0.0000000  1.6038667  3
   3856   3854   3857   3858     1  0.0000000  0.6508444  3
   3856   3854   3857   3865     1  0.0000000  1.0460000  1
   3856   3854   3857   3865     1  0.0000000  0.0000000  3
   3856   3854   3857   3861     1  0.0000000  0.6508444  3
   3856   3854   3866   3869     1  0.0000000  0.6973333  3
   3856   3854   3853   3867     1  0.0000000  0.6508444  3
   3856   3854   3853   3875     1  0.0000000  1.0460000  1
   3856   3854   3853   3875     1  0.0000000  0.0000000  3
   3857   3858   3859   3862     1  0.0000000  0.6508444  3
   3857   3858   3864   3870     1  0.0000000  1.0460000  1
   3857   3858   3864   3870     1  0.0000000  0.6694400  3
   3857   3854   3866   3869     1  0.0000000  1.0460000  1
   3857   3854   3866   3869     1  0.0000000  0.6694400  3
   3858   3857   3865   3868     1  0.0000000  1.0460000  1
   3858   3857   3865   3868     1  0.0000000  0.6694400  3
   3859   3858   3864   3870     1  0.0000000  1.0460000  1
   3859   3858   3864   3870     1  0.0000000  0.6694400  3
   3859   3858   3857   3861     1  0.0000000  0.6508444  3
   3860   3858   3859   3863     1  0.0000000  1.0460000  1
   3860   3858   3859   3863     1  0.0000000  0.0000000  3
   3860   3858   3859   3875     1  0.0000000  1.0460000  1
   3860   3858   3859   3875     1  0.0000000  0.0000000  3
   3860   3858   3859   3862     1  0.0000000  0.6508444  3
   3860   3858   3864   3870     1  0.0000000  0.6973333  3
   3860   3858   3857   3865     1  0.0000000  1.0460000  1
   3860   3858   3857   3865     1  0.0000000  0.0000000  3
   3860   3858   3857   3861     1  0.0000000  0.6508444  3
   3861   3857   3858   3864     1  0.0000000  1.0460000  1
   3861   3857   3858   3864     1  0.0000000  0.0000000  3
   3861   3857   3865   3868     1  0.0000000  0.6973333  3
   3861   3857   3854   3866     1  0.0000000  1.0460000  1
   3861   3857   3854   3866     1  0.0000000  0.0000000  3
   3862   3859   3858   3864     1  0.0000000  0.6508444  3
   3871   3867   3873   3874     1  0.0000000  0.6973333  3
   3871   3867   3853   3875     1  0.0000000  1.0460000  1
   3871   3867   3853   3875     1  0.0000000  0.0000000  3
   3872   3867   3873   3874     1  0.0000000  0.6973333  3
   3872   3867   3853   3875     1  0.0000000  1.0460000  1
   3872   3867   3853   3875     1  0.0000000  0.0000000  3
   3876   3877   3880   3884     1  0.0000000  0.6508444  3
   3876   3877   3889   3892     1  0.0000000  1.0460000  1
   3876   3877   3889   3892     1  0.0000000  0.6694400  3
   3876   3890   3896   3897     1  0.0000000  1.0460000  1
   3876   3890   3896   3897     1  0.0000000  0.6694400  3
   3876   3898   3882   3885     1  0.0000000  1.6038667  3
   3877   3876   3890   3894     1  0.0000000  0.6508444  3
   3877   3876   3890   3895     1  0.0000000  0.6508444  3
   3877   3880   3881   3883     1  0.0000000  0.6508444  3
   3877   3880   3888   3891     1  0.0000000  1.0460000  1
   3877   3880   3888   3891     1  0.0000000  0.6694400  3
   3878   3876   3877   3880     1  0.0000000  0.6508444  3
   3878   3876   3877   3889     1  0.0000000  1.0460000  1
   3878   3876   3877   3889     1  0.0000000  0.0000000  3
   3878   3876   3877   3879     1  0.0000000  0.6508444  3
   3878   3876   3890   3896     1  0.0000000  1.0460000  1
   3878   3876   3890   3896     1  0.0000000  0.0000000  3
   3878   3876   3890   3894     1  0.0000000  0.6508444  3
   3878   3876   3890   3895     1  0.0000000  0.6508444  3
   3878   3876   3898   3882     1  0.0000000  1.6038667  3
   3879   3877   3876   3890     1  0.0000000  0.6508444  3
   3879   3877   3876   3898     1  0.0000000  1.0460000  1
   3879   3877   3876   3898     1  0.0000000  0.0000000  3
   3879   3877   3880   3881     1  0.0000000  0.6508444  3
   3879   3877   3880   3888     1  0.0000000  1.0460000  1
   3879   3877   3880   3888     1  0.0000000  0.0000000  3
   3879   3877   3880   3884     1  0.0000000  0.6508444  3
   3879   3877   3889   3892     1  0.0000000  0.6973333  3
   3880   3877   3889   3892     1  0.0000000  1.0460000  1
   3880   3877   3889   3892     1  0.0000000  0.6694400  3
   3880   3881   3882   3885     1  0.0000000  0.6508444  3
   3880   3881   3887   3893     1  0.0000000  1.0460000  1
   3880   3881   3887   3893     1  0.0000000  0.6694400  3
   3881   3880   3888   3891     1  0.0000000  1.0460000  1
   3881   3880   3888   3891     1  0.0000000  0.6694400  3
   3882   3881   3880   3884     1  0.0000000  0.6508444  3
   3882   3881   3887   3893     1  0.0000000  1.0460000  1
   3882   3881   3887   3893     1  0.0000000  0.6694400  3
   3883   3881   3880   3888     1  0.0000000  1.0460000  1
   3883   3881   3880   3888     1  0.0000000  0.0000000  3
   3883   3881   3880   3884     1  0.0000000  0.6508444  3
   3883   3881   3882   3886     1  0.0000000  1.0460000  1
   3883   3881   3882   3886     1  0.0000000  0.0000000  3
   3883   3881   3882   3898     1  0.0000000  1.0460000  1
   3883   3881   3882   3898     1  0.0000000  0.0000000  3
   3883   3881   3882   3885     1  0.0000000  0.6508444  3
   3883   3881   3887   3893     1  0.0000000  0.6973333  3
   3884   3880   3877   3889     1  0.0000000  1.0460000  1
   3884   3880   3877   3889     1  0.0000000  0.0000000  3
   3884   3880   3881   3887     1  0.0000000  1.0460000  1
   3884   3880   3881   3887     1  0.0000000  0.0000000  3
   3884   3880   3888   3891     1  0.0000000  0.6973333  3
   3885   3882   3881   3887     1  0.0000000  0.6508444  3
   3894   3890   3876   3898     1  0.0000000  1.0460000  1
   3894   3890   3876   3898     1  0.0000000  0.0000000  3
   3894   3890   3896   3897     1  0.0000000  0.6973333  3
   3895   3890   3876   3898     1  0.0000000  1.0460000  1
   3895   3890   3876   3898     1  0.0000000  0.0000000  3
   3895   3890   3896   3897     1  0.0000000  0.6973333  3
   3899   3900   3903   3907     1  0.0000000  0.6508444  3
   3899   3900   3912   3915     1  0.0000000  1.0460000  1
   3899   3900   3912   3915     1  0.0000000  0.6694400  3
   3899   3913   3919   3920     1  0.0000000  1.0460000  1
   3899   3913   3919   3920     1  0.0000000  0.6694400  3
   3899   3921   3905   3908     1  0.0000000  1.6038667  3
   3900   3903   3904   3906     1  0.0000000  0.6508444  3
   3900   3903   3911   3914     1  0.0000000  1.0460000  1
   3900   3903   3911   3914     1  0.0000000  0.6694400  3
   3900   3899   3913   3917     1  0.0000000  0.6508444  3
   3900   3899   3913   3918     1  0.0000000  0.6508444  3
   3901   3899   3900   3903     1  0.0000000  0.6508444  3
   3901   3899   3900   3912     1  0.0000000  1.0460000  1
   3901   3899   3900   3912     1  0.0000000  0.0000000  3
   3901   3899   3900   3902     1  0.0000000  0.6508444  3
   3901   3899   3913   3919     1  0.0000000  1.0460000  1
   3901   3899   3913   3919     1  0.0000000  0.0000000  3
   3901   3899   3913   3917     1  0.0000000  0.6508444  3
   3901   3899   3913   3918     1  0.0000000  0.6508444  3
   3901   3899   3921   3905     1  0.0000000  1.6038667  3
   3902   3900   3903   3904     1  0.0000000  0.6508444  3
   3902   3900   3903   3911     1  0.0000000  1.0460000  1
   3902   3900   3903   3911     1  0.0000000  0.0000000  3
   3902   3900   3903   3907     1  0.0000000  0.6508444  3
   3902   3900   3912   3915     1  0.0000000  0.6973333  3
   3902   3900   3899   3913     1  0.0000000  0.6508444  3
   3902   3900   3899   3921     1  0.0000000  1.0460000  1
   3902   3900   3899   3921     1  0.0000000  0.0000000  3
   3903   3904   3905   3908     1  0.0000000  0.6508444  3
   3903   3904   3910   3916     1  0.0000000  1.0460000  1
   3903   3904   3910   3916     1  0.0000000  0.6694400  3
   3903   3900   3912   3915     1  0.0000000  1.0460000  1
   3903   3900   3912   3915     1  0.0000000  0.6694400  3
   3904   3903   3911   3914     1  0.0000000  1.0460000  1
   3904   3903   3911   3914     1  0.0000000  0.6694400  3
   3905   3904   3910   3916     1  0.0000000  1.0460000  1
   3905   3904   3910   3916     1  0.0000000  0.6694400  3
   3905   3904   3903   3907     1  0.0000000  0.6508444  3
   3906   3904   3905   3909     1  0.0000000  1.0460000  1
   3906   3904   3905   3909     1  0.0000000  0.0000000  3
   3906   3904   3905   3921     1  0.0000000  1.0460000  1
   3906   3904   3905   3921     1  0.0000000  0.0000000  3
   3906   3904   3905   3908     1  0.0000000  0.6508444  3
   3906   3904   3910   3916     1  0.0000000  0.6973333  3
   3906   3904   3903   3911     1  0.0000000  1.0460000  1
   3906   3904   3903   3911     1  0.0000000  0.0000000  3
   3906   3904   3903   3907     1  0.0000000  0.6508444  3
   3907   3903   3904   3910     1  0.0000000  1.0460000  1
   3907   3903   3904   3910     1  0.0000000  0.0000000  3
   3907   3903   3911   3914     1  0.0000000  0.6973333  3
   3907   3903   3900   3912     1  0.0000000  1.0460000  1
   3907   3903   3900   3912     1  0.0000000  0.0000000  3
   3908   3905   3904   3910     1  0.0000000  0.6508444  3
   3917   3913   3919   3920     1  0.0000000  0.6973333  3
   3917   3913   3899   3921     1  0.0000000  1.0460000  1
   3917   3913   3899   3921     1  0.0000000  0.0000000  3
   3918   3913   3919   3920     1  0.0000000  0.6973333  3
   3918   3913   3899   3921     1  0.0000000  1.0460000  1
   3918   3913   3899   3921     1  0.0000000  0.0000000  3
   3922   3923   3926   3930     1  0.0000000  0.6508444  3
   3922   3923   3935   3938     1  0.0000000  1.0460000  1
   3922   3923   3935   3938     1  0.0000000  0.6694400  3
   3922   3936   3942   3943     1  0.0000000  1.0460000  1
   3922   3936   3942   3943     1  0.0000000  0.6694400  3
   3922   3944   3928   3931     1  0.0000000  1.6038667  3
   3923   3922   3936   3940     1  0.0000000  0.6508444  3
   3923   3922   3936   3941     1  0.0000000  0.6508444  3
   3923   3926   3927   3929     1  0.0000000  0.6508444  3
   3923   3926   3934   3937     1  0.0000000  1.0460000  1
   3923   3926   3934   3937     1  0.0000000  0.6694400  3
   3924   3922   3923   3926     1  0.0000000  0.6508444  3
   3924   3922   3923   3935     1  0.0000000  1.0460000  1
   3924   3922   3923   3935     1  0.0000000  0.0000000  3
   3924   3922   3923   3925     1  0.0000000  0.6508444  3
   3924   3922   3936   3942     1  0.0000000  1.0460000  1
   3924   3922   3936   3942     1  0.0000000  0.0000000  3
   3924   3922   3936   3940     1  0.0000000  0.6508444  3
   3924   3922   3936   3941     1  0.0000000  0.6508444  3
   3924   3922   3944   3928     1  0.0000000  1.6038667  3
   3925   3923   3922   3936     1  0.0000000  0.6508444  3
   3925   3923   3922   3944     1  0.0000000  1.0460000  1
   3925   3923   3922   3944     1  0.0000000  0.0000000  3
   3925   3923   3926   3927     1  0.0000000  0.6508444  3
   3925   3923   3926   3934     1  0.0000000  1.0460000  1
   3925   3923   3926   3934     1  0.0000000  0.0000000  3
   3925   3923   3926   3930     1  0.0000000  0.6508444  3
   3925   3923   3935   3938     1  0.0000000  0.6973333  3
   3926   3923   3935   3938     1  0.0000000  1.0460000  1
   3926   3923   3935   3938     1  0.0000000  0.6694400  3
   3926   3927   3928   3931     1  0.0000000  0.6508444  3
   3926   3927   3933   3939     1  0.0000000  1.0460000  1
   3926   3927   3933   3939     1  0.0000000  0.6694400  3
   3927   3926   3934   3937     1  0.0000000  1.0460000  1
   3927   3926   3934   3937     1  0.0000000  0.6694400  3
   3928   3927   3926   3930     1  0.0000000  0.6508444  3
   3928   3927   3933   3939     1  0.0000000  1.0460000  1
   3928   3927   3933   3939     1  0.0000000  0.6694400  3
   3929   3927   3926   3934     1  0.0000000  1.0460000  1
   3929   3927   3926   3934     1  0.0000000  0.0000000  3
   3929   3927   3926   3930     1  0.0000000  0.6508444  3
   3929   3927   3928   3932     1  0.0000000  1.0460000  1
   3929   3927   3928   3932     1  0.0000000  0.0000000  3
   3929   3927   3928   3944     1  0.0000000  1.0460000  1
   3929   3927   3928   3944     1  0.0000000  0.0000000  3
   3929   3927   3928   3931     1  0.0000000  0.6508444  3
   3929   3927   3933   3939     1  0.0000000  0.6973333  3
   3930   3926   3923   3935     1  0.0000000  1.0460000  1
   3930   3926   3923   3935     1  0.0000000  0.0000000  3
   3930   3926   3927   3933     1  0.0000000  1.0460000  1
   3930   3926   3927   3933     1  0.0000000  0.0000000  3
   3930   3926   3934   3937     1  0.0000000  0.6973333  3
   3931   3928   3927   3933     1  0.0000000  0.6508444  3
   3940   3936   3922   3944     1  0.0000000  1.0460000  1
   3940   3936   3922   3944     1  0.0000000  0.0000000  3
   3940   3936   3942   3943     1  0.0000000  0.6973333  3
   3941   3936   3922   3944     1  0.0000000  1.0460000  1
   3941   3936   3922   3944     1  0.0000000  0.0000000  3
   3941   3936   3942   3943     1  0.0000000  0.6973333  3
   3945   3946   3949   3953     1  0.0000000  0.6508444  3
   3945   3946   3958   3961     1  0.0000000  1.0460000  1
   3945   3946   3958   3961     1  0.0000000  0.6694400  3
   3945   3959   3965   3966     1  0.0000000  1.0460000  1
   3945   3959   3965   3966     1  0.0000000  0.6694400  3
   3945   3967   3951   3954     1  0.0000000  1.6038667  3
   3946   3949   3950   3952     1  0.0000000  0.6508444  3
   3946   3949   3957   3960     1  0.0000000  1.0460000  1
   3946   3949   3957   3960     1  0.0000000  0.6694400  3
   3946   3945   3959   3963     1  0.0000000  0.6508444  3
   3946   3945   3959   3964     1  0.0000000  0.6508444  3
   3947   3945   3946   3949     1  0.0000000  0.6508444  3
   3947   3945   3946   3958     1  0.0000000  1.0460000  1
   3947   3945   3946   3958     1  0.0000000  0.0000000  3
   3947   3945   3946   3948     1  0.0000000  0.6508444  3
   3947   3945   3959   3965     1  0.0000000  1.0460000  1
   3947   3945   3959   3965     1  0.0000000  0.0000000  3
   3947   3945   3959   3963     1  0.0000000  0.6508444  3
   3947   3945   3959   3964     1  0.0000000  0.6508444  3
   3947   3945   3967   3951     1  0.0000000  1.6038667  3
   3948   3946   3949   3950     1  0.0000000  0.6508444  3
   3948   3946   3949   3957     1  0.0000000  1.0460000  1
   3948   3946   3949   3957     1  0.0000000  0.0000000  3
   3948   3946   3949   3953     1  0.0000000  0.6508444  3
   3948   3946   3958   3961     1  0.0000000  0.6973333  3
   3948   3946   3945   3959     1  0.0000000  0.6508444  3
   3948   3946   3945   3967     1  0.0000000  1.0460000  1
   3948   3946   3945   3967     1  0.0000000  0.0000000  3
   3949   3950   3951   3954     1  0.0000000  0.6508444  3
   3949   3950   3956   3962     1  0.0000000  1.0460000  1
   3949   3950   3956   3962     1  0.0000000  0.6694400  3
   3949   3946   3958   3961     1  0.0000000  1.0460000  1
   3949   3946   3958   3961     1  0.0000000  0.6694400  3
   3950   3949   3957   3960     1  0.0000000  1.0460000  1
   3950   3949   3957   3960     1  0.0000000  0.6694400  3
   3951   3950   3956   3962     1  0.0000000  1.0460000  1
   3951   3950   3956   3962     1  0.0000000  0.6694400  3
   3951   3950   3949   3953     1  0.0000000  0.6508444  3
   3952   3950   3951   3955     1  0.0000000  1.0460000  1
   3952   3950   3951   3955     1  0.0000000  0.0000000  3
   3952   3950   3951   3967     1  0.0000000  1.0460000  1
   3952   3950   3951   3967     1  0.0000000  0.0000000  3
   3952   3950   3951   3954     1  0.0000000  0.6508444  3
   3952   3950   3956   3962     1  0.0000000  0.6973333  3
   3952   3950   3949   3957     1  0.0000000  1.0460000  1
   3952   3950   3949   3957     1  0.0000000  0.0000000  3
   3952   3950   3949   3953     1  0.0000000  0.6508444  3
   3953   3949   3950   3956     1  0.0000000  1.0460000  1
   3953   3949   3950   3956     1  0.0000000  0.0000000  3
   3953   3949   3957   3960     1  0.0000000  0.6973333  3
   3953   3949   3946   3958     1  0.0000000  1.0460000  1
   3953   3949   3946   3958     1  0.0000000  0.0000000  3
   3954   3951   3950   3956     1  0.0000000  0.6508444  3
   3963   3959   3965   3966     1  0.0000000  0.6973333  3
   3963   3959   3945   3967     1  0.0000000  1.0460000  1
   3963   3959   3945   3967     1  0.0000000  0.0000000  3
   3964   3959   3965   3966     1  0.0000000  0.6973333  3
   3964   3959   3945   3967     1  0.0000000  1.0460000  1
   3964   3959   3945   3967     1  0.0000000  0.0000000  3
   3968   3969   3972   3976     1  0.0000000  0.6508444  3
   3968   3969   3981   3984     1  0.0000000  1.0460000  1
   3968   3969   3981   3984     1  0.0000000  0.6694400  3
   3968   3982   3988   3989     1  0.0000000  1.0460000  1
   3968   3982   3988   3989     1  0.0000000  0.6694400  3
   3968   3990   3974   3977     1  0.0000000  1.6038667  3
   3969   3968   3982   3986     1  0.0000000  0.6508444  3
   3969   3968   3982   3987     1  0.0000000  0.6508444  3
   3969   3972   3973   3975     1  0.0000000  0.6508444  3
   3969   3972   3980   3983     1  0.0000000  1.0460000  1
   3969   3972   3980   3983     1  0.0000000  0.6694400  3
   3970   3968   3969   3972     1  0.0000000  0.6508444  3
   3970   3968   3969   3981     1  0.0000000  1.0460000  1
   3970   3968   3969   3981     1  0.0000000  0.0000000  3
   3970   3968   3969   3971     1  0.0000000  0.6508444  3
   3970   3968   3982   3988     1  0.0000000  1.0460000  1
   3970   3968   3982   3988     1  0.0000000  0.0000000  3
   3970   3968   3982   3986     1  0.0000000  0.6508444  3
   3970   3968   3982   3987     1  0.0000000  0.6508444  3
   3970   3968   3990   3974     1  0.0000000  1.6038667  3
   3971   3969   3968   3982     1  0.0000000  0.6508444  3
   3971   3969   3968   3990     1  0.0000000  1.0460000  1
   3971   3969   3968   3990     1  0.0000000  0.0000000  3
   3971   3969   3972   3973     1  0.0000000  0.6508444  3
   3971   3969   3972   3980     1  0.0000000  1.0460000  1
   3971   3969   3972   3980     1  0.0000000  0.0000000  3
   3971   3969   3972   3976     1  0.0000000  0.6508444  3
   3971   3969   3981   3984     1  0.0000000  0.6973333  3
   3972   3969   3981   3984     1  0.0000000  1.0460000  1
   3972   3969   3981   3984     1  0.0000000  0.6694400  3
   3972   3973   3974   3977     1  0.0000000  0.6508444  3
   3972   3973   3979   3985     1  0.0000000  1.0460000  1
   3972   3973   3979   3985     1  0.0000000  0.6694400  3
   3973   3972   3980   3983     1  0.0000000  1.0460000  1
   3973   3972   3980   3983     1  0.0000000  0.6694400  3
   3974   3973   3972   3976     1  0.0000000  0.6508444  3
   3974   3973   3979   3985     1  0.0000000  1.0460000  1
   3974   3973   3979   3985     1  0.0000000  0.6694400  3
   3975   3973   3972   3980     1  0.0000000  1.0460000  1
   3975   3973   3972   3980     1  0.0000000  0.0000000  3
   3975   3973   3972   3976     1  0.0000000  0.6508444  3
   3975   3973   3974   3978     1  0.0000000  1.0460000  1
   3975   3973   3974   3978     1  0.0000000  0.0000000  3
   3975   3973   3974   3990     1  0.0000000  1.0460000  1
   3975   3973   3974   3990     1  0.0000000  0.0000000  3
   3975   3973   3974   3977     1  0.0000000  0.6508444  3
   3975   3973   3979   3985     1  0.0000000  0.6973333  3
   3976   3972   3969   3981     1  0.0000000  1.0460000  1
   3976   3972   3969   3981     1  0.0000000  0.0000000  3
   3976   3972   3973   3979     1  0.0000000  1.0460000  1
   3976   3972   3973   3979     1  0.0000000  0.0000000  3
   3976   3972   3980   3983     1  0.0000000  0.6973333  3
   3977   3974   3973   3979     1  0.0000000  0.6508444  3
   3986   3982   3968   3990     1  0.0000000  1.0460000  1
   3986   3982   3968   3990     1  0.0000000  0.0000000  3
   3986   3982   3988   3989     1  0.0000000  0.6973333  3
   3987   3982   3968   3990     1  0.0000000  1.0460000  1
   3987   3982   3968   3990     1  0.0000000  0.0000000  3
   3987   3982   3988   3989     1  0.0000000  0.6973333  3
   3991   3992   3995   3999     1  0.0000000  0.6508444  3
   3991   3992   4004   4007     1  0.0000000  1.0460000  1
   3991   3992   4004   4007     1  0.0000000  0.6694400  3
   3991   4005   4011   4012     1  0.0000000  1.0460000  1
   3991   4005   4011   4012     1  0.0000000  0.6694400  3
   3991   4013   3997   4000     1  0.0000000  1.6038667  3
   3992   3995   3996   3998     1  0.0000000  0.6508444  3
   3992   3995   4003   4006     1  0.0000000  1.0460000  1
   3992   3995   4003   4006     1  0.0000000  0.6694400  3
   3992   3991   4005   4009     1  0.0000000  0.6508444  3
   3992   3991   4005   4010     1  0.0000000  0.6508444  3
   3993   3991   3992   3995     1  0.0000000  0.6508444  3
   3993   3991   3992   4004     1  0.0000000  1.0460000  1
   3993   3991   3992   4004     1  0.0000000  0.0000000  3
   3993   3991   3992   3994     1  0.0000000  0.6508444  3
   3993   3991   4005   4011     1  0.0000000  1.0460000  1
   3993   3991   4005   4011     1  0.0000000  0.0000000  3
   3993   3991   4005   4009     1  0.0000000  0.6508444  3
   3993   3991   4005   4010     1  0.0000000  0.6508444  3
   3993   3991   4013   3997     1  0.0000000  1.6038667  3
   3994   3992   3995   3996     1  0.0000000  0.6508444  3
   3994   3992   3995   4003     1  0.0000000  1.0460000  1
   3994   3992   3995   4003     1  0.0000000  0.0000000  3
   3994   3992   3995   3999     1  0.0000000  0.6508444  3
   3994   3992   4004   4007     1  0.0000000  0.6973333  3
   3994   3992   3991   4005     1  0.0000000  0.6508444  3
   3994   3992   3991   4013     1  0.0000000  1.0460000  1
   3994   3992   3991   4013     1  0.0000000  0.0000000  3
   3995   3996   3997   4000     1  0.0000000  0.6508444  3
   3995   3996   4002   4008     1  0.0000000  1.0460000  1
   3995   3996   4002   4008     1  0.0000000  0.6694400  3
   3995   3992   4004   4007     1  0.0000000  1.0460000  1
   3995   3992   4004   4007     1  0.0000000  0.6694400  3
   3996   3995   4003   4006     1  0.0000000  1.0460000  1
   3996   3995   4003   4006     1  0.0000000  0.6694400  3
   3997   3996   4002   4008     1  0.0000000  1.0460000  1
   3997   3996   4002   4008     1  0.0000000  0.6694400  3
   3997   3996   3995   3999     1  0.0000000  0.6508444  3
   3998   3996   3997   4001     1  0.0000000  1.0460000  1
   3998   3996   3997   4001     1  0.0000000  0.0000000  3
   3998   3996   3997   4013     1  0.0000000  1.0460000  1
   3998   3996   3997   4013     1  0.0000000  0.0000000  3
   3998   3996   3997   4000     1  0.0000000  0.6508444  3
   3998   3996   4002   4008     1  0.0000000  0.6973333  3
   3998   3996   3995   4003     1  0.0000000  1.0460000  1
   3998   3996   3995   4003     1  0.0000000  0.0000000  3
   3998   3996   3995   3999     1  0.0000000  0.6508444  3
   3999   3995   3996   4002     1  0.0000000  1.0460000  1
   3999   3995   3996   4002     1  0.0000000  0.0000000  3
   3999   3995   4003   4006     1  0.0000000  0.6973333  3
   3999   3995   3992   4004     1  0.0000000  1.0460000  1
   3999   3995   3992   4004     1  0.0000000  0.0000000  3
   4000   3997   3996   4002     1  0.0000000  0.6508444  3
   4009   4005   4011   4012     1  0.0000000  0.6973333  3
   4009   4005   3991   4013     1  0.0000000  1.0460000  1
   4009   4005   3991   4013     1  0.0000000  0.0000000  3
   4010   4005   4011   4012     1  0.0000000  0.6973333  3
   4010   4005   3991   4013     1  0.0000000  1.0460000  1
   4010   4005   3991   4013     1  0.0000000  0.0000000  3
   4014   4015   4018   4022     1  0.0000000  0.6508444  3
   4014   4015   4027   4030     1  0.0000000  1.0460000  1
   4014   4015   4027   4030     1  0.0000000  0.6694400  3
   4014   4028   4034   4035     1  0.0000000  1.0460000  1
   4014   4028   4034   4035     1  0.0000000  0.6694400  3
   4014   4036   4020   4023     1  0.0000000  1.6038667  3
   4015   4014   4028   4032     1  0.0000000  0.6508444  3
   4015   4014   4028   4033     1  0.0000000  0.6508444  3
   4015   4018   4019   4021     1  0.0000000  0.6508444  3
   4015   4018   4026   4029     1  0.0000000  1.0460000  1
   4015   4018   4026   4029     1  0.0000000  0.6694400  3
   4016   4014   4015   4018     1  0.0000000  0.6508444  3
   4016   4014   4015   4027     1  0.0000000  1.0460000  1
   4016   4014   4015   4027     1  0.0000000  0.0000000  3
   4016   4014   4015   4017     1  0.0000000  0.6508444  3
   4016   4014   4028   4034     1  0.0000000  1.0460000  1
   4016   4014   4028   4034     1  0.0000000  0.0000000  3
   4016   4014   4028   4032     1  0.0000000  0.6508444  3
   4016   4014   4028   4033     1  0.0000000  0.6508444  3
   4016   4014   4036   4020     1  0.0000000  1.6038667  3
   4017   4015   4014   4028     1  0.0000000  0.6508444  3
   4017   4015   4014   4036     1  0.0000000  1.0460000  1
   4017   4015   4014   4036     1  0.0000000  0.0000000  3
   4017   4015   4018   4019     1  0.0000000  0.6508444  3
   4017   4015   4018   4026     1  0.0000000  1.0460000  1
   4017   4015   4018   4026     1  0.0000000  0.0000000  3
   4017   4015   4018   4022     1  0.0000000  0.6508444  3
   4017   4015   4027   4030     1  0.0000000  0.6973333  3
   4018   4015   4027   4030     1  0.0000000  1.0460000  1
   4018   4015   4027   4030     1  0.0000000  0.6694400  3
   4018   4019   4020   4023     1  0.0000000  0.6508444  3
   4018   4019   4025   4031     1  0.0000000  1.0460000  1
   4018   4019   4025   4031     1  0.0000000  0.6694400  3
   4019   4018   4026   4029     1  0.0000000  1.0460000  1
   4019   4018   4026   4029     1  0.0000000  0.6694400  3
   4020   4019   4018   4022     1  0.0000000  0.6508444  3
   4020   4019   4025   4031     1  0.0000000  1.0460000  1
   4020   4019   4025   4031     1  0.0000000  0.6694400  3
   4021   4019   4018   4026     1  0.0000000  1.0460000  1
   4021   4019   4018   4026     1  0.0000000  0.0000000  3
   4021   4019   4018   4022     1  0.0000000  0.6508444  3
   4021   4019   4020   4024     1  0.0000000  1.0460000  1
   4021   4019   4020   4024     1  0.0000000  0.0000000  3
   4021   4019   4020   4036     1  0.0000000  1.0460000  1
   4021   4019   4020   4036     1  0.0000000  0.0000000  3
   4021   4019   4020   4023     1  0.0000000  0.6508444  3
   4021   4019   4025   4031     1  0.0000000  0.6973333  3
   4022   4018   4015   4027     1  0.0000000  1.0460000  1
   4022   4018   4015   4027     1  0.0000000  0.0000000  3
   4022   4018   4019   4025     1  0.0000000  1.0460000  1
   4022   4018   4019   4025     1  0.0000000  0.0000000  3
   4022   4018   4026   4029     1  0.0000000  0.6973333  3
   4023   4020   4019   4025     1  0.0000000  0.6508444  3
   4032   4028   4014   4036     1  0.0000000  1.0460000  1
   4032   4028   4014   4036     1  0.0000000  0.0000000  3
   4032   4028   4034   4035     1  0.0000000  0.6973333  3
   4033   4028   4014   4036     1  0.0000000  1.0460000  1
   4033   4028   4014   4036     1  0.0000000  0.0000000  3
   4033   4028   4034   4035     1  0.0000000  0.6973333  3
   4037   4038   4041   4045     1  0.0000000  0.6508444  3
   4037   4038   4050   4053     1  0.0000000  1.0460000  1
   4037   4038   4050   4053     1  0.0000000  0.6694400  3
   4037   4051   4057   4058     1  0.0000000  1.0460000  1
   4037   4051   4057   4058     1  0.0000000  0.6694400  3
   4037   4059   4043   4046     1  0.0000000  1.6038667  3
   4038   4041   4042   4044     1  0.0000000  0.6508444  3
   4038   4041   4049   4052     1  0.0000000  1.0460000  1
   4038   4041   4049   4052     1  0.0000000  0.6694400  3
   4038   4037   4051   4055     1  0.0000000  0.6508444  3
   4038   4037   4051   4056     1  0.0000000  0.6508444  3
   4039   4037   4038   4041     1  0.0000000  0.6508444  3
   4039   4037   4038   4050     1  0.0000000  1.0460000  1
   4039   4037   4038   4050     1  0.0000000  0.0000000  3
   4039   4037   4038   4040     1  0.0000000  0.6508444  3
   4039   4037   4051   4057     1  0.0000000  1.0460000  1
   4039   4037   4051   4057     1  0.0000000  0.0000000  3
   4039   4037   4051   4055     1  0.0000000  0.6508444  3
   4039   4037   4051   4056     1  0.0000000  0.6508444  3
   4039   4037   4059   4043     1  0.0000000  1.6038667  3
   4040   4038   4041   4042     1  0.0000000  0.6508444  3
   4040   4038   4041   4049     1  0.0000000  1.0460000  1
   4040   4038   4041   4049     1  0.0000000  0.0000000  3
   4040   4038   4041   4045     1  0.0000000  0.6508444  3
   4040   4038   4050   4053     1  0.0000000  0.6973333  3
   4040   4038   4037   4051     1  0.0000000  0.6508444  3
   4040   4038   4037   4059     1  0.0000000  1.0460000  1
   4040   4038   4037   4059     1  0.0000000  0.0000000  3
   4041   4042   4043   4046     1  0.0000000  0.6508444  3
   4041   4042   4048   4054     1  0.0000000  1.0460000  1
   4041   4042   4048   4054     1  0.0000000  0.6694400  3
   4041   4038   4050   4053     1  0.0000000  1.0460000  1
   4041   4038   4050   4053     1  0.0000000  0.6694400  3
   4042   4041   4049   4052     1  0.0000000  1.0460000  1
   4042   4041   4049   4052     1  0.0000000  0.6694400  3
   4043   4042   4048   4054     1  0.0000000  1.0460000  1
   4043   4042   4048   4054     1  0.0000000  0.6694400  3
   4043   4042   4041   4045     1  0.0000000  0.6508444  3
   4044   4042   4043   4047     1  0.0000000  1.0460000  1
   4044   4042   4043   4047     1  0.0000000  0.0000000  3
   4044   4042   4043   4059     1  0.0000000  1.0460000  1
   4044   4042   4043   4059     1  0.0000000  0.0000000  3
   4044   4042   4043   4046     1  0.0000000  0.6508444  3
   4044   4042   4048   4054     1  0.0000000  0.6973333  3
   4044   4042   4041   4049     1  0.0000000  1.0460000  1
   4044   4042   4041   4049     1  0.0000000  0.0000000  3
   4044   4042   4041   4045     1  0.0000000  0.6508444  3
   4045   4041   4042   4048     1  0.0000000  1.0460000  1
   4045   4041   4042   4048     1  0.0000000  0.0000000  3
   4045   4041   4049   4052     1  0.0000000  0.6973333  3
   4045   4041   4038   4050     1  0.0000000  1.0460000  1
   4045   4041   4038   4050     1  0.0000000  0.0000000  3
   4046   4043   4042   4048     1  0.0000000  0.6508444  3
   4055   4051   4057   4058     1  0.0000000  0.6973333  3
   4055   4051   4037   4059     1  0.0000000  1.0460000  1
   4055   4051   4037   4059     1  0.0000000  0.0000000  3
   4056   4051   4057   4058     1  0.0000000  0.6973333  3
   4056   4051   4037   4059     1  0.0000000  1.0460000  1
   4056   4051   4037   4059     1  0.0000000  0.0000000  3
   4060   4061   4064   4068     1  0.0000000  0.6508444  3
   4060   4061   4073   4076     1  0.0000000  1.0460000  1
   4060   4061   4073   4076     1  0.0000000  0.6694400  3
   4060   4074   4080   4081     1  0.0000000  1.0460000  1
   4060   4074   4080   4081     1  0.0000000  0.6694400  3
   4060   4082   4066   4069     1  0.0000000  1.6038667  3
   4061   4060   4074   4078     1  0.0000000  0.6508444  3
   4061   4060   4074   4079     1  0.0000000  0.6508444  3
   4061   4064   4065   4067     1  0.0000000  0.6508444  3
   4061   4064   4072   4075     1  0.0000000  1.0460000  1
   4061   4064   4072   4075     1  0.0000000  0.6694400  3
   4062   4060   4061   4064     1  0.0000000  0.6508444  3
   4062   4060   4061   4073     1  0.0000000  1.0460000  1
   4062   4060   4061   4073     1  0.0000000  0.0000000  3
   4062   4060   4061   4063     1  0.0000000  0.6508444  3
   4062   4060   4074   4080     1  0.0000000  1.0460000  1
   4062   4060   4074   4080     1  0.0000000  0.0000000  3
   4062   4060   4074   4078     1  0.0000000  0.6508444  3
   4062   4060   4074   4079     1  0.0000000  0.6508444  3
   4062   4060   4082   4066     1  0.0000000  1.6038667  3
   4063   4061   4060   4074     1  0.0000000  0.6508444  3
   4063   4061   4060   4082     1  0.0000000  1.0460000  1
   4063   4061   4060   4082     1  0.0000000  0.0000000  3
   4063   4061   4064   4065     1  0.0000000  0.6508444  3
   4063   4061   4064   4072     1  0.0000000  1.0460000  1
   4063   4061   4064   4072     1  0.0000000  0.0000000  3
   4063   4061   4064   4068     1  0.0000000  0.6508444  3
   4063   4061   4073   4076     1  0.0000000  0.6973333  3
   4064   4061   4073   4076     1  0.0000000  1.0460000  1
   4064   4061   4073   4076     1  0.0000000  0.6694400  3
   4064   4065   4066   4069     1  0.0000000  0.6508444  3
   4064   4065   4071   4077     1  0.0000000  1.0460000  1
   4064   4065   4071   4077     1  0.0000000  0.6694400  3
   4065   4064   4072   4075     1  0.0000000  1.0460000  1
   4065   4064   4072   4075     1  0.0000000  0.6694400  3
   4066   4065   4064   4068     1  0.0000000  0.6508444  3
   4066   4065   4071   4077     1  0.0000000  1.0460000  1
   4066   4065   4071   4077     1  0.0000000  0.6694400  3
   4067   4065   4064   4072     1  0.0000000  1.0460000  1
   4067   4065   4064   4072     1  0.0000000  0.0000000  3
   4067   4065   4064   4068     1  0.0000000  0.6508444  3
   4067   4065   4066   4070     1  0.0000000  1.0460000  1
   4067   4065   4066   4070     1  0.0000000  0.0000000  3
   4067   4065   4066   4082     1  0.0000000  1.0460000  1
   4067   4065   4066   4082     1  0.0000000  0.0000000  3
   4067   4065   4066   4069     1  0.0000000  0.6508444  3
   4067   4065   4071   4077     1  0.0000000  0.6973333  3
   4068   4064   4061   4073     1  0.0000000  1.0460000  1
   4068   4064   4061   4073     1  0.0000000  0.0000000  3
   4068   4064   4065   4071     1  0.0000000  1.0460000  1
   4068   4064   4065   4071     1  0.0000000  0.0000000  3
   4068   4064   4072   4075     1  0.0000000  0.6973333  3
   4069   4066   4065   4071     1  0.0000000  0.6508444  3
   4078   4074   4060   4082     1  0.0000000  1.0460000  1
   4078   4074   4060   4082     1  0.0000000  0.0000000  3
   4078   4074   4080   4081     1  0.0000000  0.6973333  3
   4079   4074   4060   4082     1  0.0000000  1.0460000  1
   4079   4074   4060   4082     1  0.0000000  0.0000000  3
   4079   4074   4080   4081     1  0.0000000  0.6973333  3
   4083   4084   4087   4091     1  0.0000000  0.6508444  3
   4083   4084   4096   4099     1  0.0000000  1.0460000  1
   4083   4084   4096   4099     1  0.0000000  0.6694400  3
   4083   4097   4103   4104     1  0.0000000  1.0460000  1
   4083   4097   4103   4104     1  0.0000000  0.6694400  3
   4083   4105   4089   4092     1  0.0000000  1.6038667  3
   4084   4087   4088   4090     1  0.0000000  0.6508444  3
   4084   4087   4095   4098     1  0.0000000  1.0460000  1
   4084   4087   4095   4098     1  0.0000000  0.6694400  3
   4084   4083   4097   4101     1  0.0000000  0.6508444  3
   4084   4083   4097   4102     1  0.0000000  0.6508444  3
   4085   4083   4084   4087     1  0.0000000  0.6508444  3
   4085   4083   4084   4096     1  0.0000000  1.0460000  1
   4085   4083   4084   4096     1  0.0000000  0.0000000  3
   4085   4083   4084   4086     1  0.0000000  0.6508444  3
   4085   4083   4097   4103     1  0.0000000  1.0460000  1
   4085   4083   4097   4103     1  0.0000000  0.0000000  3
   4085   4083   4097   4101     1  0.0000000  0.6508444  3
   4085   4083   4097   4102     1  0.0000000  0.6508444  3
   4085   4083   4105   4089     1  0.0000000  1.6038667  3
   4086   4084   4087   4088     1  0.0000000  0.6508444  3
   4086   4084   4087   4095     1  0.0000000  1.0460000  1
   4086   4084   4087   4095     1  0.0000000  0.0000000  3
   4086   4084   4087   4091     1  0.0000000  0.6508444  3
   4086   4084   4096   4099     1  0.0000000  0.6973333  3
   4086   4084   4083   4097     1  0.0000000  0.6508444  3
   4086   4084   4083   4105     1  0.0000000  1.0460000  1
   4086   4084   4083   4105     1  0.0000000  0.0000000  3
   4087   4088   4089   4092     1  0.0000000  0.6508444  3
   4087   4088   4094   4100     1  0.0000000  1.0460000  1
   4087   4088   4094   4100     1  0.0000000  0.6694400  3
   4087   4084   4096   4099     1  0.0000000  1.0460000  1
   4087   4084   4096   4099     1  0.0000000  0.6694400  3
   4088   4087   4095   4098     1  0.0000000  1.0460000  1
   4088   4087   4095   4098     1  0.0000000  0.6694400  3
   4089   4088   4094   4100     1  0.0000000  1.0460000  1
   4089   4088   4094   4100     1  0.0000000  0.6694400  3
   4089   4088   4087   4091     1  0.0000000  0.6508444  3
   4090   4088   4089   4093     1  0.0000000  1.0460000  1
   4090   4088   4089   4093     1  0.0000000  0.0000000  3
   4090   4088   4089   4105     1  0.0000000  1.0460000  1
   4090   4088   4089   4105     1  0.0000000  0.0000000  3
   4090   4088   4089   4092     1  0.0000000  0.6508444  3
   4090   4088   4094   4100     1  0.0000000  0.6973333  3
   4090   4088   4087   4095     1  0.0000000  1.0460000  1
   4090   4088   4087   4095     1  0.0000000  0.0000000  3
   4090   4088   4087   4091     1  0.0000000  0.6508444  3
   4091   4087   4088   4094     1  0.0000000  1.0460000  1
   4091   4087   4088   4094     1  0.0000000  0.0000000  3
   4091   4087   4095   4098     1  0.0000000  0.6973333  3
   4091   4087   4084   4096     1  0.0000000  1.0460000  1
   4091   4087   4084   4096     1  0.0000000  0.0000000  3
   4092   4089   4088   4094     1  0.0000000  0.6508444  3
   4101   4097   4103   4104     1  0.0000000  0.6973333  3
   4101   4097   4083   4105     1  0.0000000  1.0460000  1
   4101   4097   4083   4105     1  0.0000000  0.0000000  3
   4102   4097   4103   4104     1  0.0000000  0.6973333  3
   4102   4097   4083   4105     1  0.0000000  1.0460000  1
   4102   4097   4083   4105     1  0.0000000  0.0000000  3
   4106   4107   4110   4114     1  0.0000000  0.6508444  3
   4106   4107   4119   4122     1  0.0000000  1.0460000  1
   4106   4107   4119   4122     1  0.0000000  0.6694400  3
   4106   4120   4126   4127     1  0.0000000  1.0460000  1
   4106   4120   4126   4127     1  0.0000000  0.6694400  3
   4106   4128   4112   4115     1  0.0000000  1.6038667  3
   4107   4106   4120   4124     1  0.0000000  0.6508444  3
   4107   4106   4120   4125     1  0.0000000  0.6508444  3
   4107   4110   4111   4113     1  0.0000000  0.6508444  3
   4107   4110   4118   4121     1  0.0000000  1.0460000  1
   4107   4110   4118   4121     1  0.0000000  0.6694400  3
   4108   4106   4107   4110     1  0.0000000  0.6508444  3
   4108   4106   4107   4119     1  0.0000000  1.0460000  1
   4108   4106   4107   4119     1  0.0000000  0.0000000  3
   4108   4106   4107   4109     1  0.0000000  0.6508444  3
   4108   4106   4120   4126     1  0.0000000  1.0460000  1
   4108   4106   4120   4126     1  0.0000000  0.0000000  3
   4108   4106   4120   4124     1  0.0000000  0.6508444  3
   4108   4106   4120   4125     1  0.0000000  0.6508444  3
   4108   4106   4128   4112     1  0.0000000  1.6038667  3
   4109   4107   4106   4120     1  0.0000000  0.6508444  3
   4109   4107   4106   4128     1  0.0000000  1.0460000  1
   4109   4107   4106   4128     1  0.0000000  0.0000000  3
   4109   4107   4110   4111     1  0.0000000  0.6508444  3
   4109   4107   4110   4118     1  0.0000000  1.0460000  1
   4109   4107   4110   4118     1  0.0000000  0.0000000  3
   4109   4107   4110   4114     1  0.0000000  0.6508444  3
   4109   4107   4119   4122     1  0.0000000  0.6973333  3
   4110   4107   4119   4122     1  0.0000000  1.0460000  1
   4110   4107   4119   4122     1  0.0000000  0.6694400  3
   4110   4111   4112   4115     1  0.0000000  0.6508444  3
   4110   4111   4117   4123     1  0.0000000  1.0460000  1
   4110   4111   4117   4123     1  0.0000000  0.6694400  3
   4111   4110   4118   4121     1  0.0000000  1.0460000  1
   4111   4110   4118   4121     1  0.0000000  0.6694400  3
   4112   4111   4110   4114     1  0.0000000  0.6508444  3
   4112   4111   4117   4123     1  0.0000000  1.0460000  1
   4112   4111   4117   4123     1  0.0000000  0.6694400  3
   4113   4111   4110   4118     1  0.0000000  1.0460000  1
   4113   4111   4110   4118     1  0.0000000  0.0000000  3
   4113   4111   4110   4114     1  0.0000000  0.6508444  3
   4113   4111   4112   4116     1  0.0000000  1.0460000  1
   4113   4111   4112   4116     1  0.0000000  0.0000000  3
   4113   4111   4112   4128     1  0.0000000  1.0460000  1
   4113   4111   4112   4128     1  0.0000000  0.0000000  3
   4113   4111   4112   4115     1  0.0000000  0.6508444  3
   4113   4111   4117   4123     1  0.0000000  0.6973333  3
   4114   4110   4107   4119     1  0.0000000  1.0460000  1
   4114   4110   4107   4119     1  0.0000000  0.0000000  3
   4114   4110   4111   4117     1  0.0000000  1.0460000  1
   4114   4110   4111   4117     1  0.0000000  0.0000000  3
   4114   4110   4118   4121     1  0.0000000  0.6973333  3
   4115   4112   4111   4117     1  0.0000000  0.6508444  3
   4124   4120   4106   4128     1  0.0000000  1.0460000  1
   4124   4120   4106   4128     1  0.0000000  0.0000000  3
   4124   4120   4126   4127     1  0.0000000  0.6973333  3
   4125   4120   4106   4128     1  0.0000000  1.0460000  1
   4125   4120   4106   4128     1  0.0000000  0.0000000  3
   4125   4120   4126   4127     1  0.0000000  0.6973333  3
   4129   4130   4133   4137     1  0.0000000  0.6508444  3
   4129   4130   4142   4145     1  0.0000000  1.0460000  1
   4129   4130   4142   4145     1  0.0000000  0.6694400  3
   4129   4143   4149   4150     1  0.0000000  1.0460000  1
   4129   4143   4149   4150     1  0.0000000  0.6694400  3
   4129   4151   4135   4138     1  0.0000000  1.6038667  3
   4130   4133   4134   4136     1  0.0000000  0.6508444  3
   4130   4133   4141   4144     1  0.0000000  1.0460000  1
   4130   4133   4141   4144     1  0.0000000  0.6694400  3
   4130   4129   4143   4147     1  0.0000000  0.6508444  3
   4130   4129   4143   4148     1  0.0000000  0.6508444  3
   4131   4129   4130   4133     1  0.0000000  0.6508444  3
   4131   4129   4130   4142     1  0.0000000  1.0460000  1
   4131   4129   4130   4142     1  0.0000000  0.0000000  3
   4131   4129   4130   4132     1  0.0000000  0.6508444  3
   4131   4129   4143   4149     1  0.0000000  1.0460000  1
   4131   4129   4143   4149     1  0.0000000  0.0000000  3
   4131   4129   4143   4147     1  0.0000000  0.6508444  3
   4131   4129   4143   4148     1  0.0000000  0.6508444  3
   4131   4129   4151   4135     1  0.0000000  1.6038667  3
   4132   4130   4133   4134     1  0.0000000  0.6508444  3
   4132   4130   4133   4141     1  0.0000000  1.0460000  1
   4132   4130   4133   4141     1  0.0000000  0.0000000  3
   4132   4130   4133   4137     1  0.0000000  0.6508444  3
   4132   4130   4142   4145     1  0.0000000  0.6973333  3
   4132   4130   4129   4143     1  0.0000000  0.6508444  3
   4132   4130   4129   4151     1  0.0000000  1.0460000  1
   4132   4130   4129   4151     1  0.0000000  0.0000000  3
   4133   4134   4135   4138     1  0.0000000  0.6508444  3
   4133   4134   4140   4146     1  0.0000000  1.0460000  1
   4133   4134   4140   4146     1  0.0000000  0.6694400  3
   4133   4130   4142   4145     1  0.0000000  1.0460000  1
   4133   4130   4142   4145     1  0.0000000  0.6694400  3
   4134   4133   4141   4144     1  0.0000000  1.0460000  1
   4134   4133   4141   4144     1  0.0000000  0.6694400  3
   4135   4134   4140   4146     1  0.0000000  1.0460000  1
   4135   4134   4140   4146     1  0.0000000  0.6694400  3
   4135   4134   4133   4137     1  0.0000000  0.6508444  3
   4136   4134   4135   4139     1  0.0000000  1.0460000  1
   4136   4134   4135   4139     1  0.0000000  0.0000000  3
   4136   4134   4135   4151     1  0.0000000  1.0460000  1
   4136   4134   4135   4151     1  0.0000000  0.0000000  3
   4136   4134   4135   4138     1  0.0000000  0.6508444  3
   4136   4134   4140   4146     1  0.0000000  0.6973333  3
   4136   4134   4133   4141     1  0.0000000  1.0460000  1
   4136   4134   4133   4141     1  0.0000000  0.0000000  3
   4136   4134   4133   4137     1  0.0000000  0.6508444  3
   4137   4133   4134   4140     1  0.0000000  1.0460000  1
   4137   4133   4134   4140     1  0.0000000  0.0000000  3
   4137   4133   4141   4144     1  0.0000000  0.6973333  3
   4137   4133   4130   4142     1  0.0000000  1.0460000  1
   4137   4133   4130   4142     1  0.0000000  0.0000000  3
   4138   4135   4134   4140     1  0.0000000  0.6508444  3
   4147   4143   4149   4150     1  0.0000000  0.6973333  3
   4147   4143   4129   4151     1  0.0000000  1.0460000  1
   4147   4143   4129   4151     1  0.0000000  0.0000000  3
   4148   4143   4149   4150     1  0.0000000  0.6973333  3
   4148   4143   4129   4151     1  0.0000000  1.0460000  1
   4148   4143   4129   4151     1  0.0000000  0.0000000  3
   4152   4153   4156   4160     1  0.0000000  0.6508444  3
   4152   4153   4165   4168     1  0.0000000  1.0460000  1
   4152   4153   4165   4168     1  0.0000000  0.6694400  3
   4152   4166   4172   4173     1  0.0000000  1.0460000  1
   4152   4166   4172   4173     1  0.0000000  0.6694400  3
   4152   4174   4158   4161     1  0.0000000  1.6038667  3
   4153   4152   4166   4170     1  0.0000000  0.6508444  3
   4153   4152   4166   4171     1  0.0000000  0.6508444  3
   4153   4156   4157   4159     1  0.0000000  0.6508444  3
   4153   4156   4164   4167     1  0.0000000  1.0460000  1
   4153   4156   4164   4167     1  0.0000000  0.6694400  3
   4154   4152   4153   4156     1  0.0000000  0.6508444  3
   4154   4152   4153   4165     1  0.0000000  1.0460000  1
   4154   4152   4153   4165     1  0.0000000  0.0000000  3
   4154   4152   4153   4155     1  0.0000000  0.6508444  3
   4154   4152   4166   4172     1  0.0000000  1.0460000  1
   4154   4152   4166   4172     1  0.0000000  0.0000000  3
   4154   4152   4166   4170     1  0.0000000  0.6508444  3
   4154   4152   4166   4171     1  0.0000000  0.6508444  3
   4154   4152   4174   4158     1  0.0000000  1.6038667  3
   4155   4153   4152   4166     1  0.0000000  0.6508444  3
   4155   4153   4152   4174     1  0.0000000  1.0460000  1
   4155   4153   4152   4174     1  0.0000000  0.0000000  3
   4155   4153   4156   4157     1  0.0000000  0.6508444  3
   4155   4153   4156   4164     1  0.0000000  1.0460000  1
   4155   4153   4156   4164     1  0.0000000  0.0000000  3
   4155   4153   4156   4160     1  0.0000000  0.6508444  3
   4155   4153   4165   4168     1  0.0000000  0.6973333  3
   4156   4153   4165   4168     1  0.0000000  1.0460000  1
   4156   4153   4165   4168     1  0.0000000  0.6694400  3
   4156   4157   4158   4161     1  0.0000000  0.6508444  3
   4156   4157   4163   4169     1  0.0000000  1.0460000  1
   4156   4157   4163   4169     1  0.0000000  0.6694400  3
   4157   4156   4164   4167     1  0.0000000  1.0460000  1
   4157   4156   4164   4167     1  0.0000000  0.6694400  3
   4158   4157   4156   4160     1  0.0000000  0.6508444  3
   4158   4157   4163   4169     1  0.0000000  1.0460000  1
   4158   4157   4163   4169     1  0.0000000  0.6694400  3
   4159   4157   4156   4164     1  0.0000000  1.0460000  1
   4159   4157   4156   4164     1  0.0000000  0.0000000  3
   4159   4157   4156   4160     1  0.0000000  0.6508444  3
   4159   4157   4158   4162     1  0.0000000  1.0460000  1
   4159   4157   4158   4162     1  0.0000000  0.0000000  3
   4159   4157   4158   4174     1  0.0000000  1.0460000  1
   4159   4157   4158   4174     1  0.0000000  0.0000000  3
   4159   4157   4158   4161     1  0.0000000  0.6508444  3
   4159   4157   4163   4169     1  0.0000000  0.6973333  3
   4160   4156   4153   4165     1  0.0000000  1.0460000  1
   4160   4156   4153   4165     1  0.0000000  0.0000000  3
   4160   4156   4157   4163     1  0.0000000  1.0460000  1
   4160   4156   4157   4163     1  0.0000000  0.0000000  3
   4160   4156   4164   4167     1  0.0000000  0.6973333  3
   4161   4158   4157   4163     1  0.0000000  0.6508444  3
   4170   4166   4152   4174     1  0.0000000  1.0460000  1
   4170   4166   4152   4174     1  0.0000000  0.0000000  3
   4170   4166   4172   4173     1  0.0000000  0.6973333  3
   4171   4166   4152   4174     1  0.0000000  1.0460000  1
   4171   4166   4152   4174     1  0.0000000  0.0000000  3
   4171   4166   4172   4173     1  0.0000000  0.6973333  3
   4175   4176   4179   4183     1  0.0000000  0.6508444  3
   4175   4176   4188   4191     1  0.0000000  1.0460000  1
   4175   4176   4188   4191     1  0.0000000  0.6694400  3
   4175   4189   4195   4196     1  0.0000000  1.0460000  1
   4175   4189   4195   4196     1  0.0000000  0.6694400  3
   4175   4197   4181   4184     1  0.0000000  1.6038667  3
   4176   4179   4180   4182     1  0.0000000  0.6508444  3
   4176   4179   4187   4190     1  0.0000000  1.0460000  1
   4176   4179   4187   4190     1  0.0000000  0.6694400  3
   4176   4175   4189   4193     1  0.0000000  0.6508444  3
   4176   4175   4189   4194     1  0.0000000  0.6508444  3
   4177   4175   4176   4179     1  0.0000000  0.6508444  3
   4177   4175   4176   4188     1  0.0000000  1.0460000  1
   4177   4175   4176   4188     1  0.0000000  0.0000000  3
   4177   4175   4176   4178     1  0.0000000  0.6508444  3
   4177   4175   4189   4195     1  0.0000000  1.0460000  1
   4177   4175   4189   4195     1  0.0000000  0.0000000  3
   4177   4175   4189   4193     1  0.0000000  0.6508444  3
   4177   4175   4189   4194     1  0.0000000  0.6508444  3
   4177   4175   4197   4181     1  0.0000000  1.6038667  3
   4178   4176   4179   4180     1  0.0000000  0.6508444  3
   4178   4176   4179   4187     1  0.0000000  1.0460000  1
   4178   4176   4179   4187     1  0.0000000  0.0000000  3
   4178   4176   4179   4183     1  0.0000000  0.6508444  3
   4178   4176   4188   4191     1  0.0000000  0.6973333  3
   4178   4176   4175   4189     1  0.0000000  0.6508444  3
   4178   4176   4175   4197     1  0.0000000  1.0460000  1
   4178   4176   4175   4197     1  0.0000000  0.0000000  3
   4179   4180   4181   4184     1  0.0000000  0.6508444  3
   4179   4180   4186   4192     1  0.0000000  1.0460000  1
   4179   4180   4186   4192     1  0.0000000  0.6694400  3
   4179   4176   4188   4191     1  0.0000000  1.0460000  1
   4179   4176   4188   4191     1  0.0000000  0.6694400  3
   4180   4179   4187   4190     1  0.0000000  1.0460000  1
   4180   4179   4187   4190     1  0.0000000  0.6694400  3
   4181   4180   4186   4192     1  0.0000000  1.0460000  1
   4181   4180   4186   4192     1  0.0000000  0.6694400  3
   4181   4180   4179   4183     1  0.0000000  0.6508444  3
   4182   4180   4181   4185     1  0.0000000  1.0460000  1
   4182   4180   4181   4185     1  0.0000000  0.0000000  3
   4182   4180   4181   4197     1  0.0000000  1.0460000  1
   4182   4180   4181   4197     1  0.0000000  0.0000000  3
   4182   4180   4181   4184     1  0.0000000  0.6508444  3
   4182   4180   4186   4192     1  0.0000000  0.6973333  3
   4182   4180   4179   4187     1  0.0000000  1.0460000  1
   4182   4180   4179   4187     1  0.0000000  0.0000000  3
   4182   4180   4179   4183     1  0.0000000  0.6508444  3
   4183   4179   4180   4186     1  0.0000000  1.0460000  1
   4183   4179   4180   4186     1  0.0000000  0.0000000  3
   4183   4179   4187   4190     1  0.0000000  0.6973333  3
   4183   4179   4176   4188     1  0.0000000  1.0460000  1
   4183   4179   4176   4188     1  0.0000000  0.0000000  3
   4184   4181   4180   4186     1  0.0000000  0.6508444  3
   4193   4189   4195   4196     1  0.0000000  0.6973333  3
   4193   4189   4175   4197     1  0.0000000  1.0460000  1
   4193   4189   4175   4197     1  0.0000000  0.0000000  3
   4194   4189   4195   4196     1  0.0000000  0.6973333  3
   4194   4189   4175   4197     1  0.0000000  1.0460000  1
   4194   4189   4175   4197     1  0.0000000  0.0000000  3
   4198   4199   4202   4206     1  0.0000000  0.6508444  3
   4198   4199   4211   4214     1  0.0000000  1.0460000  1
   4198   4199   4211   4214     1  0.0000000  0.6694400  3
   4198   4212   4218   4219     1  0.0000000  1.0460000  1
   4198   4212   4218   4219     1  0.0000000  0.6694400  3
   4198   4220   4204   4207     1  0.0000000  1.6038667  3
   4199   4198   4212   4216     1  0.0000000  0.6508444  3
   4199   4198   4212   4217     1  0.0000000  0.6508444  3
   4199   4202   4203   4205     1  0.0000000  0.6508444  3
   4199   4202   4210   4213     1  0.0000000  1.0460000  1
   4199   4202   4210   4213     1  0.0000000  0.6694400  3
   4200   4198   4199   4202     1  0.0000000  0.6508444  3
   4200   4198   4199   4211     1  0.0000000  1.0460000  1
   4200   4198   4199   4211     1  0.0000000  0.0000000  3
   4200   4198   4199   4201     1  0.0000000  0.6508444  3
   4200   4198   4212   4218     1  0.0000000  1.0460000  1
   4200   4198   4212   4218     1  0.0000000  0.0000000  3
   4200   4198   4212   4216     1  0.0000000  0.6508444  3
   4200   4198   4212   4217     1  0.0000000  0.6508444  3
   4200   4198   4220   4204     1  0.0000000  1.6038667  3
   4201   4199   4198   4212     1  0.0000000  0.6508444  3
   4201   4199   4198   4220     1  0.0000000  1.0460000  1
   4201   4199   4198   4220     1  0.0000000  0.0000000  3
   4201   4199   4202   4203     1  0.0000000  0.6508444  3
   4201   4199   4202   4210     1  0.0000000  1.0460000  1
   4201   4199   4202   4210     1  0.0000000  0.0000000  3
   4201   4199   4202   4206     1  0.0000000  0.6508444  3
   4201   4199   4211   4214     1  0.0000000  0.6973333  3
   4202   4199   4211   4214     1  0.0000000  1.0460000  1
   4202   4199   4211   4214     1  0.0000000  0.6694400  3
   4202   4203   4204   4207     1  0.0000000  0.6508444  3
   4202   4203   4209   4215     1  0.0000000  1.0460000  1
   4202   4203   4209   4215     1  0.0000000  0.6694400  3
   4203   4202   4210   4213     1  0.0000000  1.0460000  1
   4203   4202   4210   4213     1  0.0000000  0.6694400  3
   4204   4203   4202   4206     1  0.0000000  0.6508444  3
   4204   4203   4209   4215     1  0.0000000  1.0460000  1
   4204   4203   4209   4215     1  0.0000000  0.6694400  3
   4205   4203   4202   4210     1  0.0000000  1.0460000  1
   4205   4203   4202   4210     1  0.0000000  0.0000000  3
   4205   4203   4202   4206     1  0.0000000  0.6508444  3
   4205   4203   4204   4208     1  0.0000000  1.0460000  1
   4205   4203   4204   4208     1  0.0000000  0.0000000  3
   4205   4203   4204   4220     1  0.0000000  1.0460000  1
   4205   4203   4204   4220     1  0.0000000  0.0000000  3
   4205   4203   4204   4207     1  0.0000000  0.6508444  3
   4205   4203   4209   4215     1  0.0000000  0.6973333  3
   4206   4202   4199   4211     1  0.0000000  1.0460000  1
   4206   4202   4199   4211     1  0.0000000  0.0000000  3
   4206   4202   4203   4209     1  0.0000000  1.0460000  1
   4206   4202   4203   4209     1  0.0000000  0.0000000  3
   4206   4202   4210   4213     1  0.0000000  0.6973333  3
   4207   4204   4203   4209     1  0.0000000  0.6508444  3
   4216   4212   4198   4220     1  0.0000000  1.0460000  1
   4216   4212   4198   4220     1  0.0000000  0.0000000  3
   4216   4212   4218   4219     1  0.0000000  0.6973333  3
   4217   4212   4198   4220     1  0.0000000  1.0460000  1
   4217   4212   4198   4220     1  0.0000000  0.0000000  3
   4217   4212   4218   4219     1  0.0000000  0.6973333  3
   4221   4222   4225   4229     1  0.0000000  0.6508444  3
   4221   4222   4234   4237     1  0.0000000  1.0460000  1
   4221   4222   4234   4237     1  0.0000000  0.6694400  3
   4221   4235   4241   4242     1  0.0000000  1.0460000  1
   4221   4235   4241   4242     1  0.0000000  0.6694400  3
   4221   4243   4227   4230     1  0.0000000  1.6038667  3
   4222   4225   4226   4228     1  0.0000000  0.6508444  3
   4222   4225   4233   4236     1  0.0000000  1.0460000  1
   4222   4225   4233   4236     1  0.0000000  0.6694400  3
   4222   4221   4235   4239     1  0.0000000  0.6508444  3
   4222   4221   4235   4240     1  0.0000000  0.6508444  3
   4223   4221   4222   4225     1  0.0000000  0.6508444  3
   4223   4221   4222   4234     1  0.0000000  1.0460000  1
   4223   4221   4222   4234     1  0.0000000  0.0000000  3
   4223   4221   4222   4224     1  0.0000000  0.6508444  3
   4223   4221   4235   4241     1  0.0000000  1.0460000  1
   4223   4221   4235   4241     1  0.0000000  0.0000000  3
   4223   4221   4235   4239     1  0.0000000  0.6508444  3
   4223   4221   4235   4240     1  0.0000000  0.6508444  3
   4223   4221   4243   4227     1  0.0000000  1.6038667  3
   4224   4222   4225   4226     1  0.0000000  0.6508444  3
   4224   4222   4225   4233     1  0.0000000  1.0460000  1
   4224   4222   4225   4233     1  0.0000000  0.0000000  3
   4224   4222   4225   4229     1  0.0000000  0.6508444  3
   4224   4222   4234   4237     1  0.0000000  0.6973333  3
   4224   4222   4221   4235     1  0.0000000  0.6508444  3
   4224   4222   4221   4243     1  0.0000000  1.0460000  1
   4224   4222   4221   4243     1  0.0000000  0.0000000  3
   4225   4226   4227   4230     1  0.0000000  0.6508444  3
   4225   4226   4232   4238     1  0.0000000  1.0460000  1
   4225   4226   4232   4238     1  0.0000000  0.6694400  3
   4225   4222   4234   4237     1  0.0000000  1.0460000  1
   4225   4222   4234   4237     1  0.0000000  0.6694400  3
   4226   4225   4233   4236     1  0.0000000  1.0460000  1
   4226   4225   4233   4236     1  0.0000000  0.6694400  3
   4227   4226   4232   4238     1  0.0000000  1.0460000  1
   4227   4226   4232   4238     1  0.0000000  0.6694400  3
   4227   4226   4225   4229     1  0.0000000  0.6508444  3
   4228   4226   4227   4231     1  0.0000000  1.0460000  1
   4228   4226   4227   4231     1  0.0000000  0.0000000  3
   4228   4226   4227   4243     1  0.0000000  1.0460000  1
   4228   4226   4227   4243     1  0.0000000  0.0000000  3
   4228   4226   4227   4230     1  0.0000000  0.6508444  3
   4228   4226   4232   4238     1  0.0000000  0.6973333  3
   4228   4226   4225   4233     1  0.0000000  1.0460000  1
   4228   4226   4225   4233     1  0.0000000  0.0000000  3
   4228   4226   4225   4229     1  0.0000000  0.6508444  3
   4229   4225   4226   4232     1  0.0000000  1.0460000  1
   4229   4225   4226   4232     1  0.0000000  0.0000000  3
   4229   4225   4233   4236     1  0.0000000  0.6973333  3
   4229   4225   4222   4234     1  0.0000000  1.0460000  1
   4229   4225   4222   4234     1  0.0000000  0.0000000  3
   4230   4227   4226   4232     1  0.0000000  0.6508444  3
   4239   4235   4241   4242     1  0.0000000  0.6973333  3
   4239   4235   4221   4243     1  0.0000000  1.0460000  1
   4239   4235   4221   4243     1  0.0000000  0.0000000  3
   4240   4235   4241   4242     1  0.0000000  0.6973333  3
   4240   4235   4221   4243     1  0.0000000  1.0460000  1
   4240   4235   4221   4243     1  0.0000000  0.0000000  3
   4244   4245   4248   4252     1  0.0000000  0.6508444  3
   4244   4245   4257   4260     1  0.0000000  1.0460000  1
   4244   4245   4257   4260     1  0.0000000  0.6694400  3
   4244   4258   4264   4265     1  0.0000000  1.0460000  1
   4244   4258   4264   4265     1  0.0000000  0.6694400  3
   4244   4266   4250   4253     1  0.0000000  1.6038667  3
   4245   4244   4258   4262     1  0.0000000  0.6508444  3
   4245   4244   4258   4263     1  0.0000000  0.6508444  3
   4245   4248   4249   4251     1  0.0000000  0.6508444  3
   4245   4248   4256   4259     1  0.0000000  1.0460000  1
   4245   4248   4256   4259     1  0.0000000  0.6694400  3
   4246   4244   4245   4248     1  0.0000000  0.6508444  3
   4246   4244   4245   4257     1  0.0000000  1.0460000  1
   4246   4244   4245   4257     1  0.0000000  0.0000000  3
   4246   4244   4245   4247     1  0.0000000  0.6508444  3
   4246   4244   4258   4264     1  0.0000000  1.0460000  1
   4246   4244   4258   4264     1  0.0000000  0.0000000  3
   4246   4244   4258   4262     1  0.0000000  0.6508444  3
   4246   4244   4258   4263     1  0.0000000  0.6508444  3
   4246   4244   4266   4250     1  0.0000000  1.6038667  3
   4247   4245   4244   4258     1  0.0000000  0.6508444  3
   4247   4245   4244   4266     1  0.0000000  1.0460000  1
   4247   4245   4244   4266     1  0.0000000  0.0000000  3
   4247   4245   4248   4249     1  0.0000000  0.6508444  3
   4247   4245   4248   4256     1  0.0000000  1.0460000  1
   4247   4245   4248   4256     1  0.0000000  0.0000000  3
   4247   4245   4248   4252     1  0.0000000  0.6508444  3
   4247   4245   4257   4260     1  0.0000000  0.6973333  3
   4248   4245   4257   4260     1  0.0000000  1.0460000  1
   4248   4245   4257   4260     1  0.0000000  0.6694400  3
   4248   4249   4250   4253     1  0.0000000  0.6508444  3
   4248   4249   4255   4261     1  0.0000000  1.0460000  1
   4248   4249   4255   4261     1  0.0000000  0.6694400  3
   4249   4248   4256   4259     1  0.0000000  1.0460000  1
   4249   4248   4256   4259     1  0.0000000  0.6694400  3
   4250   4249   4248   4252     1  0.0000000  0.6508444  3
   4250   4249   4255   4261     1  0.0000000  1.0460000  1
   4250   4249   4255   4261     1  0.0000000  0.6694400  3
   4251   4249   4248   4256     1  0.0000000  1.0460000  1
   4251   4249   4248   4256     1  0.0000000  0.0000000  3
   4251   4249   4248   4252     1  0.0000000  0.6508444  3
   4251   4249   4250   4254     1  0.0000000  1.0460000  1
   4251   4249   4250   4254     1  0.0000000  0.0000000  3
   4251   4249   4250   4266     1  0.0000000  1.0460000  1
   4251   4249   4250   4266     1  0.0000000  0.0000000  3
   4251   4249   4250   4253     1  0.0000000  0.6508444  3
   4251   4249   4255   4261     1  0.0000000  0.6973333  3
   4252   4248   4245   4257     1  0.0000000  1.0460000  1
   4252   4248   4245   4257     1  0.0000000  0.0000000  3
   4252   4248   4249   4255     1  0.0000000  1.0460000  1
   4252   4248   4249   4255     1  0.0000000  0.0000000  3
   4252   4248   4256   4259     1  0.0000000  0.6973333  3
   4253   4250   4249   4255     1  0.0000000  0.6508444  3
   4262   4258   4244   4266     1  0.0000000  1.0460000  1
   4262   4258   4244   4266     1  0.0000000  0.0000000  3
   4262   4258   4264   4265     1  0.0000000  0.6973333  3
   4263   4258   4244   4266     1  0.0000000  1.0460000  1
   4263   4258   4244   4266     1  0.0000000  0.0000000  3
   4263   4258   4264   4265     1  0.0000000  0.6973333  3
   4267   4268   4271   4275     1  0.0000000  0.6508444  3
   4267   4268   4280   4283     1  0.0000000  1.0460000  1
   4267   4268   4280   4283     1  0.0000000  0.6694400  3
   4267   4281   4287   4288     1  0.0000000  1.0460000  1
   4267   4281   4287   4288     1  0.0000000  0.6694400  3
   4267   4289   4273   4276     1  0.0000000  1.6038667  3
   4268   4271   4272   4274     1  0.0000000  0.6508444  3
   4268   4271   4279   4282     1  0.0000000  1.0460000  1
   4268   4271   4279   4282     1  0.0000000  0.6694400  3
   4268   4267   4281   4285     1  0.0000000  0.6508444  3
   4268   4267   4281   4286     1  0.0000000  0.6508444  3
   4269   4267   4268   4271     1  0.0000000  0.6508444  3
   4269   4267   4268   4280     1  0.0000000  1.0460000  1
   4269   4267   4268   4280     1  0.0000000  0.0000000  3
   4269   4267   4268   4270     1  0.0000000  0.6508444  3
   4269   4267   4281   4287     1  0.0000000  1.0460000  1
   4269   4267   4281   4287     1  0.0000000  0.0000000  3
   4269   4267   4281   4285     1  0.0000000  0.6508444  3
   4269   4267   4281   4286     1  0.0000000  0.6508444  3
   4269   4267   4289   4273     1  0.0000000  1.6038667  3
   4270   4268   4271   4272     1  0.0000000  0.6508444  3
   4270   4268   4271   4279     1  0.0000000  1.0460000  1
   4270   4268   4271   4279     1  0.0000000  0.0000000  3
   4270   4268   4271   4275     1  0.0000000  0.6508444  3
   4270   4268   4280   4283     1  0.0000000  0.6973333  3
   4270   4268   4267   4281     1  0.0000000  0.6508444  3
   4270   4268   4267   4289     1  0.0000000  1.0460000  1
   4270   4268   4267   4289     1  0.0000000  0.0000000  3
   4271   4272   4273   4276     1  0.0000000  0.6508444  3
   4271   4272   4278   4284     1  0.0000000  1.0460000  1
   4271   4272   4278   4284     1  0.0000000  0.6694400  3
   4271   4268   4280   4283     1  0.0000000  1.0460000  1
   4271   4268   4280   4283     1  0.0000000  0.6694400  3
   4272   4271   4279   4282     1  0.0000000  1.0460000  1
   4272   4271   4279   4282     1  0.0000000  0.6694400  3
   4273   4272   4278   4284     1  0.0000000  1.0460000  1
   4273   4272   4278   4284     1  0.0000000  0.6694400  3
   4273   4272   4271   4275     1  0.0000000  0.6508444  3
   4274   4272   4273   4277     1  0.0000000  1.0460000  1
   4274   4272   4273   4277     1  0.0000000  0.0000000  3
   4274   4272   4273   4289     1  0.0000000  1.0460000  1
   4274   4272   4273   4289     1  0.0000000  0.0000000  3
   4274   4272   4273   4276     1  0.0000000  0.6508444  3
   4274   4272   4278   4284     1  0.0000000  0.6973333  3
   4274   4272   4271   4279     1  0.0000000  1.0460000  1
   4274   4272   4271   4279     1  0.0000000  0.0000000  3
   4274   4272   4271   4275     1  0.0000000  0.6508444  3
   4275   4271   4272   4278     1  0.0000000  1.0460000  1
   4275   4271   4272   4278     1  0.0000000  0.0000000  3
   4275   4271   4279   4282     1  0.0000000  0.6973333  3
   4275   4271   4268   4280     1  0.0000000  1.0460000  1
   4275   4271   4268   4280     1  0.0000000  0.0000000  3
   4276   4273   4272   4278     1  0.0000000  0.6508444  3
   4285   4281   4287   4288     1  0.0000000  0.6973333  3
   4285   4281   4267   4289     1  0.0000000  1.0460000  1
   4285   4281   4267   4289     1  0.0000000  0.0000000  3
   4286   4281   4287   4288     1  0.0000000  0.6973333  3
   4286   4281   4267   4289     1  0.0000000  1.0460000  1
   4286   4281   4267   4289     1  0.0000000  0.0000000  3
   4290   4291   4294   4298     1  0.0000000  0.6508444  3
   4290   4291   4303   4306     1  0.0000000  1.0460000  1
   4290   4291   4303   4306     1  0.0000000  0.6694400  3
   4290   4304   4310   4311     1  0.0000000  1.0460000  1
   4290   4304   4310   4311     1  0.0000000  0.6694400  3
   4290   4312   4296   4299     1  0.0000000  1.6038667  3
   4291   4290   4304   4308     1  0.0000000  0.6508444  3
   4291   4290   4304   4309     1  0.0000000  0.6508444  3
   4291   4294   4295   4297     1  0.0000000  0.6508444  3
   4291   4294   4302   4305     1  0.0000000  1.0460000  1
   4291   4294   4302   4305     1  0.0000000  0.6694400  3
   4292   4290   4291   4294     1  0.0000000  0.6508444  3
   4292   4290   4291   4303     1  0.0000000  1.0460000  1
   4292   4290   4291   4303     1  0.0000000  0.0000000  3
   4292   4290   4291   4293     1  0.0000000  0.6508444  3
   4292   4290   4304   4310     1  0.0000000  1.0460000  1
   4292   4290   4304   4310     1  0.0000000  0.0000000  3
   4292   4290   4304   4308     1  0.0000000  0.6508444  3
   4292   4290   4304   4309     1  0.0000000  0.6508444  3
   4292   4290   4312   4296     1  0.0000000  1.6038667  3
   4293   4291   4290   4304     1  0.0000000  0.6508444  3
   4293   4291   4290   4312     1  0.0000000  1.0460000  1
   4293   4291   4290   4312     1  0.0000000  0.0000000  3
   4293   4291   4294   4295     1  0.0000000  0.6508444  3
   4293   4291   4294   4302     1  0.0000000  1.0460000  1
   4293   4291   4294   4302     1  0.0000000  0.0000000  3
   4293   4291   4294   4298     1  0.0000000  0.6508444  3
   4293   4291   4303   4306     1  0.0000000  0.6973333  3
   4294   4291   4303   4306     1  0.0000000  1.0460000  1
   4294   4291   4303   4306     1  0.0000000  0.6694400  3
   4294   4295   4296   4299     1  0.0000000  0.6508444  3
   4294   4295   4301   4307     1  0.0000000  1.0460000  1
   4294   4295   4301   4307     1  0.0000000  0.6694400  3
   4295   4294   4302   4305     1  0.0000000  1.0460000  1
   4295   4294   4302   4305     1  0.0000000  0.6694400  3
   4296   4295   4294   4298     1  0.0000000  0.6508444  3
   4296   4295   4301   4307     1  0.0000000  1.0460000  1
   4296   4295   4301   4307     1  0.0000000  0.6694400  3
   4297   4295   4294   4302     1  0.0000000  1.0460000  1
   4297   4295   4294   4302     1  0.0000000  0.0000000  3
   4297   4295   4294   4298     1  0.0000000  0.6508444  3
   4297   4295   4296   4300     1  0.0000000  1.0460000  1
   4297   4295   4296   4300     1  0.0000000  0.0000000  3
   4297   4295   4296   4312     1  0.0000000  1.0460000  1
   4297   4295   4296   4312     1  0.0000000  0.0000000  3
   4297   4295   4296   4299     1  0.0000000  0.6508444  3
   4297   4295   4301   4307     1  0.0000000  0.6973333  3
   4298   4294   4291   4303     1  0.0000000  1.0460000  1
   4298   4294   4291   4303     1  0.0000000  0.0000000  3
   4298   4294   4295   4301     1  0.0000000  1.0460000  1
   4298   4294   4295   4301     1  0.0000000  0.0000000  3
   4298   4294   4302   4305     1  0.0000000  0.6973333  3
   4299   4296   4295   4301     1  0.0000000  0.6508444  3
   4308   4304   4290   4312     1  0.0000000  1.0460000  1
   4308   4304   4290   4312     1  0.0000000  0.0000000  3
   4308   4304   4310   4311     1  0.0000000  0.6973333  3
   4309   4304   4290   4312     1  0.0000000  1.0460000  1
   4309   4304   4290   4312     1  0.0000000  0.0000000  3
   4309   4304   4310   4311     1  0.0000000  0.6973333  3
   4313   4314   4317   4321     1  0.0000000  0.6508444  3
   4313   4314   4326   4329     1  0.0000000  1.0460000  1
   4313   4314   4326   4329     1  0.0000000  0.6694400  3
   4313   4327   4333   4334     1  0.0000000  1.0460000  1
   4313   4327   4333   4334     1  0.0000000  0.6694400  3
   4313   4335   4319   4322     1  0.0000000  1.6038667  3
   4314   4317   4318   4320     1  0.0000000  0.6508444  3
   4314   4317   4325   4328     1  0.0000000  1.0460000  1
   4314   4317   4325   4328     1  0.0000000  0.6694400  3
   4314   4313   4327   4331     1  0.0000000  0.6508444  3
   4314   4313   4327   4332     1  0.0000000  0.6508444  3
   4315   4313   4314   4317     1  0.0000000  0.6508444  3
   4315   4313   4314   4326     1  0.0000000  1.0460000  1
   4315   4313   4314   4326     1  0.0000000  0.0000000  3
   4315   4313   4314   4316     1  0.0000000  0.6508444  3
   4315   4313   4327   4333     1  0.0000000  1.0460000  1
   4315   4313   4327   4333     1  0.0000000  0.0000000  3
   4315   4313   4327   4331     1  0.0000000  0.6508444  3
   4315   4313   4327   4332     1  0.0000000  0.6508444  3
   4315   4313   4335   4319     1  0.0000000  1.6038667  3
   4316   4314   4317   4318     1  0.0000000  0.6508444  3
   4316   4314   4317   4325     1  0.0000000  1.0460000  1
   4316   4314   4317   4325     1  0.0000000  0.0000000  3
   4316   4314   4317   4321     1  0.0000000  0.6508444  3
   4316   4314   4326   4329     1  0.0000000  0.6973333  3
   4316   4314   4313   4327     1  0.0000000  0.6508444  3
   4316   4314   4313   4335     1  0.0000000  1.0460000  1
   4316   4314   4313   4335     1  0.0000000  0.0000000  3
   4317   4318   4319   4322     1  0.0000000  0.6508444  3
   4317   4318   4324   4330     1  0.0000000  1.0460000  1
   4317   4318   4324   4330     1  0.0000000  0.6694400  3
   4317   4314   4326   4329     1  0.0000000  1.0460000  1
   4317   4314   4326   4329     1  0.0000000  0.6694400  3
   4318   4317   4325   4328     1  0.0000000  1.0460000  1
   4318   4317   4325   4328     1  0.0000000  0.6694400  3
   4319   4318   4324   4330     1  0.0000000  1.0460000  1
   4319   4318   4324   4330     1  0.0000000  0.6694400  3
   4319   4318   4317   4321     1  0.0000000  0.6508444  3
   4320   4318   4319   4323     1  0.0000000  1.0460000  1
   4320   4318   4319   4323     1  0.0000000  0.0000000  3
   4320   4318   4319   4335     1  0.0000000  1.0460000  1
   4320   4318   4319   4335     1  0.0000000  0.0000000  3
   4320   4318   4319   4322     1  0.0000000  0.6508444  3
   4320   4318   4324   4330     1  0.0000000  0.6973333  3
   4320   4318   4317   4325     1  0.0000000  1.0460000  1
   4320   4318   4317   4325     1  0.0000000  0.0000000  3
   4320   4318   4317   4321     1  0.0000000  0.6508444  3
   4321   4317   4318   4324     1  0.0000000  1.0460000  1
   4321   4317   4318   4324     1  0.0000000  0.0000000  3
   4321   4317   4325   4328     1  0.0000000  0.6973333  3
   4321   4317   4314   4326     1  0.0000000  1.0460000  1
   4321   4317   4314   4326     1  0.0000000  0.0000000  3
   4322   4319   4318   4324     1  0.0000000  0.6508444  3
   4331   4327   4333   4334     1  0.0000000  0.6973333  3
   4331   4327   4313   4335     1  0.0000000  1.0460000  1
   4331   4327   4313   4335     1  0.0000000  0.0000000  3
   4332   4327   4333   4334     1  0.0000000  0.6973333  3
   4332   4327   4313   4335     1  0.0000000  1.0460000  1
   4332   4327   4313   4335     1  0.0000000  0.0000000  3
   4336   4337   4340   4344     1  0.0000000  0.6508444  3
   4336   4337   4349   4352     1  0.0000000  1.0460000  1
   4336   4337   4349   4352     1  0.0000000  0.6694400  3
   4336   4350   4356   4357     1  0.0000000  1.0460000  1
   4336   4350   4356   4357     1  0.0000000  0.6694400  3
   4336   4358   4342   4345     1  0.0000000  1.6038667  3
   4337   4336   4350   4354     1  0.0000000  0.6508444  3
   4337   4336   4350   4355     1  0.0000000  0.6508444  3
   4337   4340   4341   4343     1  0.0000000  0.6508444  3
   4337   4340   4348   4351     1  0.0000000  1.0460000  1
   4337   4340   4348   4351     1  0.0000000  0.6694400  3
   4338   4336   4337   4340     1  0.0000000  0.6508444  3
   4338   4336   4337   4349     1  0.0000000  1.0460000  1
   4338   4336   4337   4349     1  0.0000000  0.0000000  3
   4338   4336   4337   4339     1  0.0000000  0.6508444  3
   4338   4336   4350   4356     1  0.0000000  1.0460000  1
   4338   4336   4350   4356     1  0.0000000  0.0000000  3
   4338   4336   4350   4354     1  0.0000000  0.6508444  3
   4338   4336   4350   4355     1  0.0000000  0.6508444  3
   4338   4336   4358   4342     1  0.0000000  1.6038667  3
   4339   4337   4336   4350     1  0.0000000  0.6508444  3
   4339   4337   4336   4358     1  0.0000000  1.0460000  1
   4339   4337   4336   4358     1  0.0000000  0.0000000  3
   4339   4337   4340   4341     1  0.0000000  0.6508444  3
   4339   4337   4340   4348     1  0.0000000  1.0460000  1
   4339   4337   4340   4348     1  0.0000000  0.0000000  3
   4339   4337   4340   4344     1  0.0000000  0.6508444  3
   4339   4337   4349   4352     1  0.0000000  0.6973333  3
   4340   4337   4349   4352     1  0.0000000  1.0460000  1
   4340   4337   4349   4352     1  0.0000000  0.6694400  3
   4340   4341   4342   4345     1  0.0000000  0.6508444  3
   4340   4341   4347   4353     1  0.0000000  1.0460000  1
   4340   4341   4347   4353     1  0.0000000  0.6694400  3
   4341   4340   4348   4351     1  0.0000000  1.0460000  1
   4341   4340   4348   4351     1  0.0000000  0.6694400  3
   4342   4341   4340   4344     1  0.0000000  0.6508444  3
   4342   4341   4347   4353     1  0.0000000  1.0460000  1
   4342   4341   4347   4353     1  0.0000000  0.6694400  3
   4343   4341   4340   4348     1  0.0000000  1.0460000  1
   4343   4341   4340   4348     1  0.0000000  0.0000000  3
   4343   4341   4340   4344     1  0.0000000  0.6508444  3
   4343   4341   4342   4346     1  0.0000000  1.0460000  1
   4343   4341   4342   4346     1  0.0000000  0.0000000  3
   4343   4341   4342   4358     1  0.0000000  1.0460000  1
   4343   4341   4342   4358     1  0.0000000  0.0000000  3
   4343   4341   4342   4345     1  0.0000000  0.6508444  3
   4343   4341   4347   4353     1  0.0000000  0.6973333  3
   4344   4340   4337   4349     1  0.0000000  1.0460000  1
   4344   4340   4337   4349     1  0.0000000  0.0000000  3
   4344   4340   4341   4347     1  0.0000000  1.0460000  1
   4344   4340   4341   4347     1  0.0000000  0.0000000  3
   4344   4340   4348   4351     1  0.0000000  0.6973333  3
   4345   4342   4341   4347     1  0.0000000  0.6508444  3
   4354   4350   4336   4358     1  0.0000000  1.0460000  1
   4354   4350   4336   4358     1  0.0000000  0.0000000  3
   4354   4350   4356   4357     1  0.0000000  0.6973333  3
   4355   4350   4336   4358     1  0.0000000  1.0460000  1
   4355   4350   4336   4358     1  0.0000000  0.0000000  3
   4355   4350   4356   4357     1  0.0000000  0.6973333  3
   4359   4360   4363   4367     1  0.0000000  0.6508444  3
   4359   4360   4372   4375     1  0.0000000  1.0460000  1
   4359   4360   4372   4375     1  0.0000000  0.6694400  3
   4359   4373   4379   4380     1  0.0000000  1.0460000  1
   4359   4373   4379   4380     1  0.0000000  0.6694400  3
   4359   4381   4365   4368     1  0.0000000  1.6038667  3
   4360   4363   4364   4366     1  0.0000000  0.6508444  3
   4360   4363   4371   4374     1  0.0000000  1.0460000  1
   4360   4363   4371   4374     1  0.0000000  0.6694400  3
   4360   4359   4373   4377     1  0.0000000  0.6508444  3
   4360   4359   4373   4378     1  0.0000000  0.6508444  3
   4361   4359   4360   4363     1  0.0000000  0.6508444  3
   4361   4359   4360   4372     1  0.0000000  1.0460000  1
   4361   4359   4360   4372     1  0.0000000  0.0000000  3
   4361   4359   4360   4362     1  0.0000000  0.6508444  3
   4361   4359   4373   4379     1  0.0000000  1.0460000  1
   4361   4359   4373   4379     1  0.0000000  0.0000000  3
   4361   4359   4373   4377     1  0.0000000  0.6508444  3
   4361   4359   4373   4378     1  0.0000000  0.6508444  3
   4361   4359   4381   4365     1  0.0000000  1.6038667  3
   4362   4360   4363   4364     1  0.0000000  0.6508444  3
   4362   4360   4363   4371     1  0.0000000  1.0460000  1
   4362   4360   4363   4371     1  0.0000000  0.0000000  3
   4362   4360   4363   4367     1  0.0000000  0.6508444  3
   4362   4360   4372   4375     1  0.0000000  0.6973333  3
   4362   4360   4359   4373     1  0.0000000  0.6508444  3
   4362   4360   4359   4381     1  0.0000000  1.0460000  1
   4362   4360   4359   4381     1  0.0000000  0.0000000  3
   4363   4364   4365   4368     1  0.0000000  0.6508444  3
   4363   4364   4370   4376     1  0.0000000  1.0460000  1
   4363   4364   4370   4376     1  0.0000000  0.6694400  3
   4363   4360   4372   4375     1  0.0000000  1.0460000  1
   4363   4360   4372   4375     1  0.0000000  0.6694400  3
   4364   4363   4371   4374     1  0.0000000  1.0460000  1
   4364   4363   4371   4374     1  0.0000000  0.6694400  3
   4365   4364   4370   4376     1  0.0000000  1.0460000  1
   4365   4364   4370   4376     1  0.0000000  0.6694400  3
   4365   4364   4363   4367     1  0.0000000  0.6508444  3
   4366   4364   4365   4369     1  0.0000000  1.0460000  1
   4366   4364   4365   4369     1  0.0000000  0.0000000  3
   4366   4364   4365   4381     1  0.0000000  1.0460000  1
   4366   4364   4365   4381     1  0.0000000  0.0000000  3
   4366   4364   4365   4368     1  0.0000000  0.6508444  3
   4366   4364   4370   4376     1  0.0000000  0.6973333  3
   4366   4364   4363   4371     1  0.0000000  1.0460000  1
   4366   4364   4363   4371     1  0.0000000  0.0000000  3
   4366   4364   4363   4367     1  0.0000000  0.6508444  3
   4367   4363   4364   4370     1  0.0000000  1.0460000  1
   4367   4363   4364   4370     1  0.0000000  0.0000000  3
   4367   4363   4371   4374     1  0.0000000  0.6973333  3
   4367   4363   4360   4372     1  0.0000000  1.0460000  1
   4367   4363   4360   4372     1  0.0000000  0.0000000  3
   4368   4365   4364   4370     1  0.0000000  0.6508444  3
   4377   4373   4379   4380     1  0.0000000  0.6973333  3
   4377   4373   4359   4381     1  0.0000000  1.0460000  1
   4377   4373   4359   4381     1  0.0000000  0.0000000  3
   4378   4373   4379   4380     1  0.0000000  0.6973333  3
   4378   4373   4359   4381     1  0.0000000  1.0460000  1
   4378   4373   4359   4381     1  0.0000000  0.0000000  3
   4382   4383   4386   4390     1  0.0000000  0.6508444  3
   4382   4383   4395   4398     1  0.0000000  1.0460000  1
   4382   4383   4395   4398     1  0.0000000  0.6694400  3
   4382   4396   4402   4403     1  0.0000000  1.0460000  1
   4382   4396   4402   4403     1  0.0000000  0.6694400  3
   4382   4404   4388   4391     1  0.0000000  1.6038667  3
   4383   4382   4396   4400     1  0.0000000  0.6508444  3
   4383   4382   4396   4401     1  0.0000000  0.6508444  3
   4383   4386   4387   4389     1  0.0000000  0.6508444  3
   4383   4386   4394   4397     1  0.0000000  1.0460000  1
   4383   4386   4394   4397     1  0.0000000  0.6694400  3
   4384   4382   4383   4386     1  0.0000000  0.6508444  3
   4384   4382   4383   4395     1  0.0000000  1.0460000  1
   4384   4382   4383   4395     1  0.0000000  0.0000000  3
   4384   4382   4383   4385     1  0.0000000  0.6508444  3
   4384   4382   4396   4402     1  0.0000000  1.0460000  1
   4384   4382   4396   4402     1  0.0000000  0.0000000  3
   4384   4382   4396   4400     1  0.0000000  0.6508444  3
   4384   4382   4396   4401     1  0.0000000  0.6508444  3
   4384   4382   4404   4388     1  0.0000000  1.6038667  3
   4385   4383   4382   4396     1  0.0000000  0.6508444  3
   4385   4383   4382   4404     1  0.0000000  1.0460000  1
   4385   4383   4382   4404     1  0.0000000  0.0000000  3
   4385   4383   4386   4387     1  0.0000000  0.6508444  3
   4385   4383   4386   4394     1  0.0000000  1.0460000  1
   4385   4383   4386   4394     1  0.0000000  0.0000000  3
   4385   4383   4386   4390     1  0.0000000  0.6508444  3
   4385   4383   4395   4398     1  0.0000000  0.6973333  3
   4386   4383   4395   4398     1  0.0000000  1.0460000  1
   4386   4383   4395   4398     1  0.0000000  0.6694400  3
   4386   4387   4388   4391     1  0.0000000  0.6508444  3
   4386   4387   4393   4399     1  0.0000000  1.0460000  1
   4386   4387   4393   4399     1  0.0000000  0.6694400  3
   4387   4386   4394   4397     1  0.0000000  1.0460000  1
   4387   4386   4394   4397     1  0.0000000  0.6694400  3
   4388   4387   4386   4390     1  0.0000000  0.6508444  3
   4388   4387   4393   4399     1  0.0000000  1.0460000  1
   4388   4387   4393   4399     1  0.0000000  0.6694400  3
   4389   4387   4386   4394     1  0.0000000  1.0460000  1
   4389   4387   4386   4394     1  0.0000000  0.0000000  3
   4389   4387   4386   4390     1  0.0000000  0.6508444  3
   4389   4387   4388   4392     1  0.0000000  1.0460000  1
   4389   4387   4388   4392     1  0.0000000  0.0000000  3
   4389   4387   4388   4404     1  0.0000000  1.0460000  1
   4389   4387   4388   4404     1  0.0000000  0.0000000  3
   4389   4387   4388   4391     1  0.0000000  0.6508444  3
   4389   4387   4393   4399     1  0.0000000  0.6973333  3
   4390   4386   4383   4395     1  0.0000000  1.0460000  1
   4390   4386   4383   4395     1  0.0000000  0.0000000  3
   4390   4386   4387   4393     1  0.0000000  1.0460000  1
   4390   4386   4387   4393     1  0.0000000  0.0000000  3
   4390   4386   4394   4397     1  0.0000000  0.6973333  3
   4391   4388   4387   4393     1  0.0000000  0.6508444  3
   4400   4396   4382   4404     1  0.0000000  1.0460000  1
   4400   4396   4382   4404     1  0.0000000  0.0000000  3
   4400   4396   4402   4403     1  0.0000000  0.6973333  3
   4401   4396   4382   4404     1  0.0000000  1.0460000  1
   4401   4396   4382   4404     1  0.0000000  0.0000000  3
   4401   4396   4402   4403     1  0.0000000  0.6973333  3
   4405   4406   4409   4413     1  0.0000000  0.6508444  3
   4405   4406   4418   4421     1  0.0000000  1.0460000  1
   4405   4406   4418   4421     1  0.0000000  0.6694400  3
   4405   4419   4425   4426     1  0.0000000  1.0460000  1
   4405   4419   4425   4426     1  0.0000000  0.6694400  3
   4405   4427   4411   4414     1  0.0000000  1.6038667  3
   4406   4409   4410   4412     1  0.0000000  0.6508444  3
   4406   4409   4417   4420     1  0.0000000  1.0460000  1
   4406   4409   4417   4420     1  0.0000000  0.6694400  3
   4406   4405   4419   4423     1  0.0000000  0.6508444  3
   4406   4405   4419   4424     1  0.0000000  0.6508444  3
   4407   4405   4406   4409     1  0.0000000  0.6508444  3
   4407   4405   4406   4418     1  0.0000000  1.0460000  1
   4407   4405   4406   4418     1  0.0000000  0.0000000  3
   4407   4405   4406   4408     1  0.0000000  0.6508444  3
   4407   4405   4419   4425     1  0.0000000  1.0460000  1
   4407   4405   4419   4425     1  0.0000000  0.0000000  3
   4407   4405   4419   4423     1  0.0000000  0.6508444  3
   4407   4405   4419   4424     1  0.0000000  0.6508444  3
   4407   4405   4427   4411     1  0.0000000  1.6038667  3
   4408   4406   4409   4410     1  0.0000000  0.6508444  3
   4408   4406   4409   4417     1  0.0000000  1.0460000  1
   4408   4406   4409   4417     1  0.0000000  0.0000000  3
   4408   4406   4409   4413     1  0.0000000  0.6508444  3
   4408   4406   4418   4421     1  0.0000000  0.6973333  3
   4408   4406   4405   4419     1  0.0000000  0.6508444  3
   4408   4406   4405   4427     1  0.0000000  1.0460000  1
   4408   4406   4405   4427     1  0.0000000  0.0000000  3
   4409   4410   4411   4414     1  0.0000000  0.6508444  3
   4409   4410   4416   4422     1  0.0000000  1.0460000  1
   4409   4410   4416   4422     1  0.0000000  0.6694400  3
   4409   4406   4418   4421     1  0.0000000  1.0460000  1
   4409   4406   4418   4421     1  0.0000000  0.6694400  3
   4410   4409   4417   4420     1  0.0000000  1.0460000  1
   4410   4409   4417   4420     1  0.0000000  0.6694400  3
   4411   4410   4416   4422     1  0.0000000  1.0460000  1
   4411   4410   4416   4422     1  0.0000000  0.6694400  3
   4411   4410   4409   4413     1  0.0000000  0.6508444  3
   4412   4410   4411   4415     1  0.0000000  1.0460000  1
   4412   4410   4411   4415     1  0.0000000  0.0000000  3
   4412   4410   4411   4427     1  0.0000000  1.0460000  1
   4412   4410   4411   4427     1  0.0000000  0.0000000  3
   4412   4410   4411   4414     1  0.0000000  0.6508444  3
   4412   4410   4416   4422     1  0.0000000  0.6973333  3
   4412   4410   4409   4417     1  0.0000000  1.0460000  1
   4412   4410   4409   4417     1  0.0000000  0.0000000  3
   4412   4410   4409   4413     1  0.0000000  0.6508444  3
   4413   4409   4410   4416     1  0.0000000  1.0460000  1
   4413   4409   4410   4416     1  0.0000000  0.0000000  3
   4413   4409   4417   4420     1  0.0000000  0.6973333  3
   4413   4409   4406   4418     1  0.0000000  1.0460000  1
   4413   4409   4406   4418     1  0.0000000  0.0000000  3
   4414   4411   4410   4416     1  0.0000000  0.6508444  3
   4423   4419   4425   4426     1  0.0000000  0.6973333  3
   4423   4419   4405   4427     1  0.0000000  1.0460000  1
   4423   4419   4405   4427     1  0.0000000  0.0000000  3
   4424   4419   4425   4426     1  0.0000000  0.6973333  3
   4424   4419   4405   4427     1  0.0000000  1.0460000  1
   4424   4419   4405   4427     1  0.0000000  0.0000000  3
   4428   4429   4432   4436     1  0.0000000  0.6508444  3
   4428   4429   4441   4444     1  0.0000000  1.0460000  1
   4428   4429   4441   4444     1  0.0000000  0.6694400  3
   4428   4442   4448   4449     1  0.0000000  1.0460000  1
   4428   4442   4448   4449     1  0.0000000  0.6694400  3
   4428   4450   4434   4437     1  0.0000000  1.6038667  3
   4429   4428   4442   4446     1  0.0000000  0.6508444  3
   4429   4428   4442   4447     1  0.0000000  0.6508444  3
   4429   4432   4433   4435     1  0.0000000  0.6508444  3
   4429   4432   4440   4443     1  0.0000000  1.0460000  1
   4429   4432   4440   4443     1  0.0000000  0.6694400  3
   4430   4428   4429   4432     1  0.0000000  0.6508444  3
   4430   4428   4429   4441     1  0.0000000  1.0460000  1
   4430   4428   4429   4441     1  0.0000000  0.0000000  3
   4430   4428   4429   4431     1  0.0000000  0.6508444  3
   4430   4428   4442   4448     1  0.0000000  1.0460000  1
   4430   4428   4442   4448     1  0.0000000  0.0000000  3
   4430   4428   4442   4446     1  0.0000000  0.6508444  3
   4430   4428   4442   4447     1  0.0000000  0.6508444  3
   4430   4428   4450   4434     1  0.0000000  1.6038667  3
   4431   4429   4428   4442     1  0.0000000  0.6508444  3
   4431   4429   4428   4450     1  0.0000000  1.0460000  1
   4431   4429   4428   4450     1  0.0000000  0.0000000  3
   4431   4429   4432   4433     1  0.0000000  0.6508444  3
   4431   4429   4432   4440     1  0.0000000  1.0460000  1
   4431   4429   4432   4440     1  0.0000000  0.0000000  3
   4431   4429   4432   4436     1  0.0000000  0.6508444  3
   4431   4429   4441   4444     1  0.0000000  0.6973333  3
   4432   4429   4441   4444     1  0.0000000  1.0460000  1
   4432   4429   4441   4444     1  0.0000000  0.6694400  3
   4432   4433   4434   4437     1  0.0000000  0.6508444  3
   4432   4433   4439   4445     1  0.0000000  1.0460000  1
   4432   4433   4439   4445     1  0.0000000  0.6694400  3
   4433   4432   4440   4443     1  0.0000000  1.0460000  1
   4433   4432   4440   4443     1  0.0000000  0.6694400  3
   4434   4433   4432   4436     1  0.0000000  0.6508444  3
   4434   4433   4439   4445     1  0.0000000  1.0460000  1
   4434   4433   4439   4445     1  0.0000000  0.6694400  3
   4435   4433   4432   4440     1  0.0000000  1.0460000  1
   4435   4433   4432   4440     1  0.0000000  0.0000000  3
   4435   4433   4432   4436     1  0.0000000  0.6508444  3
   4435   4433   4434   4438     1  0.0000000  1.0460000  1
   4435   4433   4434   4438     1  0.0000000  0.0000000  3
   4435   4433   4434   4450     1  0.0000000  1.0460000  1
   4435   4433   4434   4450     1  0.0000000  0.0000000  3
   4435   4433   4434   4437     1  0.0000000  0.6508444  3
   4435   4433   4439   4445     1  0.0000000  0.6973333  3
   4436   4432   4429   4441     1  0.0000000  1.0460000  1
   4436   4432   4429   4441     1  0.0000000  0.0000000  3
   4436   4432   4433   4439     1  0.0000000  1.0460000  1
   4436   4432   4433   4439     1  0.0000000  0.0000000  3
   4436   4432   4440   4443     1  0.0000000  0.6973333  3
   4437   4434   4433   4439     1  0.0000000  0.6508444  3
   4446   4442   4428   4450     1  0.0000000  1.0460000  1
   4446   4442   4428   4450     1  0.0000000  0.0000000  3
   4446   4442   4448   4449     1  0.0000000  0.6973333  3
   4447   4442   4428   4450     1  0.0000000  1.0460000  1
   4447   4442   4428   4450     1  0.0000000  0.0000000  3
   4447   4442   4448   4449     1  0.0000000  0.6973333  3
   4451   4452   4455   4459     1  0.0000000  0.6508444  3
   4451   4452   4464   4467     1  0.0000000  1.0460000  1
   4451   4452   4464   4467     1  0.0000000  0.6694400  3
   4451   4465   4471   4472     1  0.0000000  1.0460000  1
   4451   4465   4471   4472     1  0.0000000  0.6694400  3
   4451   4473   4457   4460     1  0.0000000  1.6038667  3
   4452   4455   4456   4458     1  0.0000000  0.6508444  3
   4452   4455   4463   4466     1  0.0000000  1.0460000  1
   4452   4455   4463   4466     1  0.0000000  0.6694400  3
   4452   4451   4465   4469     1  0.0000000  0.6508444  3
   4452   4451   4465   4470     1  0.0000000  0.6508444  3
   4453   4451   4452   4455     1  0.0000000  0.6508444  3
   4453   4451   4452   4464     1  0.0000000  1.0460000  1
   4453   4451   4452   4464     1  0.0000000  0.0000000  3
   4453   4451   4452   4454     1  0.0000000  0.6508444  3
   4453   4451   4465   4471     1  0.0000000  1.0460000  1
   4453   4451   4465   4471     1  0.0000000  0.0000000  3
   4453   4451   4465   4469     1  0.0000000  0.6508444  3
   4453   4451   4465   4470     1  0.0000000  0.6508444  3
   4453   4451   4473   4457     1  0.0000000  1.6038667  3
   4454   4452   4455   4456     1  0.0000000  0.6508444  3
   4454   4452   4455   4463     1  0.0000000  1.0460000  1
   4454   4452   4455   4463     1  0.0000000  0.0000000  3
   4454   4452   4455   4459     1  0.0000000  0.6508444  3
   4454   4452   4464   4467     1  0.0000000  0.6973333  3
   4454   4452   4451   4465     1  0.0000000  0.6508444  3
   4454   4452   4451   4473     1  0.0000000  1.0460000  1
   4454   4452   4451   4473     1  0.0000000  0.0000000  3
   4455   4456   4457   4460     1  0.0000000  0.6508444  3
   4455   4456   4462   4468     1  0.0000000  1.0460000  1
   4455   4456   4462   4468     1  0.0000000  0.6694400  3
   4455   4452   4464   4467     1  0.0000000  1.0460000  1
   4455   4452   4464   4467     1  0.0000000  0.6694400  3
   4456   4455   4463   4466     1  0.0000000  1.0460000  1
   4456   4455   4463   4466     1  0.0000000  0.6694400  3
   4457   4456   4462   4468     1  0.0000000  1.0460000  1
   4457   4456   4462   4468     1  0.0000000  0.6694400  3
   4457   4456   4455   4459     1  0.0000000  0.6508444  3
   4458   4456   4457   4461     1  0.0000000  1.0460000  1
   4458   4456   4457   4461     1  0.0000000  0.0000000  3
   4458   4456   4457   4473     1  0.0000000  1.0460000  1
   4458   4456   4457   4473     1  0.0000000  0.0000000  3
   4458   4456   4457   4460     1  0.0000000  0.6508444  3
   4458   4456   4462   4468     1  0.0000000  0.6973333  3
   4458   4456   4455   4463     1  0.0000000  1.0460000  1
   4458   4456   4455   4463     1  0.0000000  0.0000000  3
   4458   4456   4455   4459     1  0.0000000  0.6508444  3
   4459   4455   4456   4462     1  0.0000000  1.0460000  1
   4459   4455   4456   4462     1  0.0000000  0.0000000  3
   4459   4455   4463   4466     1  0.0000000  0.6973333  3
   4459   4455   4452   4464     1  0.0000000  1.0460000  1
   4459   4455   4452   4464     1  0.0000000  0.0000000  3
   4460   4457   4456   4462     1  0.0000000  0.6508444  3
   4469   4465   4471   4472     1  0.0000000  0.6973333  3
   4469   4465   4451   4473     1  0.0000000  1.0460000  1
   4469   4465   4451   4473     1  0.0000000  0.0000000  3
   4470   4465   4471   4472     1  0.0000000  0.6973333  3
   4470   4465   4451   4473     1  0.0000000  1.0460000  1
   4470   4465   4451   4473     1  0.0000000  0.0000000  3
   4474   4475   4478   4482     1  0.0000000  0.6508444  3
   4474   4475   4487   4490     1  0.0000000  1.0460000  1
   4474   4475   4487   4490     1  0.0000000  0.6694400  3
   4474   4488   4494   4495     1  0.0000000  1.0460000  1
   4474   4488   4494   4495     1  0.0000000  0.6694400  3
   4474   4496   4480   4483     1  0.0000000  1.6038667  3
   4475   4474   4488   4492     1  0.0000000  0.6508444  3
   4475   4474   4488   4493     1  0.0000000  0.6508444  3
   4475   4478   4479   4481     1  0.0000000  0.6508444  3
   4475   4478   4486   4489     1  0.0000000  1.0460000  1
   4475   4478   4486   4489     1  0.0000000  0.6694400  3
   4476   4474   4475   4478     1  0.0000000  0.6508444  3
   4476   4474   4475   4487     1  0.0000000  1.0460000  1
   4476   4474   4475   4487     1  0.0000000  0.0000000  3
   4476   4474   4475   4477     1  0.0000000  0.6508444  3
   4476   4474   4488   4494     1  0.0000000  1.0460000  1
   4476   4474   4488   4494     1  0.0000000  0.0000000  3
   4476   4474   4488   4492     1  0.0000000  0.6508444  3
   4476   4474   4488   4493     1  0.0000000  0.6508444  3
   4476   4474   4496   4480     1  0.0000000  1.6038667  3
   4477   4475   4474   4488     1  0.0000000  0.6508444  3
   4477   4475   4474   4496     1  0.0000000  1.0460000  1
   4477   4475   4474   4496     1  0.0000000  0.0000000  3
   4477   4475   4478   4479     1  0.0000000  0.6508444  3
   4477   4475   4478   4486     1  0.0000000  1.0460000  1
   4477   4475   4478   4486     1  0.0000000  0.0000000  3
   4477   4475   4478   4482     1  0.0000000  0.6508444  3
   4477   4475   4487   4490     1  0.0000000  0.6973333  3
   4478   4475   4487   4490     1  0.0000000  1.0460000  1
   4478   4475   4487   4490     1  0.0000000  0.6694400  3
   4478   4479   4480   4483     1  0.0000000  0.6508444  3
   4478   4479   4485   4491     1  0.0000000  1.0460000  1
   4478   4479   4485   4491     1  0.0000000  0.6694400  3
   4479   4478   4486   4489     1  0.0000000  1.0460000  1
   4479   4478   4486   4489     1  0.0000000  0.6694400  3
   4480   4479   4478   4482     1  0.0000000  0.6508444  3
   4480   4479   4485   4491     1  0.0000000  1.0460000  1
   4480   4479   4485   4491     1  0.0000000  0.6694400  3
   4481   4479   4478   4486     1  0.0000000  1.0460000  1
   4481   4479   4478   4486     1  0.0000000  0.0000000  3
   4481   4479   4478   4482     1  0.0000000  0.6508444  3
   4481   4479   4480   4484     1  0.0000000  1.0460000  1
   4481   4479   4480   4484     1  0.0000000  0.0000000  3
   4481   4479   4480   4496     1  0.0000000  1.0460000  1
   4481   4479   4480   4496     1  0.0000000  0.0000000  3
   4481   4479   4480   4483     1  0.0000000  0.6508444  3
   4481   4479   4485   4491     1  0.0000000  0.6973333  3
   4482   4478   4475   4487     1  0.0000000  1.0460000  1
   4482   4478   4475   4487     1  0.0000000  0.0000000  3
   4482   4478   4479   4485     1  0.0000000  1.0460000  1
   4482   4478   4479   4485     1  0.0000000  0.0000000  3
   4482   4478   4486   4489     1  0.0000000  0.6973333  3
   4483   4480   4479   4485     1  0.0000000  0.6508444  3
   4492   4488   4474   4496     1  0.0000000  1.0460000  1
   4492   4488   4474   4496     1  0.0000000  0.0000000  3
   4492   4488   4494   4495     1  0.0000000  0.6973333  3
   4493   4488   4474   4496     1  0.0000000  1.0460000  1
   4493   4488   4474   4496     1  0.0000000  0.0000000  3
   4493   4488   4494   4495     1  0.0000000  0.6973333  3
   4497   4498   4501   4505     1  0.0000000  0.6508444  3
   4497   4498   4510   4513     1  0.0000000  1.0460000  1
   4497   4498   4510   4513     1  0.0000000  0.6694400  3
   4497   4511   4517   4518     1  0.0000000  1.0460000  1
   4497   4511   4517   4518     1  0.0000000  0.6694400  3
   4497   4519   4503   4506     1  0.0000000  1.6038667  3
   4498   4501   4502   4504     1  0.0000000  0.6508444  3
   4498   4501   4509   4512     1  0.0000000  1.0460000  1
   4498   4501   4509   4512     1  0.0000000  0.6694400  3
   4498   4497   4511   4515     1  0.0000000  0.6508444  3
   4498   4497   4511   4516     1  0.0000000  0.6508444  3
   4499   4497   4498   4501     1  0.0000000  0.6508444  3
   4499   4497   4498   4510     1  0.0000000  1.0460000  1
   4499   4497   4498   4510     1  0.0000000  0.0000000  3
   4499   4497   4498   4500     1  0.0000000  0.6508444  3
   4499   4497   4511   4517     1  0.0000000  1.0460000  1
   4499   4497   4511   4517     1  0.0000000  0.0000000  3
   4499   4497   4511   4515     1  0.0000000  0.6508444  3
   4499   4497   4511   4516     1  0.0000000  0.6508444  3
   4499   4497   4519   4503     1  0.0000000  1.6038667  3
   4500   4498   4501   4502     1  0.0000000  0.6508444  3
   4500   4498   4501   4509     1  0.0000000  1.0460000  1
   4500   4498   4501   4509     1  0.0000000  0.0000000  3
   4500   4498   4501   4505     1  0.0000000  0.6508444  3
   4500   4498   4510   4513     1  0.0000000  0.6973333  3
   4500   4498   4497   4511     1  0.0000000  0.6508444  3
   4500   4498   4497   4519     1  0.0000000  1.0460000  1
   4500   4498   4497   4519     1  0.0000000  0.0000000  3
   4501   4502   4503   4506     1  0.0000000  0.6508444  3
   4501   4502   4508   4514     1  0.0000000  1.0460000  1
   4501   4502   4508   4514     1  0.0000000  0.6694400  3
   4501   4498   4510   4513     1  0.0000000  1.0460000  1
   4501   4498   4510   4513     1  0.0000000  0.6694400  3
   4502   4501   4509   4512     1  0.0000000  1.0460000  1
   4502   4501   4509   4512     1  0.0000000  0.6694400  3
   4503   4502   4508   4514     1  0.0000000  1.0460000  1
   4503   4502   4508   4514     1  0.0000000  0.6694400  3
   4503   4502   4501   4505     1  0.0000000  0.6508444  3
   4504   4502   4503   4507     1  0.0000000  1.0460000  1
   4504   4502   4503   4507     1  0.0000000  0.0000000  3
   4504   4502   4503   4519     1  0.0000000  1.0460000  1
   4504   4502   4503   4519     1  0.0000000  0.0000000  3
   4504   4502   4503   4506     1  0.0000000  0.6508444  3
   4504   4502   4508   4514     1  0.0000000  0.6973333  3
   4504   4502   4501   4509     1  0.0000000  1.0460000  1
   4504   4502   4501   4509     1  0.0000000  0.0000000  3
   4504   4502   4501   4505     1  0.0000000  0.6508444  3
   4505   4501   4502   4508     1  0.0000000  1.0460000  1
   4505   4501   4502   4508     1  0.0000000  0.0000000  3
   4505   4501   4509   4512     1  0.0000000  0.6973333  3
   4505   4501   4498   4510     1  0.0000000  1.0460000  1
   4505   4501   4498   4510     1  0.0000000  0.0000000  3
   4506   4503   4502   4508     1  0.0000000  0.6508444  3
   4515   4511   4517   4518     1  0.0000000  0.6973333  3
   4515   4511   4497   4519     1  0.0000000  1.0460000  1
   4515   4511   4497   4519     1  0.0000000  0.0000000  3
   4516   4511   4517   4518     1  0.0000000  0.6973333  3
   4516   4511   4497   4519     1  0.0000000  1.0460000  1
   4516   4511   4497   4519     1  0.0000000  0.0000000  3
   4520   4521   4524   4528     1  0.0000000  0.6508444  3
   4520   4521   4533   4536     1  0.0000000  1.0460000  1
   4520   4521   4533   4536     1  0.0000000  0.6694400  3
   4520   4534   4540   4541     1  0.0000000  1.0460000  1
   4520   4534   4540   4541     1  0.0000000  0.6694400  3
   4520   4542   4526   4529     1  0.0000000  1.6038667  3
   4521   4520   4534   4538     1  0.0000000  0.6508444  3
   4521   4520   4534   4539     1  0.0000000  0.6508444  3
   4521   4524   4525   4527     1  0.0000000  0.6508444  3
   4521   4524   4532   4535     1  0.0000000  1.0460000  1
   4521   4524   4532   4535     1  0.0000000  0.6694400  3
   4522   4520   4521   4524     1  0.0000000  0.6508444  3
   4522   4520   4521   4533     1  0.0000000  1.0460000  1
   4522   4520   4521   4533     1  0.0000000  0.0000000  3
   4522   4520   4521   4523     1  0.0000000  0.6508444  3
   4522   4520   4534   4540     1  0.0000000  1.0460000  1
   4522   4520   4534   4540     1  0.0000000  0.0000000  3
   4522   4520   4534   4538     1  0.0000000  0.6508444  3
   4522   4520   4534   4539     1  0.0000000  0.6508444  3
   4522   4520   4542   4526     1  0.0000000  1.6038667  3
   4523   4521   4520   4534     1  0.0000000  0.6508444  3
   4523   4521   4520   4542     1  0.0000000  1.0460000  1
   4523   4521   4520   4542     1  0.0000000  0.0000000  3
   4523   4521   4524   4525     1  0.0000000  0.6508444  3
   4523   4521   4524   4532     1  0.0000000  1.0460000  1
   4523   4521   4524   4532     1  0.0000000  0.0000000  3
   4523   4521   4524   4528     1  0.0000000  0.6508444  3
   4523   4521   4533   4536     1  0.0000000  0.6973333  3
   4524   4521   4533   4536     1  0.0000000  1.0460000  1
   4524   4521   4533   4536     1  0.0000000  0.6694400  3
   4524   4525   4526   4529     1  0.0000000  0.6508444  3
   4524   4525   4531   4537     1  0.0000000  1.0460000  1
   4524   4525   4531   4537     1  0.0000000  0.6694400  3
   4525   4524   4532   4535     1  0.0000000  1.0460000  1
   4525   4524   4532   4535     1  0.0000000  0.6694400  3
   4526   4525   4524   4528     1  0.0000000  0.6508444  3
   4526   4525   4531   4537     1  0.0000000  1.0460000  1
   4526   4525   4531   4537     1  0.0000000  0.6694400  3
   4527   4525   4524   4532     1  0.0000000  1.0460000  1
   4527   4525   4524   4532     1  0.0000000  0.0000000  3
   4527   4525   4524   4528     1  0.0000000  0.6508444  3
   4527   4525   4526   4530     1  0.0000000  1.0460000  1
   4527   4525   4526   4530     1  0.0000000  0.0000000  3
   4527   4525   4526   4542     1  0.0000000  1.0460000  1
   4527   4525   4526   4542     1  0.0000000  0.0000000  3
   4527   4525   4526   4529     1  0.0000000  0.6508444  3
   4527   4525   4531   4537     1  0.0000000  0.6973333  3
   4528   4524   4521   4533     1  0.0000000  1.0460000  1
   4528   4524   4521   4533     1  0.0000000  0.0000000  3
   4528   4524   4525   4531     1  0.0000000  1.0460000  1
   4528   4524   4525   4531     1  0.0000000  0.0000000  3
   4528   4524   4532   4535     1  0.0000000  0.6973333  3
   4529   4526   4525   4531     1  0.0000000  0.6508444  3
   4538   4534   4520   4542     1  0.0000000  1.0460000  1
   4538   4534   4520   4542     1  0.0000000  0.0000000  3
   4538   4534   4540   4541     1  0.0000000  0.6973333  3
   4539   4534   4520   4542     1  0.0000000  1.0460000  1
   4539   4534   4520   4542     1  0.0000000  0.0000000  3
   4539   4534   4540   4541     1  0.0000000  0.6973333  3
   4543   4544   4547   4551     1  0.0000000  0.6508444  3
   4543   4544   4556   4559     1  0.0000000  1.0460000  1
   4543   4544   4556   4559     1  0.0000000  0.6694400  3
   4543   4557   4563   4564     1  0.0000000  1.0460000  1
   4543   4557   4563   4564     1  0.0000000  0.6694400  3
   4543   4565   4549   4552     1  0.0000000  1.6038667  3
   4544   4547   4548   4550     1  0.0000000  0.6508444  3
   4544   4547   4555   4558     1  0.0000000  1.0460000  1
   4544   4547   4555   4558     1  0.0000000  0.6694400  3
   4544   4543   4557   4561     1  0.0000000  0.6508444  3
   4544   4543   4557   4562     1  0.0000000  0.6508444  3
   4545   4543   4544   4547     1  0.0000000  0.6508444  3
   4545   4543   4544   4556     1  0.0000000  1.0460000  1
   4545   4543   4544   4556     1  0.0000000  0.0000000  3
   4545   4543   4544   4546     1  0.0000000  0.6508444  3
   4545   4543   4557   4563     1  0.0000000  1.0460000  1
   4545   4543   4557   4563     1  0.0000000  0.0000000  3
   4545   4543   4557   4561     1  0.0000000  0.6508444  3
   4545   4543   4557   4562     1  0.0000000  0.6508444  3
   4545   4543   4565   4549     1  0.0000000  1.6038667  3
   4546   4544   4547   4548     1  0.0000000  0.6508444  3
   4546   4544   4547   4555     1  0.0000000  1.0460000  1
   4546   4544   4547   4555     1  0.0000000  0.0000000  3
   4546   4544   4547   4551     1  0.0000000  0.6508444  3
   4546   4544   4556   4559     1  0.0000000  0.6973333  3
   4546   4544   4543   4557     1  0.0000000  0.6508444  3
   4546   4544   4543   4565     1  0.0000000  1.0460000  1
   4546   4544   4543   4565     1  0.0000000  0.0000000  3
   4547   4548   4549   4552     1  0.0000000  0.6508444  3
   4547   4548   4554   4560     1  0.0000000  1.0460000  1
   4547   4548   4554   4560     1  0.0000000  0.6694400  3
   4547   4544   4556   4559     1  0.0000000  1.0460000  1
   4547   4544   4556   4559     1  0.0000000  0.6694400  3
   4548   4547   4555   4558     1  0.0000000  1.0460000  1
   4548   4547   4555   4558     1  0.0000000  0.6694400  3
   4549   4548   4554   4560     1  0.0000000  1.0460000  1
   4549   4548   4554   4560     1  0.0000000  0.6694400  3
   4549   4548   4547   4551     1  0.0000000  0.6508444  3
   4550   4548   4549   4553     1  0.0000000  1.0460000  1
   4550   4548   4549   4553     1  0.0000000  0.0000000  3
   4550   4548   4549   4565     1  0.0000000  1.0460000  1
   4550   4548   4549   4565     1  0.0000000  0.0000000  3
   4550   4548   4549   4552     1  0.0000000  0.6508444  3
   4550   4548   4554   4560     1  0.0000000  0.6973333  3
   4550   4548   4547   4555     1  0.0000000  1.0460000  1
   4550   4548   4547   4555     1  0.0000000  0.0000000  3
   4550   4548   4547   4551     1  0.0000000  0.6508444  3
   4551   4547   4548   4554     1  0.0000000  1.0460000  1
   4551   4547   4548   4554     1  0.0000000  0.0000000  3
   4551   4547   4555   4558     1  0.0000000  0.6973333  3
   4551   4547   4544   4556     1  0.0000000  1.0460000  1
   4551   4547   4544   4556     1  0.0000000  0.0000000  3
   4552   4549   4548   4554     1  0.0000000  0.6508444  3
   4561   4557   4563   4564     1  0.0000000  0.6973333  3
   4561   4557   4543   4565     1  0.0000000  1.0460000  1
   4561   4557   4543   4565     1  0.0000000  0.0000000  3
   4562   4557   4563   4564     1  0.0000000  0.6973333  3
   4562   4557   4543   4565     1  0.0000000  1.0460000  1
   4562   4557   4543   4565     1  0.0000000  0.0000000  3
   4566   4567   4570   4574     1  0.0000000  0.6508444  3
   4566   4567   4579   4582     1  0.0000000  1.0460000  1
   4566   4567   4579   4582     1  0.0000000  0.6694400  3
   4566   4580   4586   4587     1  0.0000000  1.0460000  1
   4566   4580   4586   4587     1  0.0000000  0.6694400  3
   4566   4588   4572   4575     1  0.0000000  1.6038667  3
   4567   4566   4580   4584     1  0.0000000  0.6508444  3
   4567   4566   4580   4585     1  0.0000000  0.6508444  3
   4567   4570   4571   4573     1  0.0000000  0.6508444  3
   4567   4570   4578   4581     1  0.0000000  1.0460000  1
   4567   4570   4578   4581     1  0.0000000  0.6694400  3
   4568   4566   4567   4570     1  0.0000000  0.6508444  3
   4568   4566   4567   4579     1  0.0000000  1.0460000  1
   4568   4566   4567   4579     1  0.0000000  0.0000000  3
   4568   4566   4567   4569     1  0.0000000  0.6508444  3
   4568   4566   4580   4586     1  0.0000000  1.0460000  1
   4568   4566   4580   4586     1  0.0000000  0.0000000  3
   4568   4566   4580   4584     1  0.0000000  0.6508444  3
   4568   4566   4580   4585     1  0.0000000  0.6508444  3
   4568   4566   4588   4572     1  0.0000000  1.6038667  3
   4569   4567   4566   4580     1  0.0000000  0.6508444  3
   4569   4567   4566   4588     1  0.0000000  1.0460000  1
   4569   4567   4566   4588     1  0.0000000  0.0000000  3
   4569   4567   4570   4571     1  0.0000000  0.6508444  3
   4569   4567   4570   4578     1  0.0000000  1.0460000  1
   4569   4567   4570   4578     1  0.0000000  0.0000000  3
   4569   4567   4570   4574     1  0.0000000  0.6508444  3
   4569   4567   4579   4582     1  0.0000000  0.6973333  3
   4570   4567   4579   4582     1  0.0000000  1.0460000  1
   4570   4567   4579   4582     1  0.0000000  0.6694400  3
   4570   4571   4572   4575     1  0.0000000  0.6508444  3
   4570   4571   4577   4583     1  0.0000000  1.0460000  1
   4570   4571   4577   4583     1  0.0000000  0.6694400  3
   4571   4570   4578   4581     1  0.0000000  1.0460000  1
   4571   4570   4578   4581     1  0.0000000  0.6694400  3
   4572   4571   4570   4574     1  0.0000000  0.6508444  3
   4572   4571   4577   4583     1  0.0000000  1.0460000  1
   4572   4571   4577   4583     1  0.0000000  0.6694400  3
   4573   4571   4570   4578     1  0.0000000  1.0460000  1
   4573   4571   4570   4578     1  0.0000000  0.0000000  3
   4573   4571   4570   4574     1  0.0000000  0.6508444  3
   4573   4571   4572   4576     1  0.0000000  1.0460000  1
   4573   4571   4572   4576     1  0.0000000  0.0000000  3
   4573   4571   4572   4588     1  0.0000000  1.0460000  1
   4573   4571   4572   4588     1  0.0000000  0.0000000  3
   4573   4571   4572   4575     1  0.0000000  0.6508444  3
   4573   4571   4577   4583     1  0.0000000  0.6973333  3
   4574   4570   4567   4579     1  0.0000000  1.0460000  1
   4574   4570   4567   4579     1  0.0000000  0.0000000  3
   4574   4570   4571   4577     1  0.0000000  1.0460000  1
   4574   4570   4571   4577     1  0.0000000  0.0000000  3
   4574   4570   4578   4581     1  0.0000000  0.6973333  3
   4575   4572   4571   4577     1  0.0000000  0.6508444  3
   4584   4580   4566   4588     1  0.0000000  1.0460000  1
   4584   4580   4566   4588     1  0.0000000  0.0000000  3
   4584   4580   4586   4587     1  0.0000000  0.6973333  3
   4585   4580   4566   4588     1  0.0000000  1.0460000  1
   4585   4580   4566   4588     1  0.0000000  0.0000000  3
   4585   4580   4586   4587     1  0.0000000  0.6973333  3
   4589   4590   4593   4597     1  0.0000000  0.6508444  3
   4589   4590   4602   4605     1  0.0000000  1.0460000  1
   4589   4590   4602   4605     1  0.0000000  0.6694400  3
   4589   4603   4609   4610     1  0.0000000  1.0460000  1
   4589   4603   4609   4610     1  0.0000000  0.6694400  3
   4589   4611   4595   4598     1  0.0000000  1.6038667  3
   4590   4593   4594   4596     1  0.0000000  0.6508444  3
   4590   4593   4601   4604     1  0.0000000  1.0460000  1
   4590   4593   4601   4604     1  0.0000000  0.6694400  3
   4590   4589   4603   4607     1  0.0000000  0.6508444  3
   4590   4589   4603   4608     1  0.0000000  0.6508444  3
   4591   4589   4590   4593     1  0.0000000  0.6508444  3
   4591   4589   4590   4602     1  0.0000000  1.0460000  1
   4591   4589   4590   4602     1  0.0000000  0.0000000  3
   4591   4589   4590   4592     1  0.0000000  0.6508444  3
   4591   4589   4603   4609     1  0.0000000  1.0460000  1
   4591   4589   4603   4609     1  0.0000000  0.0000000  3
   4591   4589   4603   4607     1  0.0000000  0.6508444  3
   4591   4589   4603   4608     1  0.0000000  0.6508444  3
   4591   4589   4611   4595     1  0.0000000  1.6038667  3
   4592   4590   4593   4594     1  0.0000000  0.6508444  3
   4592   4590   4593   4601     1  0.0000000  1.0460000  1
   4592   4590   4593   4601     1  0.0000000  0.0000000  3
   4592   4590   4593   4597     1  0.0000000  0.6508444  3
   4592   4590   4602   4605     1  0.0000000  0.6973333  3
   4592   4590   4589   4603     1  0.0000000  0.6508444  3
   4592   4590   4589   4611     1  0.0000000  1.0460000  1
   4592   4590   4589   4611     1  0.0000000  0.0000000  3
   4593   4594   4595   4598     1  0.0000000  0.6508444  3
   4593   4594   4600   4606     1  0.0000000  1.0460000  1
   4593   4594   4600   4606     1  0.0000000  0.6694400  3
   4593   4590   4602   4605     1  0.0000000  1.0460000  1
   4593   4590   4602   4605     1  0.0000000  0.6694400  3
   4594   4593   4601   4604     1  0.0000000  1.0460000  1
   4594   4593   4601   4604     1  0.0000000  0.6694400  3
   4595   4594   4600   4606     1  0.0000000  1.0460000  1
   4595   4594   4600   4606     1  0.0000000  0.6694400  3
   4595   4594   4593   4597     1  0.0000000  0.6508444  3
   4596   4594   4595   4599     1  0.0000000  1.0460000  1
   4596   4594   4595   4599     1  0.0000000  0.0000000  3
   4596   4594   4595   4611     1  0.0000000  1.0460000  1
   4596   4594   4595   4611     1  0.0000000  0.0000000  3
   4596   4594   4595   4598     1  0.0000000  0.6508444  3
   4596   4594   4600   4606     1  0.0000000  0.6973333  3
   4596   4594   4593   4601     1  0.0000000  1.0460000  1
   4596   4594   4593   4601     1  0.0000000  0.0000000  3
   4596   4594   4593   4597     1  0.0000000  0.6508444  3
   4597   4593   4594   4600     1  0.0000000  1.0460000  1
   4597   4593   4594   4600     1  0.0000000  0.0000000  3
   4597   4593   4601   4604     1  0.0000000  0.6973333  3
   4597   4593   4590   4602     1  0.0000000  1.0460000  1
   4597   4593   4590   4602     1  0.0000000  0.0000000  3
   4598   4595   4594   4600     1  0.0000000  0.6508444  3
   4607   4603   4609   4610     1  0.0000000  0.6973333  3
   4607   4603   4589   4611     1  0.0000000  1.0460000  1
   4607   4603   4589   4611     1  0.0000000  0.0000000  3
   4608   4603   4609   4610     1  0.0000000  0.6973333  3
   4608   4603   4589   4611     1  0.0000000  1.0460000  1
   4608   4603   4589   4611     1  0.0000000  0.0000000  3
   4612   4613   4616   4620     1  0.0000000  0.6508444  3
   4612   4613   4625   4628     1  0.0000000  1.0460000  1
   4612   4613   4625   4628     1  0.0000000  0.6694400  3
   4612   4626   4632   4633     1  0.0000000  1.0460000  1
   4612   4626   4632   4633     1  0.0000000  0.6694400  3
   4612   4634   4618   4621     1  0.0000000  1.6038667  3
   4613   4612   4626   4630     1  0.0000000  0.6508444  3
   4613   4612   4626   4631     1  0.0000000  0.6508444  3
   4613   4616   4617   4619     1  0.0000000  0.6508444  3
   4613   4616   4624   4627     1  0.0000000  1.0460000  1
   4613   4616   4624   4627     1  0.0000000  0.6694400  3
   4614   4612   4613   4616     1  0.0000000  0.6508444  3
   4614   4612   4613   4625     1  0.0000000  1.0460000  1
   4614   4612   4613   4625     1  0.0000000  0.0000000  3
   4614   4612   4613   4615     1  0.0000000  0.6508444  3
   4614   4612   4626   4632     1  0.0000000  1.0460000  1
   4614   4612   4626   4632     1  0.0000000  0.0000000  3
   4614   4612   4626   4630     1  0.0000000  0.6508444  3
   4614   4612   4626   4631     1  0.0000000  0.6508444  3
   4614   4612   4634   4618     1  0.0000000  1.6038667  3
   4615   4613   4612   4626     1  0.0000000  0.6508444  3
   4615   4613   4612   4634     1  0.0000000  1.0460000  1
   4615   4613   4612   4634     1  0.0000000  0.0000000  3
   4615   4613   4616   4617     1  0.0000000  0.6508444  3
   4615   4613   4616   4624     1  0.0000000  1.0460000  1
   4615   4613   4616   4624     1  0.0000000  0.0000000  3
   4615   4613   4616   4620     1  0.0000000  0.6508444  3
   4615   4613   4625   4628     1  0.0000000  0.6973333  3
   4616   4613   4625   4628     1  0.0000000  1.0460000  1
   4616   4613   4625   4628     1  0.0000000  0.6694400  3
   4616   4617   4618   4621     1  0.0000000  0.6508444  3
   4616   4617   4623   4629     1  0.0000000  1.0460000  1
   4616   4617   4623   4629     1  0.0000000  0.6694400  3
   4617   4616   4624   4627     1  0.0000000  1.0460000  1
   4617   4616   4624   4627     1  0.0000000  0.6694400  3
   4618   4617   4616   4620     1  0.0000000  0.6508444  3
   4618   4617   4623   4629     1  0.0000000  1.0460000  1
   4618   4617   4623   4629     1  0.0000000  0.6694400  3
   4619   4617   4616   4624     1  0.0000000  1.0460000  1
   4619   4617   4616   4624     1  0.0000000  0.0000000  3
   4619   4617   4616   4620     1  0.0000000  0.6508444  3
   4619   4617   4618   4622     1  0.0000000  1.0460000  1
   4619   4617   4618   4622     1  0.0000000  0.0000000  3
   4619   4617   4618   4634     1  0.0000000  1.0460000  1
   4619   4617   4618   4634     1  0.0000000  0.0000000  3
   4619   4617   4618   4621     1  0.0000000  0.6508444  3
   4619   4617   4623   4629     1  0.0000000  0.6973333  3
   4620   4616   4613   4625     1  0.0000000  1.0460000  1
   4620   4616   4613   4625     1  0.0000000  0.0000000  3
   4620   4616   4617   4623     1  0.0000000  1.0460000  1
   4620   4616   4617   4623     1  0.0000000  0.0000000  3
   4620   4616   4624   4627     1  0.0000000  0.6973333  3
   4621   4618   4617   4623     1  0.0000000  0.6508444  3
   4630   4626   4612   4634     1  0.0000000  1.0460000  1
   4630   4626   4612   4634     1  0.0000000  0.0000000  3
   4630   4626   4632   4633     1  0.0000000  0.6973333  3
   4631   4626   4612   4634     1  0.0000000  1.0460000  1
   4631   4626   4612   4634     1  0.0000000  0.0000000  3
   4631   4626   4632   4633     1  0.0000000  0.6973333  3
   4635   4636   4639   4643     1  0.0000000  0.6508444  3
   4635   4636   4648   4651     1  0.0000000  1.0460000  1
   4635   4636   4648   4651     1  0.0000000  0.6694400  3
   4635   4649   4655   4656     1  0.0000000  1.0460000  1
   4635   4649   4655   4656     1  0.0000000  0.6694400  3
   4635   4657   4641   4644     1  0.0000000  1.6038667  3
   4636   4639   4640   4642     1  0.0000000  0.6508444  3
   4636   4639   4647   4650     1  0.0000000  1.0460000  1
   4636   4639   4647   4650     1  0.0000000  0.6694400  3
   4636   4635   4649   4653     1  0.0000000  0.6508444  3
   4636   4635   4649   4654     1  0.0000000  0.6508444  3
   4637   4635   4636   4639     1  0.0000000  0.6508444  3
   4637   4635   4636   4648     1  0.0000000  1.0460000  1
   4637   4635   4636   4648     1  0.0000000  0.0000000  3
   4637   4635   4636   4638     1  0.0000000  0.6508444  3
   4637   4635   4649   4655     1  0.0000000  1.0460000  1
   4637   4635   4649   4655     1  0.0000000  0.0000000  3
   4637   4635   4649   4653     1  0.0000000  0.6508444  3
   4637   4635   4649   4654     1  0.0000000  0.6508444  3
   4637   4635   4657   4641     1  0.0000000  1.6038667  3
   4638   4636   4639   4640     1  0.0000000  0.6508444  3
   4638   4636   4639   4647     1  0.0000000  1.0460000  1
   4638   4636   4639   4647     1  0.0000000  0.0000000  3
   4638   4636   4639   4643     1  0.0000000  0.6508444  3
   4638   4636   4648   4651     1  0.0000000  0.6973333  3
   4638   4636   4635   4649     1  0.0000000  0.6508444  3
   4638   4636   4635   4657     1  0.0000000  1.0460000  1
   4638   4636   4635   4657     1  0.0000000  0.0000000  3
   4639   4640   4641   4644     1  0.0000000  0.6508444  3
   4639   4640   4646   4652     1  0.0000000  1.0460000  1
   4639   4640   4646   4652     1  0.0000000  0.6694400  3
   4639   4636   4648   4651     1  0.0000000  1.0460000  1
   4639   4636   4648   4651     1  0.0000000  0.6694400  3
   4640   4639   4647   4650     1  0.0000000  1.0460000  1
   4640   4639   4647   4650     1  0.0000000  0.6694400  3
   4641   4640   4646   4652     1  0.0000000  1.0460000  1
   4641   4640   4646   4652     1  0.0000000  0.6694400  3
   4641   4640   4639   4643     1  0.0000000  0.6508444  3
   4642   4640   4641   4645     1  0.0000000  1.0460000  1
   4642   4640   4641   4645     1  0.0000000  0.0000000  3
   4642   4640   4641   4657     1  0.0000000  1.0460000  1
   4642   4640   4641   4657     1  0.0000000  0.0000000  3
   4642   4640   4641   4644     1  0.0000000  0.6508444  3
   4642   4640   4646   4652     1  0.0000000  0.6973333  3
   4642   4640   4639   4647     1  0.0000000  1.0460000  1
   4642   4640   4639   4647     1  0.0000000  0.0000000  3
   4642   4640   4639   4643     1  0.0000000  0.6508444  3
   4643   4639   4640   4646     1  0.0000000  1.0460000  1
   4643   4639   4640   4646     1  0.0000000  0.0000000  3
   4643   4639   4647   4650     1  0.0000000  0.6973333  3
   4643   4639   4636   4648     1  0.0000000  1.0460000  1
   4643   4639   4636   4648     1  0.0000000  0.0000000  3
   4644   4641   4640   4646     1  0.0000000  0.6508444  3
   4653   4649   4655   4656     1  0.0000000  0.6973333  3
   4653   4649   4635   4657     1  0.0000000  1.0460000  1
   4653   4649   4635   4657     1  0.0000000  0.0000000  3
   4654   4649   4655   4656     1  0.0000000  0.6973333  3
   4654   4649   4635   4657     1  0.0000000  1.0460000  1
   4654   4649   4635   4657     1  0.0000000  0.0000000  3
   4658   4659   4662   4666     1  0.0000000  0.6508444  3
   4658   4659   4671   4674     1  0.0000000  1.0460000  1
   4658   4659   4671   4674     1  0.0000000  0.6694400  3
   4658   4672   4678   4679     1  0.0000000  1.0460000  1
   4658   4672   4678   4679     1  0.0000000  0.6694400  3
   4658   4680   4664   4667     1  0.0000000  1.6038667  3
   4659   4658   4672   4676     1  0.0000000  0.6508444  3
   4659   4658   4672   4677     1  0.0000000  0.6508444  3
   4659   4662   4663   4665     1  0.0000000  0.6508444  3
   4659   4662   4670   4673     1  0.0000000  1.0460000  1
   4659   4662   4670   4673     1  0.0000000  0.6694400  3
   4660   4658   4659   4662     1  0.0000000  0.6508444  3
   4660   4658   4659   4671     1  0.0000000  1.0460000  1
   4660   4658   4659   4671     1  0.0000000  0.0000000  3
   4660   4658   4659   4661     1  0.0000000  0.6508444  3
   4660   4658   4672   4678     1  0.0000000  1.0460000  1
   4660   4658   4672   4678     1  0.0000000  0.0000000  3
   4660   4658   4672   4676     1  0.0000000  0.6508444  3
   4660   4658   4672   4677     1  0.0000000  0.6508444  3
   4660   4658   4680   4664     1  0.0000000  1.6038667  3
   4661   4659   4658   4672     1  0.0000000  0.6508444  3
   4661   4659   4658   4680     1  0.0000000  1.0460000  1
   4661   4659   4658   4680     1  0.0000000  0.0000000  3
   4661   4659   4662   4663     1  0.0000000  0.6508444  3
   4661   4659   4662   4670     1  0.0000000  1.0460000  1
   4661   4659   4662   4670     1  0.0000000  0.0000000  3
   4661   4659   4662   4666     1  0.0000000  0.6508444  3
   4661   4659   4671   4674     1  0.0000000  0.6973333  3
   4662   4659   4671   4674     1  0.0000000  1.0460000  1
   4662   4659   4671   4674     1  0.0000000  0.6694400  3
   4662   4663   4664   4667     1  0.0000000  0.6508444  3
   4662   4663   4669   4675     1  0.0000000  1.0460000  1
   4662   4663   4669   4675     1  0.0000000  0.6694400  3
   4663   4662   4670   4673     1  0.0000000  1.0460000  1
   4663   4662   4670   4673     1  0.0000000  0.6694400  3
   4664   4663   4662   4666     1  0.0000000  0.6508444  3
   4664   4663   4669   4675     1  0.0000000  1.0460000  1
   4664   4663   4669   4675     1  0.0000000  0.6694400  3
   4665   4663   4662   4670     1  0.0000000  1.0460000  1
   4665   4663   4662   4670     1  0.0000000  0.0000000  3
   4665   4663   4662   4666     1  0.0000000  0.6508444  3
   4665   4663   4664   4668     1  0.0000000  1.0460000  1
   4665   4663   4664   4668     1  0.0000000  0.0000000  3
   4665   4663   4664   4680     1  0.0000000  1.0460000  1
   4665   4663   4664   4680     1  0.0000000  0.0000000  3
   4665   4663   4664   4667     1  0.0000000  0.6508444  3
   4665   4663   4669   4675     1  0.0000000  0.6973333  3
   4666   4662   4659   4671     1  0.0000000  1.0460000  1
   4666   4662   4659   4671     1  0.0000000  0.0000000  3
   4666   4662   4663   4669     1  0.0000000  1.0460000  1
   4666   4662   4663   4669     1  0.0000000  0.0000000  3
   4666   4662   4670   4673     1  0.0000000  0.6973333  3
   4667   4664   4663   4669     1  0.0000000  0.6508444  3
   4676   4672   4658   4680     1  0.0000000  1.0460000  1
   4676   4672   4658   4680     1  0.0000000  0.0000000  3
   4676   4672   4678   4679     1  0.0000000  0.6973333  3
   4677   4672   4658   4680     1  0.0000000  1.0460000  1
   4677   4672   4658   4680     1  0.0000000  0.0000000  3
   4677   4672   4678   4679     1  0.0000000  0.6973333  3
   4681   4682   4685   4689     1  0.0000000  0.6508444  3
   4681   4682   4694   4697     1  0.0000000  1.0460000  1
   4681   4682   4694   4697     1  0.0000000  0.6694400  3
   4681   4695   4701   4702     1  0.0000000  1.0460000  1
   4681   4695   4701   4702     1  0.0000000  0.6694400  3
   4681   4703   4687   4690     1  0.0000000  1.6038667  3
   4682   4685   4686   4688     1  0.0000000  0.6508444  3
   4682   4685   4693   4696     1  0.0000000  1.0460000  1
   4682   4685   4693   4696     1  0.0000000  0.6694400  3
   4682   4681   4695   4699     1  0.0000000  0.6508444  3
   4682   4681   4695   4700     1  0.0000000  0.6508444  3
   4683   4681   4682   4685     1  0.0000000  0.6508444  3
   4683   4681   4682   4694     1  0.0000000  1.0460000  1
   4683   4681   4682   4694     1  0.0000000  0.0000000  3
   4683   4681   4682   4684     1  0.0000000  0.6508444  3
   4683   4681   4695   4701     1  0.0000000  1.0460000  1
   4683   4681   4695   4701     1  0.0000000  0.0000000  3
   4683   4681   4695   4699     1  0.0000000  0.6508444  3
   4683   4681   4695   4700     1  0.0000000  0.6508444  3
   4683   4681   4703   4687     1  0.0000000  1.6038667  3
   4684   4682   4685   4686     1  0.0000000  0.6508444  3
   4684   4682   4685   4693     1  0.0000000  1.0460000  1
   4684   4682   4685   4693     1  0.0000000  0.0000000  3
   4684   4682   4685   4689     1  0.0000000  0.6508444  3
   4684   4682   4694   4697     1  0.0000000  0.6973333  3
   4684   4682   4681   4695     1  0.0000000  0.6508444  3
   4684   4682   4681   4703     1  0.0000000  1.0460000  1
   4684   4682   4681   4703     1  0.0000000  0.0000000  3
   4685   4686   4687   4690     1  0.0000000  0.6508444  3
   4685   4686   4692   4698     1  0.0000000  1.0460000  1
   4685   4686   4692   4698     1  0.0000000  0.6694400  3
   4685   4682   4694   4697     1  0.0000000  1.0460000  1
   4685   4682   4694   4697     1  0.0000000  0.6694400  3
   4686   4685   4693   4696     1  0.0000000  1.0460000  1
   4686   4685   4693   4696     1  0.0000000  0.6694400  3
   4687   4686   4692   4698     1  0.0000000  1.0460000  1
   4687   4686   4692   4698     1  0.0000000  0.6694400  3
   4687   4686   4685   4689     1  0.0000000  0.6508444  3
   4688   4686   4687   4691     1  0.0000000  1.0460000  1
   4688   4686   4687   4691     1  0.0000000  0.0000000  3
   4688   4686   4687   4703     1  0.0000000  1.0460000  1
   4688   4686   4687   4703     1  0.0000000  0.0000000  3
   4688   4686   4687   4690     1  0.0000000  0.6508444  3
   4688   4686   4692   4698     1  0.0000000  0.6973333  3
   4688   4686   4685   4693     1  0.0000000  1.0460000  1
   4688   4686   4685   4693     1  0.0000000  0.0000000  3
   4688   4686   4685   4689     1  0.0000000  0.6508444  3
   4689   4685   4686   4692     1  0.0000000  1.0460000  1
   4689   4685   4686   4692     1  0.0000000  0.0000000  3
   4689   4685   4693   4696     1  0.0000000  0.6973333  3
   4689   4685   4682   4694     1  0.0000000  1.0460000  1
   4689   4685   4682   4694     1  0.0000000  0.0000000  3
   4690   4687   4686   4692     1  0.0000000  0.6508444  3
   4699   4695   4701   4702     1  0.0000000  0.6973333  3
   4699   4695   4681   4703     1  0.0000000  1.0460000  1
   4699   4695   4681   4703     1  0.0000000  0.0000000  3
   4700   4695   4701   4702     1  0.0000000  0.6973333  3
   4700   4695   4681   4703     1  0.0000000  1.0460000  1
   4700   4695   4681   4703     1  0.0000000  0.0000000  3
   4704   4705   4708   4712     1  0.0000000  0.6508444  3
   4704   4705   4717   4720     1  0.0000000  1.0460000  1
   4704   4705   4717   4720     1  0.0000000  0.6694400  3
   4704   4718   4724   4725     1  0.0000000  1.0460000  1
   4704   4718   4724   4725     1  0.0000000  0.6694400  3
   4704   4726   4710   4713     1  0.0000000  1.6038667  3
   4705   4704   4718   4722     1  0.0000000  0.6508444  3
   4705   4704   4718   4723     1  0.0000000  0.6508444  3
   4705   4708   4709   4711     1  0.0000000  0.6508444  3
   4705   4708   4716   4719     1  0.0000000  1.0460000  1
   4705   4708   4716   4719     1  0.0000000  0.6694400  3
   4706   4704   4705   4708     1  0.0000000  0.6508444  3
   4706   4704   4705   4717     1  0.0000000  1.0460000  1
   4706   4704   4705   4717     1  0.0000000  0.0000000  3
   4706   4704   4705   4707     1  0.0000000  0.6508444  3
   4706   4704   4718   4724     1  0.0000000  1.0460000  1
   4706   4704   4718   4724     1  0.0000000  0.0000000  3
   4706   4704   4718   4722     1  0.0000000  0.6508444  3
   4706   4704   4718   4723     1  0.0000000  0.6508444  3
   4706   4704   4726   4710     1  0.0000000  1.6038667  3
   4707   4705   4704   4718     1  0.0000000  0.6508444  3
   4707   4705   4704   4726     1  0.0000000  1.0460000  1
   4707   4705   4704   4726     1  0.0000000  0.0000000  3
   4707   4705   4708   4709     1  0.0000000  0.6508444  3
   4707   4705   4708   4716     1  0.0000000  1.0460000  1
   4707   4705   4708   4716     1  0.0000000  0.0000000  3
   4707   4705   4708   4712     1  0.0000000  0.6508444  3
   4707   4705   4717   4720     1  0.0000000  0.6973333  3
   4708   4705   4717   4720     1  0.0000000  1.0460000  1
   4708   4705   4717   4720     1  0.0000000  0.6694400  3
   4708   4709   4710   4713     1  0.0000000  0.6508444  3
   4708   4709   4715   4721     1  0.0000000  1.0460000  1
   4708   4709   4715   4721     1  0.0000000  0.6694400  3
   4709   4708   4716   4719     1  0.0000000  1.0460000  1
   4709   4708   4716   4719     1  0.0000000  0.6694400  3
   4710   4709   4708   4712     1  0.0000000  0.6508444  3
   4710   4709   4715   4721     1  0.0000000  1.0460000  1
   4710   4709   4715   4721     1  0.0000000  0.6694400  3
   4711   4709   4708   4716     1  0.0000000  1.0460000  1
   4711   4709   4708   4716     1  0.0000000  0.0000000  3
   4711   4709   4708   4712     1  0.0000000  0.6508444  3
   4711   4709   4710   4714     1  0.0000000  1.0460000  1
   4711   4709   4710   4714     1  0.0000000  0.0000000  3
   4711   4709   4710   4726     1  0.0000000  1.0460000  1
   4711   4709   4710   4726     1  0.0000000  0.0000000  3
   4711   4709   4710   4713     1  0.0000000  0.6508444  3
   4711   4709   4715   4721     1  0.0000000  0.6973333  3
   4712   4708   4705   4717     1  0.0000000  1.0460000  1
   4712   4708   4705   4717     1  0.0000000  0.0000000  3
   4712   4708   4709   4715     1  0.0000000  1.0460000  1
   4712   4708   4709   4715     1  0.0000000  0.0000000  3
   4712   4708   4716   4719     1  0.0000000  0.6973333  3
   4713   4710   4709   4715     1  0.0000000  0.6508444  3
   4722   4718   4704   4726     1  0.0000000  1.0460000  1
   4722   4718   4704   4726     1  0.0000000  0.0000000  3
   4722   4718   4724   4725     1  0.0000000  0.6973333  3
   4723   4718   4704   4726     1  0.0000000  1.0460000  1
   4723   4718   4704   4726     1  0.0000000  0.0000000  3
   4723   4718   4724   4725     1  0.0000000  0.6973333  3
   4727   4728   4731   4735     1  0.0000000  0.6508444  3
   4727   4728   4740   4743     1  0.0000000  1.0460000  1
   4727   4728   4740   4743     1  0.0000000  0.6694400  3
   4727   4741   4747   4748     1  0.0000000  1.0460000  1
   4727   4741   4747   4748     1  0.0000000  0.6694400  3
   4727   4749   4733   4736     1  0.0000000  1.6038667  3
   4728   4731   4732   4734     1  0.0000000  0.6508444  3
   4728   4731   4739   4742     1  0.0000000  1.0460000  1
   4728   4731   4739   4742     1  0.0000000  0.6694400  3
   4728   4727   4741   4745     1  0.0000000  0.6508444  3
   4728   4727   4741   4746     1  0.0000000  0.6508444  3
   4729   4727   4728   4731     1  0.0000000  0.6508444  3
   4729   4727   4728   4740     1  0.0000000  1.0460000  1
   4729   4727   4728   4740     1  0.0000000  0.0000000  3
   4729   4727   4728   4730     1  0.0000000  0.6508444  3
   4729   4727   4741   4747     1  0.0000000  1.0460000  1
   4729   4727   4741   4747     1  0.0000000  0.0000000  3
   4729   4727   4741   4745     1  0.0000000  0.6508444  3
   4729   4727   4741   4746     1  0.0000000  0.6508444  3
   4729   4727   4749   4733     1  0.0000000  1.6038667  3
   4730   4728   4731   4732     1  0.0000000  0.6508444  3
   4730   4728   4731   4739     1  0.0000000  1.0460000  1
   4730   4728   4731   4739     1  0.0000000  0.0000000  3
   4730   4728   4731   4735     1  0.0000000  0.6508444  3
   4730   4728   4740   4743     1  0.0000000  0.6973333  3
   4730   4728   4727   4741     1  0.0000000  0.6508444  3
   4730   4728   4727   4749     1  0.0000000  1.0460000  1
   4730   4728   4727   4749     1  0.0000000  0.0000000  3
   4731   4732   4733   4736     1  0.0000000  0.6508444  3
   4731   4732   4738   4744     1  0.0000000  1.0460000  1
   4731   4732   4738   4744     1  0.0000000  0.6694400  3
   4731   4728   4740   4743     1  0.0000000  1.0460000  1
   4731   4728   4740   4743     1  0.0000000  0.6694400  3
   4732   4731   4739   4742     1  0.0000000  1.0460000  1
   4732   4731   4739   4742     1  0.0000000  0.6694400  3
   4733   4732   4738   4744     1  0.0000000  1.0460000  1
   4733   4732   4738   4744     1  0.0000000  0.6694400  3
   4733   4732   4731   4735     1  0.0000000  0.6508444  3
   4734   4732   4733   4737     1  0.0000000  1.0460000  1
   4734   4732   4733   4737     1  0.0000000  0.0000000  3
   4734   4732   4733   4749     1  0.0000000  1.0460000  1
   4734   4732   4733   4749     1  0.0000000  0.0000000  3
   4734   4732   4733   4736     1  0.0000000  0.6508444  3
   4734   4732   4738   4744     1  0.0000000  0.6973333  3
   4734   4732   4731   4739     1  0.0000000  1.0460000  1
   4734   4732   4731   4739     1  0.0000000  0.0000000  3
   4734   4732   4731   4735     1  0.0000000  0.6508444  3
   4735   4731   4732   4738     1  0.0000000  1.0460000  1
   4735   4731   4732   4738     1  0.0000000  0.0000000  3
   4735   4731   4739   4742     1  0.0000000  0.6973333  3
   4735   4731   4728   4740     1  0.0000000  1.0460000  1
   4735   4731   4728   4740     1  0.0000000  0.0000000  3
   4736   4733   4732   4738     1  0.0000000  0.6508444  3
   4745   4741   4747   4748     1  0.0000000  0.6973333  3
   4745   4741   4727   4749     1  0.0000000  1.0460000  1
   4745   4741   4727   4749     1  0.0000000  0.0000000  3
   4746   4741   4747   4748     1  0.0000000  0.6973333  3
   4746   4741   4727   4749     1  0.0000000  1.0460000  1
   4746   4741   4727   4749     1  0.0000000  0.0000000  3
   4750   4751   4754   4758     1  0.0000000  0.6508444  3
   4750   4751   4763   4766     1  0.0000000  1.0460000  1
   4750   4751   4763   4766     1  0.0000000  0.6694400  3
   4750   4764   4770   4771     1  0.0000000  1.0460000  1
   4750   4764   4770   4771     1  0.0000000  0.6694400  3
   4750   4772   4756   4759     1  0.0000000  1.6038667  3
   4751   4750   4764   4768     1  0.0000000  0.6508444  3
   4751   4750   4764   4769     1  0.0000000  0.6508444  3
   4751   4754   4755   4757     1  0.0000000  0.6508444  3
   4751   4754   4762   4765     1  0.0000000  1.0460000  1
   4751   4754   4762   4765     1  0.0000000  0.6694400  3
   4752   4750   4751   4754     1  0.0000000  0.6508444  3
   4752   4750   4751   4763     1  0.0000000  1.0460000  1
   4752   4750   4751   4763     1  0.0000000  0.0000000  3
   4752   4750   4751   4753     1  0.0000000  0.6508444  3
   4752   4750   4764   4770     1  0.0000000  1.0460000  1
   4752   4750   4764   4770     1  0.0000000  0.0000000  3
   4752   4750   4764   4768     1  0.0000000  0.6508444  3
   4752   4750   4764   4769     1  0.0000000  0.6508444  3
   4752   4750   4772   4756     1  0.0000000  1.6038667  3
   4753   4751   4750   4764     1  0.0000000  0.6508444  3
   4753   4751   4750   4772     1  0.0000000  1.0460000  1
   4753   4751   4750   4772     1  0.0000000  0.0000000  3
   4753   4751   4754   4755     1  0.0000000  0.6508444  3
   4753   4751   4754   4762     1  0.0000000  1.0460000  1
   4753   4751   4754   4762     1  0.0000000  0.0000000  3
   4753   4751   4754   4758     1  0.0000000  0.6508444  3
   4753   4751   4763   4766     1  0.0000000  0.6973333  3
   4754   4751   4763   4766     1  0.0000000  1.0460000  1
   4754   4751   4763   4766     1  0.0000000  0.6694400  3
   4754   4755   4756   4759     1  0.0000000  0.6508444  3
   4754   4755   4761   4767     1  0.0000000  1.0460000  1
   4754   4755   4761   4767     1  0.0000000  0.6694400  3
   4755   4754   4762   4765     1  0.0000000  1.0460000  1
   4755   4754   4762   4765     1  0.0000000  0.6694400  3
   4756   4755   4754   4758     1  0.0000000  0.6508444  3
   4756   4755   4761   4767     1  0.0000000  1.0460000  1
   4756   4755   4761   4767     1  0.0000000  0.6694400  3
   4757   4755   4754   4762     1  0.0000000  1.0460000  1
   4757   4755   4754   4762     1  0.0000000  0.0000000  3
   4757   4755   4754   4758     1  0.0000000  0.6508444  3
   4757   4755   4756   4760     1  0.0000000  1.0460000  1
   4757   4755   4756   4760     1  0.0000000  0.0000000  3
   4757   4755   4756   4772     1  0.0000000  1.0460000  1
   4757   4755   4756   4772     1  0.0000000  0.0000000  3
   4757   4755   4756   4759     1  0.0000000  0.6508444  3
   4757   4755   4761   4767     1  0.0000000  0.6973333  3
   4758   4754   4751   4763     1  0.0000000  1.0460000  1
   4758   4754   4751   4763     1  0.0000000  0.0000000  3
   4758   4754   4755   4761     1  0.0000000  1.0460000  1
   4758   4754   4755   4761     1  0.0000000  0.0000000  3
   4758   4754   4762   4765     1  0.0000000  0.6973333  3
   4759   4756   4755   4761     1  0.0000000  0.6508444  3
   4768   4764   4750   4772     1  0.0000000  1.0460000  1
   4768   4764   4750   4772     1  0.0000000  0.0000000  3
   4768   4764   4770   4771     1  0.0000000  0.6973333  3
   4769   4764   4750   4772     1  0.0000000  1.0460000  1
   4769   4764   4750   4772     1  0.0000000  0.0000000  3
   4769   4764   4770   4771     1  0.0000000  0.6973333  3
   4773   4774   4777   4781     1  0.0000000  0.6508444  3
   4773   4774   4786   4789     1  0.0000000  1.0460000  1
   4773   4774   4786   4789     1  0.0000000  0.6694400  3
   4773   4787   4793   4794     1  0.0000000  1.0460000  1
   4773   4787   4793   4794     1  0.0000000  0.6694400  3
   4773   4795   4779   4782     1  0.0000000  1.6038667  3
   4774   4777   4778   4780     1  0.0000000  0.6508444  3
   4774   4777   4785   4788     1  0.0000000  1.0460000  1
   4774   4777   4785   4788     1  0.0000000  0.6694400  3
   4774   4773   4787   4791     1  0.0000000  0.6508444  3
   4774   4773   4787   4792     1  0.0000000  0.6508444  3
   4775   4773   4774   4777     1  0.0000000  0.6508444  3
   4775   4773   4774   4786     1  0.0000000  1.0460000  1
   4775   4773   4774   4786     1  0.0000000  0.0000000  3
   4775   4773   4774   4776     1  0.0000000  0.6508444  3
   4775   4773   4787   4793     1  0.0000000  1.0460000  1
   4775   4773   4787   4793     1  0.0000000  0.0000000  3
   4775   4773   4787   4791     1  0.0000000  0.6508444  3
   4775   4773   4787   4792     1  0.0000000  0.6508444  3
   4775   4773   4795   4779     1  0.0000000  1.6038667  3
   4776   4774   4777   4778     1  0.0000000  0.6508444  3
   4776   4774   4777   4785     1  0.0000000  1.0460000  1
   4776   4774   4777   4785     1  0.0000000  0.0000000  3
   4776   4774   4777   4781     1  0.0000000  0.6508444  3
   4776   4774   4786   4789     1  0.0000000  0.6973333  3
   4776   4774   4773   4787     1  0.0000000  0.6508444  3
   4776   4774   4773   4795     1  0.0000000  1.0460000  1
   4776   4774   4773   4795     1  0.0000000  0.0000000  3
   4777   4778   4779   4782     1  0.0000000  0.6508444  3
   4777   4778   4784   4790     1  0.0000000  1.0460000  1
   4777   4778   4784   4790     1  0.0000000  0.6694400  3
   4777   4774   4786   4789     1  0.0000000  1.0460000  1
   4777   4774   4786   4789     1  0.0000000  0.6694400  3
   4778   4777   4785   4788     1  0.0000000  1.0460000  1
   4778   4777   4785   4788     1  0.0000000  0.6694400  3
   4779   4778   4784   4790     1  0.0000000  1.0460000  1
   4779   4778   4784   4790     1  0.0000000  0.6694400  3
   4779   4778   4777   4781     1  0.0000000  0.6508444  3
   4780   4778   4779   4783     1  0.0000000  1.0460000  1
   4780   4778   4779   4783     1  0.0000000  0.0000000  3
   4780   4778   4779   4795     1  0.0000000  1.0460000  1
   4780   4778   4779   4795     1  0.0000000  0.0000000  3
   4780   4778   4779   4782     1  0.0000000  0.6508444  3
   4780   4778   4784   4790     1  0.0000000  0.6973333  3
   4780   4778   4777   4785     1  0.0000000  1.0460000  1
   4780   4778   4777   4785     1  0.0000000  0.0000000  3
   4780   4778   4777   4781     1  0.0000000  0.6508444  3
   4781   4777   4778   4784     1  0.0000000  1.0460000  1
   4781   4777   4778   4784     1  0.0000000  0.0000000  3
   4781   4777   4785   4788     1  0.0000000  0.6973333  3
   4781   4777   4774   4786     1  0.0000000  1.0460000  1
   4781   4777   4774   4786     1  0.0000000  0.0000000  3
   4782   4779   4778   4784     1  0.0000000  0.6508444  3
   4791   4787   4793   4794     1  0.0000000  0.6973333  3
   4791   4787   4773   4795     1  0.0000000  1.0460000  1
   4791   4787   4773   4795     1  0.0000000  0.0000000  3
   4792   4787   4793   4794     1  0.0000000  0.6973333  3
   4792   4787   4773   4795     1  0.0000000  1.0460000  1
   4792   4787   4773   4795     1  0.0000000  0.0000000  3
   4796   4797   4800   4804     1  0.0000000  0.6508444  3
   4796   4797   4809   4812     1  0.0000000  1.0460000  1
   4796   4797   4809   4812     1  0.0000000  0.6694400  3
   4796   4810   4816   4817     1  0.0000000  1.0460000  1
   4796   4810   4816   4817     1  0.0000000  0.6694400  3
   4796   4818   4802   4805     1  0.0000000  1.6038667  3
   4797   4796   4810   4814     1  0.0000000  0.6508444  3
   4797   4796   4810   4815     1  0.0000000  0.6508444  3
   4797   4800   4801   4803     1  0.0000000  0.6508444  3
   4797   4800   4808   4811     1  0.0000000  1.0460000  1
   4797   4800   4808   4811     1  0.0000000  0.6694400  3
   4798   4796   4797   4800     1  0.0000000  0.6508444  3
   4798   4796   4797   4809     1  0.0000000  1.0460000  1
   4798   4796   4797   4809     1  0.0000000  0.0000000  3
   4798   4796   4797   4799     1  0.0000000  0.6508444  3
   4798   4796   4810   4816     1  0.0000000  1.0460000  1
   4798   4796   4810   4816     1  0.0000000  0.0000000  3
   4798   4796   4810   4814     1  0.0000000  0.6508444  3
   4798   4796   4810   4815     1  0.0000000  0.6508444  3
   4798   4796   4818   4802     1  0.0000000  1.6038667  3
   4799   4797   4796   4810     1  0.0000000  0.6508444  3
   4799   4797   4796   4818     1  0.0000000  1.0460000  1
   4799   4797   4796   4818     1  0.0000000  0.0000000  3
   4799   4797   4800   4801     1  0.0000000  0.6508444  3
   4799   4797   4800   4808     1  0.0000000  1.0460000  1
   4799   4797   4800   4808     1  0.0000000  0.0000000  3
   4799   4797   4800   4804     1  0.0000000  0.6508444  3
   4799   4797   4809   4812     1  0.0000000  0.6973333  3
   4800   4797   4809   4812     1  0.0000000  1.0460000  1
   4800   4797   4809   4812     1  0.0000000  0.6694400  3
   4800   4801   4802   4805     1  0.0000000  0.6508444  3
   4800   4801   4807   4813     1  0.0000000  1.0460000  1
   4800   4801   4807   4813     1  0.0000000  0.6694400  3
   4801   4800   4808   4811     1  0.0000000  1.0460000  1
   4801   4800   4808   4811     1  0.0000000  0.6694400  3
   4802   4801   4800   4804     1  0.0000000  0.6508444  3
   4802   4801   4807   4813     1  0.0000000  1.0460000  1
   4802   4801   4807   4813     1  0.0000000  0.6694400  3
   4803   4801   4800   4808     1  0.0000000  1.0460000  1
   4803   4801   4800   4808     1  0.0000000  0.0000000  3
   4803   4801   4800   4804     1  0.0000000  0.6508444  3
   4803   4801   4802   4806     1  0.0000000  1.0460000  1
   4803   4801   4802   4806     1  0.0000000  0.0000000  3
   4803   4801   4802   4818     1  0.0000000  1.0460000  1
   4803   4801   4802   4818     1  0.0000000  0.0000000  3
   4803   4801   4802   4805     1  0.0000000  0.6508444  3
   4803   4801   4807   4813     1  0.0000000  0.6973333  3
   4804   4800   4797   4809     1  0.0000000  1.0460000  1
   4804   4800   4797   4809     1  0.0000000  0.0000000  3
   4804   4800   4801   4807     1  0.0000000  1.0460000  1
   4804   4800   4801   4807     1  0.0000000  0.0000000  3
   4804   4800   4808   4811     1  0.0000000  0.6973333  3
   4805   4802   4801   4807     1  0.0000000  0.6508444  3
   4814   4810   4796   4818     1  0.0000000  1.0460000  1
   4814   4810   4796   4818     1  0.0000000  0.0000000  3
   4814   4810   4816   4817     1  0.0000000  0.6973333  3
   4815   4810   4796   4818     1  0.0000000  1.0460000  1
   4815   4810   4796   4818     1  0.0000000  0.0000000  3
   4815   4810   4816   4817     1  0.0000000  0.6973333  3
   4819   4820   4823   4827     1  0.0000000  0.6508444  3
   4819   4820   4832   4835     1  0.0000000  1.0460000  1
   4819   4820   4832   4835     1  0.0000000  0.6694400  3
   4819   4833   4839   4840     1  0.0000000  1.0460000  1
   4819   4833   4839   4840     1  0.0000000  0.6694400  3
   4819   4841   4825   4828     1  0.0000000  1.6038667  3
   4820   4823   4824   4826     1  0.0000000  0.6508444  3
   4820   4823   4831   4834     1  0.0000000  1.0460000  1
   4820   4823   4831   4834     1  0.0000000  0.6694400  3
   4820   4819   4833   4837     1  0.0000000  0.6508444  3
   4820   4819   4833   4838     1  0.0000000  0.6508444  3
   4821   4819   4820   4823     1  0.0000000  0.6508444  3
   4821   4819   4820   4832     1  0.0000000  1.0460000  1
   4821   4819   4820   4832     1  0.0000000  0.0000000  3
   4821   4819   4820   4822     1  0.0000000  0.6508444  3
   4821   4819   4833   4839     1  0.0000000  1.0460000  1
   4821   4819   4833   4839     1  0.0000000  0.0000000  3
   4821   4819   4833   4837     1  0.0000000  0.6508444  3
   4821   4819   4833   4838     1  0.0000000  0.6508444  3
   4821   4819   4841   4825     1  0.0000000  1.6038667  3
   4822   4820   4823   4824     1  0.0000000  0.6508444  3
   4822   4820   4823   4831     1  0.0000000  1.0460000  1
   4822   4820   4823   4831     1  0.0000000  0.0000000  3
   4822   4820   4823   4827     1  0.0000000  0.6508444  3
   4822   4820   4832   4835     1  0.0000000  0.6973333  3
   4822   4820   4819   4833     1  0.0000000  0.6508444  3
   4822   4820   4819   4841     1  0.0000000  1.0460000  1
   4822   4820   4819   4841     1  0.0000000  0.0000000  3
   4823   4824   4825   4828     1  0.0000000  0.6508444  3
   4823   4824   4830   4836     1  0.0000000  1.0460000  1
   4823   4824   4830   4836     1  0.0000000  0.6694400  3
   4823   4820   4832   4835     1  0.0000000  1.0460000  1
   4823   4820   4832   4835     1  0.0000000  0.6694400  3
   4824   4823   4831   4834     1  0.0000000  1.0460000  1
   4824   4823   4831   4834     1  0.0000000  0.6694400  3
   4825   4824   4830   4836     1  0.0000000  1.0460000  1
   4825   4824   4830   4836     1  0.0000000  0.6694400  3
   4825   4824   4823   4827     1  0.0000000  0.6508444  3
   4826   4824   4825   4829     1  0.0000000  1.0460000  1
   4826   4824   4825   4829     1  0.0000000  0.0000000  3
   4826   4824   4825   4841     1  0.0000000  1.0460000  1
   4826   4824   4825   4841     1  0.0000000  0.0000000  3
   4826   4824   4825   4828     1  0.0000000  0.6508444  3
   4826   4824   4830   4836     1  0.0000000  0.6973333  3
   4826   4824   4823   4831     1  0.0000000  1.0460000  1
   4826   4824   4823   4831     1  0.0000000  0.0000000  3
   4826   4824   4823   4827     1  0.0000000  0.6508444  3
   4827   4823   4824   4830     1  0.0000000  1.0460000  1
   4827   4823   4824   4830     1  0.0000000  0.0000000  3
   4827   4823   4831   4834     1  0.0000000  0.6973333  3
   4827   4823   4820   4832     1  0.0000000  1.0460000  1
   4827   4823   4820   4832     1  0.0000000  0.0000000  3
   4828   4825   4824   4830     1  0.0000000  0.6508444  3
   4837   4833   4839   4840     1  0.0000000  0.6973333  3
   4837   4833   4819   4841     1  0.0000000  1.0460000  1
   4837   4833   4819   4841     1  0.0000000  0.0000000  3
   4838   4833   4839   4840     1  0.0000000  0.6973333  3
   4838   4833   4819   4841     1  0.0000000  1.0460000  1
   4838   4833   4819   4841     1  0.0000000  0.0000000  3
   4842   4843   4846   4850     1  0.0000000  0.6508444  3
   4842   4843   4855   4858     1  0.0000000  1.0460000  1
   4842   4843   4855   4858     1  0.0000000  0.6694400  3
   4842   4856   4862   4863     1  0.0000000  1.0460000  1
   4842   4856   4862   4863     1  0.0000000  0.6694400  3
   4842   4864   4848   4851     1  0.0000000  1.6038667  3
   4843   4842   4856   4860     1  0.0000000  0.6508444  3
   4843   4842   4856   4861     1  0.0000000  0.6508444  3
   4843   4846   4847   4849     1  0.0000000  0.6508444  3
   4843   4846   4854   4857     1  0.0000000  1.0460000  1
   4843   4846   4854   4857     1  0.0000000  0.6694400  3
   4844   4842   4843   4846     1  0.0000000  0.6508444  3
   4844   4842   4843   4855     1  0.0000000  1.0460000  1
   4844   4842   4843   4855     1  0.0000000  0.0000000  3
   4844   4842   4843   4845     1  0.0000000  0.6508444  3
   4844   4842   4856   4862     1  0.0000000  1.0460000  1
   4844   4842   4856   4862     1  0.0000000  0.0000000  3
   4844   4842   4856   4860     1  0.0000000  0.6508444  3
   4844   4842   4856   4861     1  0.0000000  0.6508444  3
   4844   4842   4864   4848     1  0.0000000  1.6038667  3
   4845   4843   4842   4856     1  0.0000000  0.6508444  3
   4845   4843   4842   4864     1  0.0000000  1.0460000  1
   4845   4843   4842   4864     1  0.0000000  0.0000000  3
   4845   4843   4846   4847     1  0.0000000  0.6508444  3
   4845   4843   4846   4854     1  0.0000000  1.0460000  1
   4845   4843   4846   4854     1  0.0000000  0.0000000  3
   4845   4843   4846   4850     1  0.0000000  0.6508444  3
   4845   4843   4855   4858     1  0.0000000  0.6973333  3
   4846   4843   4855   4858     1  0.0000000  1.0460000  1
   4846   4843   4855   4858     1  0.0000000  0.6694400  3
   4846   4847   4848   4851     1  0.0000000  0.6508444  3
   4846   4847   4853   4859     1  0.0000000  1.0460000  1
   4846   4847   4853   4859     1  0.0000000  0.6694400  3
   4847   4846   4854   4857     1  0.0000000  1.0460000  1
   4847   4846   4854   4857     1  0.0000000  0.6694400  3
   4848   4847   4846   4850     1  0.0000000  0.6508444  3
   4848   4847   4853   4859     1  0.0000000  1.0460000  1
   4848   4847   4853   4859     1  0.0000000  0.6694400  3
   4849   4847   4846   4854     1  0.0000000  1.0460000  1
   4849   4847   4846   4854     1  0.0000000  0.0000000  3
   4849   4847   4846   4850     1  0.0000000  0.6508444  3
   4849   4847   4848   4852     1  0.0000000  1.0460000  1
   4849   4847   4848   4852     1  0.0000000  0.0000000  3
   4849   4847   4848   4864     1  0.0000000  1.0460000  1
   4849   4847   4848   4864     1  0.0000000  0.0000000  3
   4849   4847   4848   4851     1  0.0000000  0.6508444  3
   4849   4847   4853   4859     1  0.0000000  0.6973333  3
   4850   4846   4843   4855     1  0.0000000  1.0460000  1
   4850   4846   4843   4855     1  0.0000000  0.0000000  3
   4850   4846   4847   4853     1  0.0000000  1.0460000  1
   4850   4846   4847   4853     1  0.0000000  0.0000000  3
   4850   4846   4854   4857     1  0.0000000  0.6973333  3
   4851   4848   4847   4853     1  0.0000000  0.6508444  3
   4860   4856   4842   4864     1  0.0000000  1.0460000  1
   4860   4856   4842   4864     1  0.0000000  0.0000000  3
   4860   4856   4862   4863     1  0.0000000  0.6973333  3
   4861   4856   4842   4864     1  0.0000000  1.0460000  1
   4861   4856   4842   4864     1  0.0000000  0.0000000  3
   4861   4856   4862   4863     1  0.0000000  0.6973333  3
   4865   4866   4869   4873     1  0.0000000  0.6508444  3
   4865   4866   4878   4881     1  0.0000000  1.0460000  1
   4865   4866   4878   4881     1  0.0000000  0.6694400  3
   4865   4879   4885   4886     1  0.0000000  1.0460000  1
   4865   4879   4885   4886     1  0.0000000  0.6694400  3
   4865   4887   4871   4874     1  0.0000000  1.6038667  3
   4866   4869   4870   4872     1  0.0000000  0.6508444  3
   4866   4869   4877   4880     1  0.0000000  1.0460000  1
   4866   4869   4877   4880     1  0.0000000  0.6694400  3
   4866   4865   4879   4883     1  0.0000000  0.6508444  3
   4866   4865   4879   4884     1  0.0000000  0.6508444  3
   4867   4865   4866   4869     1  0.0000000  0.6508444  3
   4867   4865   4866   4878     1  0.0000000  1.0460000  1
   4867   4865   4866   4878     1  0.0000000  0.0000000  3
   4867   4865   4866   4868     1  0.0000000  0.6508444  3
   4867   4865   4879   4885     1  0.0000000  1.0460000  1
   4867   4865   4879   4885     1  0.0000000  0.0000000  3
   4867   4865   4879   4883     1  0.0000000  0.6508444  3
   4867   4865   4879   4884     1  0.0000000  0.6508444  3
   4867   4865   4887   4871     1  0.0000000  1.6038667  3
   4868   4866   4869   4870     1  0.0000000  0.6508444  3
   4868   4866   4869   4877     1  0.0000000  1.0460000  1
   4868   4866   4869   4877     1  0.0000000  0.0000000  3
   4868   4866   4869   4873     1  0.0000000  0.6508444  3
   4868   4866   4878   4881     1  0.0000000  0.6973333  3
   4868   4866   4865   4879     1  0.0000000  0.6508444  3
   4868   4866   4865   4887     1  0.0000000  1.0460000  1
   4868   4866   4865   4887     1  0.0000000  0.0000000  3
   4869   4870   4871   4874     1  0.0000000  0.6508444  3
   4869   4870   4876   4882     1  0.0000000  1.0460000  1
   4869   4870   4876   4882     1  0.0000000  0.6694400  3
   4869   4866   4878   4881     1  0.0000000  1.0460000  1
   4869   4866   4878   4881     1  0.0000000  0.6694400  3
   4870   4869   4877   4880     1  0.0000000  1.0460000  1
   4870   4869   4877   4880     1  0.0000000  0.6694400  3
   4871   4870   4876   4882     1  0.0000000  1.0460000  1
   4871   4870   4876   4882     1  0.0000000  0.6694400  3
   4871   4870   4869   4873     1  0.0000000  0.6508444  3
   4872   4870   4871   4875     1  0.0000000  1.0460000  1
   4872   4870   4871   4875     1  0.0000000  0.0000000  3
   4872   4870   4871   4887     1  0.0000000  1.0460000  1
   4872   4870   4871   4887     1  0.0000000  0.0000000  3
   4872   4870   4871   4874     1  0.0000000  0.6508444  3
   4872   4870   4876   4882     1  0.0000000  0.6973333  3
   4872   4870   4869   4877     1  0.0000000  1.0460000  1
   4872   4870   4869   4877     1  0.0000000  0.0000000  3
   4872   4870   4869   4873     1  0.0000000  0.6508444  3
   4873   4869   4870   4876     1  0.0000000  1.0460000  1
   4873   4869   4870   4876     1  0.0000000  0.0000000  3
   4873   4869   4877   4880     1  0.0000000  0.6973333  3
   4873   4869   4866   4878     1  0.0000000  1.0460000  1
   4873   4869   4866   4878     1  0.0000000  0.0000000  3
   4874   4871   4870   4876     1  0.0000000  0.6508444  3
   4883   4879   4885   4886     1  0.0000000  0.6973333  3
   4883   4879   4865   4887     1  0.0000000  1.0460000  1
   4883   4879   4865   4887     1  0.0000000  0.0000000  3
   4884   4879   4885   4886     1  0.0000000  0.6973333  3
   4884   4879   4865   4887     1  0.0000000  1.0460000  1
   4884   4879   4865   4887     1  0.0000000  0.0000000  3
   4888   4889   4892   4896     1  0.0000000  0.6508444  3
   4888   4889   4901   4904     1  0.0000000  1.0460000  1
   4888   4889   4901   4904     1  0.0000000  0.6694400  3
   4888   4902   4908   4909     1  0.0000000  1.0460000  1
   4888   4902   4908   4909     1  0.0000000  0.6694400  3
   4888   4910   4894   4897     1  0.0000000  1.6038667  3
   4889   4888   4902   4906     1  0.0000000  0.6508444  3
   4889   4888   4902   4907     1  0.0000000  0.6508444  3
   4889   4892   4893   4895     1  0.0000000  0.6508444  3
   4889   4892   4900   4903     1  0.0000000  1.0460000  1
   4889   4892   4900   4903     1  0.0000000  0.6694400  3
   4890   4888   4889   4892     1  0.0000000  0.6508444  3
   4890   4888   4889   4901     1  0.0000000  1.0460000  1
   4890   4888   4889   4901     1  0.0000000  0.0000000  3
   4890   4888   4889   4891     1  0.0000000  0.6508444  3
   4890   4888   4902   4908     1  0.0000000  1.0460000  1
   4890   4888   4902   4908     1  0.0000000  0.0000000  3
   4890   4888   4902   4906     1  0.0000000  0.6508444  3
   4890   4888   4902   4907     1  0.0000000  0.6508444  3
   4890   4888   4910   4894     1  0.0000000  1.6038667  3
   4891   4889   4888   4902     1  0.0000000  0.6508444  3
   4891   4889   4888   4910     1  0.0000000  1.0460000  1
   4891   4889   4888   4910     1  0.0000000  0.0000000  3
   4891   4889   4892   4893     1  0.0000000  0.6508444  3
   4891   4889   4892   4900     1  0.0000000  1.0460000  1
   4891   4889   4892   4900     1  0.0000000  0.0000000  3
   4891   4889   4892   4896     1  0.0000000  0.6508444  3
   4891   4889   4901   4904     1  0.0000000  0.6973333  3
   4892   4889   4901   4904     1  0.0000000  1.0460000  1
   4892   4889   4901   4904     1  0.0000000  0.6694400  3
   4892   4893   4894   4897     1  0.0000000  0.6508444  3
   4892   4893   4899   4905     1  0.0000000  1.0460000  1
   4892   4893   4899   4905     1  0.0000000  0.6694400  3
   4893   4892   4900   4903     1  0.0000000  1.0460000  1
   4893   4892   4900   4903     1  0.0000000  0.6694400  3
   4894   4893   4892   4896     1  0.0000000  0.6508444  3
   4894   4893   4899   4905     1  0.0000000  1.0460000  1
   4894   4893   4899   4905     1  0.0000000  0.6694400  3
   4895   4893   4892   4900     1  0.0000000  1.0460000  1
   4895   4893   4892   4900     1  0.0000000  0.0000000  3
   4895   4893   4892   4896     1  0.0000000  0.6508444  3
   4895   4893   4894   4898     1  0.0000000  1.0460000  1
   4895   4893   4894   4898     1  0.0000000  0.0000000  3
   4895   4893   4894   4910     1  0.0000000  1.0460000  1
   4895   4893   4894   4910     1  0.0000000  0.0000000  3
   4895   4893   4894   4897     1  0.0000000  0.6508444  3
   4895   4893   4899   4905     1  0.0000000  0.6973333  3
   4896   4892   4889   4901     1  0.0000000  1.0460000  1
   4896   4892   4889   4901     1  0.0000000  0.0000000  3
   4896   4892   4893   4899     1  0.0000000  1.0460000  1
   4896   4892   4893   4899     1  0.0000000  0.0000000  3
   4896   4892   4900   4903     1  0.0000000  0.6973333  3
   4897   4894   4893   4899     1  0.0000000  0.6508444  3
   4906   4902   4888   4910     1  0.0000000  1.0460000  1
   4906   4902   4888   4910     1  0.0000000  0.0000000  3
   4906   4902   4908   4909     1  0.0000000  0.6973333  3
   4907   4902   4888   4910     1  0.0000000  1.0460000  1
   4907   4902   4888   4910     1  0.0000000  0.0000000  3
   4907   4902   4908   4909     1  0.0000000  0.6973333  3
   4911   4912   4915   4919     1  0.0000000  0.6508444  3
   4911   4912   4924   4927     1  0.0000000  1.0460000  1
   4911   4912   4924   4927     1  0.0000000  0.6694400  3
   4911   4925   4931   4932     1  0.0000000  1.0460000  1
   4911   4925   4931   4932     1  0.0000000  0.6694400  3
   4911   4933   4917   4920     1  0.0000000  1.6038667  3
   4912   4915   4916   4918     1  0.0000000  0.6508444  3
   4912   4915   4923   4926     1  0.0000000  1.0460000  1
   4912   4915   4923   4926     1  0.0000000  0.6694400  3
   4912   4911   4925   4929     1  0.0000000  0.6508444  3
   4912   4911   4925   4930     1  0.0000000  0.6508444  3
   4913   4911   4912   4915     1  0.0000000  0.6508444  3
   4913   4911   4912   4924     1  0.0000000  1.0460000  1
   4913   4911   4912   4924     1  0.0000000  0.0000000  3
   4913   4911   4912   4914     1  0.0000000  0.6508444  3
   4913   4911   4925   4931     1  0.0000000  1.0460000  1
   4913   4911   4925   4931     1  0.0000000  0.0000000  3
   4913   4911   4925   4929     1  0.0000000  0.6508444  3
   4913   4911   4925   4930     1  0.0000000  0.6508444  3
   4913   4911   4933   4917     1  0.0000000  1.6038667  3
   4914   4912   4915   4916     1  0.0000000  0.6508444  3
   4914   4912   4915   4923     1  0.0000000  1.0460000  1
   4914   4912   4915   4923     1  0.0000000  0.0000000  3
   4914   4912   4915   4919     1  0.0000000  0.6508444  3
   4914   4912   4924   4927     1  0.0000000  0.6973333  3
   4914   4912   4911   4925     1  0.0000000  0.6508444  3
   4914   4912   4911   4933     1  0.0000000  1.0460000  1
   4914   4912   4911   4933     1  0.0000000  0.0000000  3
   4915   4916   4917   4920     1  0.0000000  0.6508444  3
   4915   4916   4922   4928     1  0.0000000  1.0460000  1
   4915   4916   4922   4928     1  0.0000000  0.6694400  3
   4915   4912   4924   4927     1  0.0000000  1.0460000  1
   4915   4912   4924   4927     1  0.0000000  0.6694400  3
   4916   4915   4923   4926     1  0.0000000  1.0460000  1
   4916   4915   4923   4926     1  0.0000000  0.6694400  3
   4917   4916   4922   4928     1  0.0000000  1.0460000  1
   4917   4916   4922   4928     1  0.0000000  0.6694400  3
   4917   4916   4915   4919     1  0.0000000  0.6508444  3
   4918   4916   4917   4921     1  0.0000000  1.0460000  1
   4918   4916   4917   4921     1  0.0000000  0.0000000  3
   4918   4916   4917   4933     1  0.0000000  1.0460000  1
   4918   4916   4917   4933     1  0.0000000  0.0000000  3
   4918   4916   4917   4920     1  0.0000000  0.6508444  3
   4918   4916   4922   4928     1  0.0000000  0.6973333  3
   4918   4916   4915   4923     1  0.0000000  1.0460000  1
   4918   4916   4915   4923     1  0.0000000  0.0000000  3
   4918   4916   4915   4919     1  0.0000000  0.6508444  3
   4919   4915   4916   4922     1  0.0000000  1.0460000  1
   4919   4915   4916   4922     1  0.0000000  0.0000000  3
   4919   4915   4923   4926     1  0.0000000  0.6973333  3
   4919   4915   4912   4924     1  0.0000000  1.0460000  1
   4919   4915   4912   4924     1  0.0000000  0.0000000  3
   4920   4917   4916   4922     1  0.0000000  0.6508444  3
   4929   4925   4931   4932     1  0.0000000  0.6973333  3
   4929   4925   4911   4933     1  0.0000000  1.0460000  1
   4929   4925   4911   4933     1  0.0000000  0.0000000  3
   4930   4925   4931   4932     1  0.0000000  0.6973333  3
   4930   4925   4911   4933     1  0.0000000  1.0460000  1
   4930   4925   4911   4933     1  0.0000000  0.0000000  3

;[ system ]
;; Name
;Generic title
;
;[ molecules ]
;; Compound       #mols
;g4npncore_petim_betagalactose       1
